 Entering Gaussian System, Link 0=g16
 Input=carbene_irc.gjf
 Output=carbene_irc.log
 Initial command:
 /usr/g16/l1.exe "/scratch/wsr/gaussian/Gau-117305.inp" -scrdir="/scratch/wsr/gaussian/"
 Entering Link 1 = /usr/g16/l1.exe PID=    117306.
  
 Copyright (c) 1988,1990,1992,1993,1995,1998,2003,2009,2016,
            Gaussian, Inc.  All Rights Reserved.
  
 This is part of the Gaussian(R) 16 program.  It is based on
 the Gaussian(R) 09 system (copyright 2009, Gaussian, Inc.),
 the Gaussian(R) 03 system (copyright 2003, Gaussian, Inc.),
 the Gaussian(R) 98 system (copyright 1998, Gaussian, Inc.),
 the Gaussian(R) 94 system (copyright 1995, Gaussian, Inc.),
 the Gaussian 92(TM) system (copyright 1992, Gaussian, Inc.),
 the Gaussian 90(TM) system (copyright 1990, Gaussian, Inc.),
 the Gaussian 88(TM) system (copyright 1988, Gaussian, Inc.),
 the Gaussian 86(TM) system (copyright 1986, Carnegie Mellon
 University), and the Gaussian 82(TM) system (copyright 1983,
 Carnegie Mellon University). Gaussian is a federally registered
 trademark of Gaussian, Inc.
  
 This software contains proprietary and confidential information,
 including trade secrets, belonging to Gaussian, Inc.
  
 This software is provided under written license and may be
 used, copied, transmitted, or stored only in accord with that
 written license.
  
 The following legend is applicable only to US Government
 contracts under FAR:
  
                    RESTRICTED RIGHTS LEGEND
  
 Use, reproduction and disclosure by the US Government is
 subject to restrictions as set forth in subparagraphs (a)
 and (c) of the Commercial Computer Software - Restricted
 Rights clause in FAR 52.227-19.
  
 Gaussian, Inc.
 340 Quinnipiac St., Bldg. 40, Wallingford CT 06492
  
  
 ---------------------------------------------------------------
 Warning -- This program may not be used in any manner that
 competes with the business of Gaussian, Inc. or will provide
 assistance to any competitor of Gaussian, Inc.  The licensee
 of this program is prohibited from giving any competitor of
 Gaussian, Inc. access to this program.  By using this program,
 the user acknowledges that Gaussian, Inc. is engaged in the
 business of creating and licensing software in the field of
 computational chemistry and represents and warrants to the
 licensee that it is not a competitor of Gaussian, Inc. and that
 it will not use this program in any manner prohibited above.
 ---------------------------------------------------------------
  

 Cite this work as:
 Gaussian 16, Revision A.03,
 M. J. Frisch, G. W. Trucks, H. B. Schlegel, G. E. Scuseria, 
 M. A. Robb, J. R. Cheeseman, G. Scalmani, V. Barone, 
 G. A. Petersson, H. Nakatsuji, X. Li, M. Caricato, A. V. Marenich, 
 J. Bloino, B. G. Janesko, R. Gomperts, B. Mennucci, H. P. Hratchian, 
 J. V. Ortiz, A. F. Izmaylov, J. L. Sonnenberg, D. Williams-Young, 
 F. Ding, F. Lipparini, F. Egidi, J. Goings, B. Peng, A. Petrone, 
 T. Henderson, D. Ranasinghe, V. G. Zakrzewski, J. Gao, N. Rega, 
 G. Zheng, W. Liang, M. Hada, M. Ehara, K. Toyota, R. Fukuda, 
 J. Hasegawa, M. Ishida, T. Nakajima, Y. Honda, O. Kitao, H. Nakai, 
 T. Vreven, K. Throssell, J. A. Montgomery, Jr., J. E. Peralta, 
 F. Ogliaro, M. J. Bearpark, J. J. Heyd, E. N. Brothers, K. N. Kudin, 
 V. N. Staroverov, T. A. Keith, R. Kobayashi, J. Normand, 
 K. Raghavachari, A. P. Rendell, J. C. Burant, S. S. Iyengar, 
 J. Tomasi, M. Cossi, J. M. Millam, M. Klene, C. Adamo, R. Cammi, 
 J. W. Ochterski, R. L. Martin, K. Morokuma, O. Farkas, 
 J. B. Foresman, and D. J. Fox, Gaussian, Inc., Wallingford CT, 2016.
 
 ******************************************
 Gaussian 16:  ES64L-G16RevA.03 25-Dec-2016
                31-Oct-2019 
 ******************************************
 %chk=carbene_irc.chk
 %nprocshared=24
 Will use up to   24 processors via shared memory.
 ----------------------------------------------------------------------
 #p irc=(calcfc,maxpoint=30) b3lyp/6-31g(d) scrf=(smd,solvent=benzene) 
 em=gd3bj
 ----------------------------------------------------------------------
 1/10=4,18=10,26=3,38=1,42=30,44=3,172=1/1,23;
 2/12=2,17=6,18=5,29=1,40=1/2;
 3/5=1,6=6,7=1,11=2,25=1,30=1,70=32201,71=2,72=12,74=-5,124=41,140=1/1,2,3;
 4//1;
 5/5=2,38=5,53=12/2;
 8/6=4,10=90,11=11/1;
 11/6=1,8=1,9=11,15=111,16=1/1,2,10;
 10/6=1,13=1/2;
 6/7=2,8=2,9=2,10=2,28=1/1;
 7/10=1,18=20,25=1/1,2,3,16;
 1/10=4,18=10,26=3,42=30,44=3/23(2);
 2/29=1/2;
 99/5=20/99;
 2/29=1/2;
 3/5=1,6=6,7=1,11=2,25=1,30=1,70=32205,71=2,72=12,74=-5,124=41,140=1/1,2,3;
 4/5=5,16=3,69=1/1;
 5/5=2,38=5,53=12/2;
 8/6=4,10=90,11=11/1;
 11/6=1,8=1,9=11,15=111,16=1/1,2,10;
 10/6=1,13=1/2;
 7/10=1,18=20,25=1/1,2,3,16;
 1/18=10,26=3,42=30,44=3/23(-8);
 2/29=1/2;
 6/7=2,8=2,9=2,10=2,19=2,28=1/1;
 99/5=20,9=1/99;
 Leave Link    1 at Thu Oct 31 05:46:10 2019, MaxMem=           0 cpu:               3.4 elap:               0.2
 (Enter /usr/g16/l101.exe)
 -------------------
 Title Card Required
 -------------------
 Symbolic Z-matrix:
 Charge =  0 Multiplicity = 1
 C                     0.00002  -0.79514   0.25874 
 C                     0.67962   1.29865  -0.09327 
 C                    -0.67959   1.29865  -0.09335 
 H                     1.38914   2.10094  -0.21956 
 H                    -1.3891    2.10092  -0.21977 
 N                    -1.08882  -0.0065    0.14889 
 N                     1.08885  -0.00646   0.14907 
 C                    -2.42626  -0.54972  -0.02083 
 H                    -2.39357  -1.26353  -0.8547 
 H                    -2.75089  -1.06205   0.88824 
 H                    -3.11662   0.26463  -0.24433 
 C                     2.42622  -0.54977  -0.02093 
 H                     2.39354  -1.26307  -0.85522 
 H                     3.11669   0.26464  -0.24386 
 H                     2.75072  -1.06269   0.88786 
 H                    -0.00022  -2.32884  -1.55616 
 H                     0.00005  -1.87632   0.14965 
 
 ITRead=  0  0  0  0  0  0  0  0  0  0  0  0  0  0  0  0  0
 MicOpt= -1 -1 -1 -1 -1 -1 -1 -1 -1 -1 -1 -1 -1 -1 -1 -1 -1
 NAtoms=     17 NQM=       17 NQMF=       0 NMMI=      0 NMMIF=      0
                NMic=       0 NMicF=      0.
                    Isotopes and Nuclear Properties:
 (Nuclear quadrupole moments (NQMom) in fm**2, nuclear magnetic moments (NMagM)
  in nuclear magnetons)

  Atom         1           2           3           4           5           6           7           8           9          10
 IAtWgt=          12          12          12           1           1          14          14          12           1           1
 AtmWgt=  12.0000000  12.0000000  12.0000000   1.0078250   1.0078250  14.0030740  14.0030740  12.0000000   1.0078250   1.0078250
 NucSpn=           0           0           0           1           1           2           2           0           1           1
 AtZEff=  -0.0000000  -0.0000000  -0.0000000  -0.0000000  -0.0000000  -0.0000000  -0.0000000  -0.0000000  -0.0000000  -0.0000000
 NQMom=    0.0000000   0.0000000   0.0000000   0.0000000   0.0000000   2.0440000   2.0440000   0.0000000   0.0000000   0.0000000
 NMagM=    0.0000000   0.0000000   0.0000000   2.7928460   2.7928460   0.4037610   0.4037610   0.0000000   2.7928460   2.7928460
 AtZNuc=   6.0000000   6.0000000   6.0000000   1.0000000   1.0000000   7.0000000   7.0000000   6.0000000   1.0000000   1.0000000

  Atom        11          12          13          14          15          16          17
 IAtWgt=           1          12           1           1           1           1           1
 AtmWgt=   1.0078250  12.0000000   1.0078250   1.0078250   1.0078250   1.0078250   1.0078250
 NucSpn=           1           0           1           1           1           1           1
 AtZEff=  -0.0000000  -0.0000000  -0.0000000  -0.0000000  -0.0000000  -0.0000000  -0.0000000
 NQMom=    0.0000000   0.0000000   0.0000000   0.0000000   0.0000000   0.0000000   0.0000000
 NMagM=    2.7928460   0.0000000   2.7928460   2.7928460   2.7928460   2.7928460   2.7928460
 AtZNuc=   1.0000000   6.0000000   1.0000000   1.0000000   1.0000000   1.0000000   1.0000000
 Leave Link  101 at Thu Oct 31 05:46:10 2019, MaxMem=   140000000 cpu:               2.2 elap:               0.1
 (Enter /usr/g16/l123.exe)
 IRC-IRC-IRC-IRC-IRC-IRC-IRC-IRC-IRC-IRC-IRC-IRC-IRC-IRC-IRC-IRC-IRC-IRC
 ------------------------------------------------------------------------
 INPUT DATA FOR L123
 ------------------------------------------------------------------------
 GENERAL PARAMETERS:
 Follow reaction path in both directions.
 Maximum points per path      =  30
 Step size                    =   0.100 bohr
 Integration scheme           = HPC                                 
    Redo corrector integration= Yes                                 
    DWI Weight Power          =  2
    DWI will use Hessian update vectors when possible.
    Max correction cycles     =  20
 Initial Hessian              = CalcFC
 Hessian evaluation           = All updating
 Hessian updating method      = Bofill                              
 ------------------------------------------------------------------------
 IRC-IRC-IRC-IRC-IRC-IRC-IRC-IRC-IRC-IRC-IRC-IRC-IRC-IRC-IRC-IRC-IRC-IRC
 Leave Link  123 at Thu Oct 31 05:46:10 2019, MaxMem=   140000000 cpu:               0.1 elap:               0.0
 (Enter /usr/g16/l202.exe)
                          Input orientation:                          
 ---------------------------------------------------------------------
 Center     Atomic      Atomic             Coordinates (Angstroms)
 Number     Number       Type             X           Y           Z
 ---------------------------------------------------------------------
      1          6           0        0.000018   -0.795139    0.258738
      2          6           0        0.679622    1.298652   -0.093271
      3          6           0       -0.679589    1.298653   -0.093351
      4          1           0        1.389135    2.100937   -0.219562
      5          1           0       -1.389098    2.100922   -0.219773
      6          7           0       -1.088820   -0.006498    0.148888
      7          7           0        1.088847   -0.006464    0.149069
      8          6           0       -2.426256   -0.549718   -0.020831
      9          1           0       -2.393572   -1.263526   -0.854695
     10          1           0       -2.750892   -1.062054    0.888239
     11          1           0       -3.116623    0.264627   -0.244326
     12          6           0        2.426217   -0.549766   -0.020926
     13          1           0        2.393538   -1.263067   -0.855220
     14          1           0        3.116695    0.264637   -0.243862
     15          1           0        2.750724   -1.062687    0.887859
     16          1           0       -0.000219   -2.328835   -1.556164
     17          1           0        0.000050   -1.876317    0.149646
 ---------------------------------------------------------------------
                    Distance matrix (angstroms):
                    1          2          3          4          5
     1  C    0.000000
     2  C    2.229290   0.000000
     3  C    2.229304   1.359211   0.000000
     4  H    3.247410   1.078434   2.222433   0.000000
     5  H    3.247427   2.222441   1.078435   2.778233   0.000000
     6  N    1.348922   2.211209   1.389089   3.273729   2.160393
     7  N    1.348920   1.389072   2.211213   2.160370   3.273734
     8  C    2.454627   3.614996   2.544127   4.650019   2.853273
     9  H    2.681118   4.072965   3.175239   5.102144   3.568137
    10  H    2.834611   4.278402   3.290403   5.326496   3.617539
    11  H    3.330109   3.937449   2.651629   4.865645   2.521294
    12  C    2.454559   2.544106   3.614959   2.853283   4.649980
    13  H    2.681193   3.174977   4.072710   3.567830   5.101818
    14  H    3.330076   2.651639   3.937463   2.521319   4.865665
    15  H    2.834389   3.290593   4.278522   3.617848   5.326668
    16  H    2.376151   3.970000   3.969891   4.831117   4.830908
    17  H    1.086668   3.255957   3.255978   4.228998   4.229023
                    6          7          8          9         10
     6  N    0.000000
     7  N    2.177667   0.000000
     8  C    1.453488   3.560890   0.000000
     9  H    2.071153   3.836012   1.098144   0.000000
    10  H    2.103169   4.050215   1.092833   1.790555   0.000000
    11  H    2.083293   4.232520   1.090740   1.797388   1.782286
    12  C    3.560823   1.453490   4.852473   4.943176   5.281238
    13  H    3.835885   2.071199   4.943226   4.787110   5.435551
    14  H    4.232508   2.083281   5.606891   5.750777   6.121302
    15  H    4.050150   2.103153   5.281096   5.435128   5.501616
    16  H    3.079854   3.080145   3.377597   2.712025   3.891792
    17  H    2.163761   2.163754   2.770539   2.667141   2.962470
                   11         12         13         14         15
    11  H    0.000000
    12  C    5.606801   0.000000
    13  H    5.750558   1.098141   0.000000
    14  H    6.233318   1.090739   1.797385   0.000000
    15  H    6.121223   1.092833   1.790547   1.782278   0.000000
    16  H    4.261331   3.377815   2.712426   4.261852   3.891538
    17  H    3.801645   2.770400   2.667324   3.801580   2.961952
                   16         17
    16  H    0.000000
    17  H    1.764812   0.000000
 Symmetry turned off by external request.
 Stoichiometry    C5H10N2
 Framework group  C1[X(C5H10N2)]
 Deg. of freedom    45
 Full point group                 C1      NOp   1
 Rotational constants (GHZ):           5.8746930           2.0791142           1.6062996
 Leave Link  202 at Thu Oct 31 05:46:10 2019, MaxMem=   140000000 cpu:               0.2 elap:               0.0
 (Enter /usr/g16/l301.exe)
 Standard basis: 6-31G(d) (6D, 7F)
 Ernie: Thresh=  0.10000D-02 Tol=  0.10000D-05 Strict=F.
   125 basis functions,   236 primitive gaussians,   125 cartesian basis functions
    27 alpha electrons       27 beta electrons
       nuclear repulsion energy       315.7422147285 Hartrees.
 IExCor=  402 DFT=T Ex+Corr=B3LYP ExCW=0 ScaHFX=  0.200000
 ScaDFX=  0.800000  0.720000  1.000000  0.810000 ScalE2=  1.000000  1.000000
 IRadAn=      5 IRanWt=     -1 IRanGd=            0 ICorTp=0 IEmpDi=141
 NAtoms=   17 NActive=   17 NUniq=   17 SFac= 1.00D+00 NAtFMM=   60 NAOKFM=F Big=F
 Integral buffers will be    131072 words long.
 Raffenetti 2 integral format.
 Two-electron integral symmetry is turned off.
 R6Disp:  Grimme-D3(BJ) Dispersion energy=       -0.0246743548 Hartrees.
 Nuclear repulsion after empirical dispersion term =      315.7175403737 Hartrees.
 Force inversion solution in PCM.
 ------------------------------------------------------------------------------
 Polarizable Continuum Model (PCM)
 =================================
 Model                : PCM.
 Atomic radii         : SMD-Coulomb.
 Polarization charges : Total charges.
 Charge compensation  : None.
 Solution method      : Matrix inversion.
 Cavity type          : VdW (van der Waals Surface) (Alpha=1.000).
 Cavity algorithm     : GePol (No added spheres)
                        Default sphere list used, NSphG=   17.
                        Lebedev-Laikov grids with approx.  5.0 points / Ang**2.
                        Smoothing algorithm: York/Karplus (Gamma=1.0000).
                        Polarization charges: spherical gaussians, with
                                              point-specific exponents (IZeta= 3).
                        Self-potential: point-specific (ISelfS= 7).
                        Self-field    : sphere-specific E.n sum rule (ISelfD= 2).
 1st derivatives      : Analytical E(r).r(x)/FMM algorithm (CHGder, D1EAlg=3).
                        Cavity 1st derivative terms included.
 2nd derivatives      : Analytical E(r).r(xy)/FMM algorithm (CHGder, D2EAlg=3).
                        Cavity 2nd derivative terms included.
 Solvent              : Benzene, Eps=   2.270600 Eps(inf)=   2.253301
 ------------------------------------------------------------------------------
 Spheres list:
 ISph  on   Nord     Re0    Alpha      Xe            Ye            Ze
    1   C      1    1.8500  1.000      0.000018     -0.795139      0.258738
    2   C      2    1.8500  1.000      0.679622      1.298652     -0.093271
    3   C      3    1.8500  1.000     -0.679589      1.298653     -0.093351
    4   H      4    1.2000  1.000      1.389135      2.100937     -0.219562
    5   H      5    1.2000  1.000     -1.389098      2.100922     -0.219773
    6   N      6    1.8900  1.000     -1.088820     -0.006498      0.148888
    7   N      7    1.8900  1.000      1.088847     -0.006464      0.149069
    8   C      8    1.8500  1.000     -2.426256     -0.549718     -0.020831
    9   H      9    1.2000  1.000     -2.393572     -1.263526     -0.854695
   10   H     10    1.2000  1.000     -2.750892     -1.062054      0.888239
   11   H     11    1.2000  1.000     -3.116623      0.264627     -0.244326
   12   C     12    1.8500  1.000      2.426217     -0.549766     -0.020926
   13   H     13    1.2000  1.000      2.393538     -1.263067     -0.855220
   14   H     14    1.2000  1.000      3.116695      0.264637     -0.243862
   15   H     15    1.2000  1.000      2.750724     -1.062687      0.887859
   16   H     16    1.2000  1.000     -0.000219     -2.328835     -1.556164
   17   H     17    1.2000  1.000      0.000050     -1.876317      0.149646
 ------------------------------------------------------------------------------
 GePol: Number of generator spheres                  =      17
 GePol: Total number of spheres                      =      17
 GePol: Number of exposed spheres                    =      17 (100.00%)
 GePol: Number of points                             =    1315
 GePol: Average weight of points                     =       0.11
 GePol: Minimum weight of points                     =   0.59D-09
 GePol: Maximum weight of points                     =    0.17992
 GePol: Number of points with low weight             =      58
 GePol: Fraction of low-weight points (<1% of avg)   =       4.41%
 GePol: Cavity surface area                          =    148.814 Ang**2
 GePol: Cavity volume                                =    119.232 Ang**3
 ------------------------------------------------------------------------------
 Atomic radii for non-electrostatic terms: SMD-CDS.
 ------------------------------------------------------------------------------
 PCM non-electrostatic energy =        -0.0058682182 Hartrees.
 Nuclear repulsion after PCM non-electrostatic terms =      315.7116721555 Hartrees.
 Leave Link  301 at Thu Oct 31 05:46:10 2019, MaxMem=   140000000 cpu:               2.6 elap:               0.1
 (Enter /usr/g16/l302.exe)
 NPDir=0 NMtPBC=     1 NCelOv=     1 NCel=       1 NClECP=     1 NCelD=      1
         NCelK=      1 NCelE2=     1 NClLst=     1 CellRange=     0.0.
 One-electron integrals computed using PRISM.
 NBasis=   125 RedAO= T EigKep=  1.43D-03  NBF=   125
 NBsUse=   125 1.00D-06 EigRej= -1.00D+00 NBFU=   125
 Precomputing XC quadrature grid using
 IXCGrd= 4 IRadAn=           5 IRanWt=          -1 IRanGd=           0 AccXCQ= 0.00D+00.
 Generated NRdTot=       0 NPtTot=           0 NUsed=           0 NTot=          32
 NSgBfM=   125   125   125   125   125 MxSgAt=    17 MxSgA2=    17.
 Leave Link  302 at Thu Oct 31 05:46:10 2019, MaxMem=   140000000 cpu:               4.1 elap:               0.2
 (Enter /usr/g16/l303.exe)
 DipDrv:  MaxL=1.
 Leave Link  303 at Thu Oct 31 05:46:11 2019, MaxMem=   140000000 cpu:               1.8 elap:               0.1
 (Enter /usr/g16/l401.exe)
 ExpMin= 1.61D-01 ExpMax= 4.17D+03 ExpMxC= 6.27D+02 IAcc=3 IRadAn=         5 AccDes= 0.00D+00
 Harris functional with IExCor=  402 and IRadAn=       5 diagonalized for initial guess.
 HarFok:  IExCor=  402 AccDes= 0.00D+00 IRadAn=         5 IDoV= 1 UseB2=F ITyADJ=14
 ICtDFT=  3500011 ScaDFX=  1.000000  1.000000  1.000000  1.000000
 FoFCou: FMM=F IPFlag=           0 FMFlag=      100000 FMFlg1=           0
         NFxFlg=           0 DoJE=T BraDBF=F KetDBF=T FulRan=T
         wScrn=  0.000000 ICntrl=       500 IOpCl=  0 I1Cent=   200000004 NGrid=           0
         NMat0=    1 NMatS0=      1 NMatT0=    0 NMatD0=    1 NMtDS0=    0 NMtDT0=    0
 Symmetry not used in FoFCou.
 Harris En= -305.927622194411    
 JPrj=0 DoOrth=F DoCkMO=F.
 Leave Link  401 at Thu Oct 31 05:46:11 2019, MaxMem=   140000000 cpu:               9.5 elap:               0.4
 (Enter /usr/g16/l502.exe)
 Two-electron integral symmetry not used.
 Closed shell SCF:
 Using DIIS extrapolation, IDIIS=  1040.
 NGot=   140000000 LenX=   139964426 LenY=   139948360
 Requested convergence on RMS density matrix=1.00D-08 within 128 cycles.
 Requested convergence on MAX density matrix=1.00D-06.
 Requested convergence on             energy=1.00D-06.
 No special actions if energy rises.
 Fock matrices will be formed incrementally for  20 cycles.

 Cycle   1  Pass 1  IDiag  1:
 FoFJK:  IHMeth= 1 ICntrl=       0 DoSepK=F KAlg= 0 I1Cent=           0 FoldK=F
 IRaf= 980000000 NMat=       1 IRICut=       1 DoRegI=T DoRafI=F ISym2E= 0 IDoP0=0 IntGTp=1.
 FoFCou: FMM=F IPFlag=           0 FMFlag=      100000 FMFlg1=           0
         NFxFlg=           0 DoJE=F BraDBF=F KetDBF=F FulRan=T
         wScrn=  0.000000 ICntrl=         0 IOpCl=  0 I1Cent=           0 NGrid=           0
         NMat0=    1 NMatS0=      1 NMatT0=    0 NMatD0=    1 NMtDS0=    0 NMtDT0=    0
 Symmetry not used in FoFCou.
 Inv3:  Mode=1 IEnd=     5187675.
 Iteration    1 A*A^-1 deviation from unit magnitude is 4.22D-15 for    109.
 Iteration    1 A*A^-1 deviation from orthogonality  is 1.64D-15 for    865    197.
 Iteration    1 A^-1*A deviation from unit magnitude is 4.22D-15 for   1297.
 Iteration    1 A^-1*A deviation from orthogonality  is 1.16D-15 for    967    500.
 E= -305.828040584297    
 DIIS: error= 3.66D-02 at cycle   1 NSaved=   1.
 NSaved= 1 IEnMin= 1 EnMin= -305.828040584297     IErMin= 1 ErrMin= 3.66D-02
 ErrMax= 3.66D-02  0.00D+00 EMaxC= 1.00D-01 BMatC= 1.16D-01 BMatP= 1.16D-01
 IDIUse=3 WtCom= 6.34D-01 WtEn= 3.66D-01
 Coeff-Com:  0.100D+01
 Coeff-En:   0.100D+01
 Coeff:      0.100D+01
 Gap=     0.086 Goal=   None    Shift=    0.000
 GapD=    0.086 DampG=0.500 DampE=0.500 DampFc=0.2500 IDamp=-1.
 Damping current iteration by 2.50D-01
 RMSDP=5.94D-03 MaxDP=9.70D-02              OVMax= 2.47D-01

 Cycle   2  Pass 1  IDiag  1:
 RMSU=  1.47D-03    CP:  9.93D-01
 E= -305.872114628484     Delta-E=       -0.044074044187 Rises=F Damp=T
 DIIS: error= 2.04D-02 at cycle   2 NSaved=   2.
 NSaved= 2 IEnMin= 2 EnMin= -305.872114628484     IErMin= 2 ErrMin= 2.04D-02
 ErrMax= 2.04D-02  0.00D+00 EMaxC= 1.00D-01 BMatC= 3.91D-02 BMatP= 1.16D-01
 IDIUse=3 WtCom= 7.96D-01 WtEn= 2.04D-01
 Coeff-Com: -0.110D+01 0.210D+01
 Coeff-En:   0.000D+00 0.100D+01
 Coeff:     -0.878D+00 0.188D+01
 Gap=     0.136 Goal=   None    Shift=    0.000
 RMSDP=2.63D-03 MaxDP=5.15D-02 DE=-4.41D-02 OVMax= 1.07D-01

 Cycle   3  Pass 1  IDiag  1:
 RMSU=  1.25D-03    CP:  9.80D-01  2.55D+00
 E= -305.953426187064     Delta-E=       -0.081311558580 Rises=F Damp=F
 DIIS: error= 3.95D-03 at cycle   3 NSaved=   3.
 NSaved= 3 IEnMin= 3 EnMin= -305.953426187064     IErMin= 3 ErrMin= 3.95D-03
 ErrMax= 3.95D-03  0.00D+00 EMaxC= 1.00D-01 BMatC= 3.72D-03 BMatP= 3.91D-02
 IDIUse=3 WtCom= 9.60D-01 WtEn= 3.95D-02
 Coeff-Com: -0.371D+00 0.719D+00 0.652D+00
 Coeff-En:   0.000D+00 0.000D+00 0.100D+01
 Coeff:     -0.356D+00 0.690D+00 0.666D+00
 Gap=     0.131 Goal=   None    Shift=    0.000
 RMSDP=7.66D-04 MaxDP=1.98D-02 DE=-8.13D-02 OVMax= 2.54D-02

 Cycle   4  Pass 1  IDiag  1:
 RMSU=  5.97D-04    CP:  9.83D-01  2.50D+00  6.28D-01
 E= -305.955619084551     Delta-E=       -0.002192897487 Rises=F Damp=F
 DIIS: error= 2.28D-03 at cycle   4 NSaved=   4.
 NSaved= 4 IEnMin= 4 EnMin= -305.955619084551     IErMin= 4 ErrMin= 2.28D-03
 ErrMax= 2.28D-03  0.00D+00 EMaxC= 1.00D-01 BMatC= 1.27D-03 BMatP= 3.72D-03
 IDIUse=3 WtCom= 9.77D-01 WtEn= 2.28D-02
 Coeff-Com: -0.407D-01 0.910D-01 0.373D+00 0.577D+00
 Coeff-En:   0.000D+00 0.000D+00 0.286D+00 0.714D+00
 Coeff:     -0.397D-01 0.889D-01 0.371D+00 0.580D+00
 Gap=     0.141 Goal=   None    Shift=    0.000
 RMSDP=4.04D-04 MaxDP=1.11D-02 DE=-2.19D-03 OVMax= 2.50D-02

 Cycle   5  Pass 1  IDiag  1:
 RMSU=  1.81D-04    CP:  9.82D-01  2.41D+00  7.60D-01  5.20D-01
 E= -305.956919418839     Delta-E=       -0.001300334289 Rises=F Damp=F
 DIIS: error= 6.28D-04 at cycle   5 NSaved=   5.
 NSaved= 5 IEnMin= 5 EnMin= -305.956919418839     IErMin= 5 ErrMin= 6.28D-04
 ErrMax= 6.28D-04  0.00D+00 EMaxC= 1.00D-01 BMatC= 4.00D-05 BMatP= 1.27D-03
 IDIUse=3 WtCom= 9.94D-01 WtEn= 6.28D-03
 Coeff-Com:  0.363D-02-0.184D-02 0.102D+00 0.250D+00 0.646D+00
 Coeff-En:   0.000D+00 0.000D+00 0.000D+00 0.000D+00 0.100D+01
 Coeff:      0.361D-02-0.182D-02 0.101D+00 0.249D+00 0.649D+00
 Gap=     0.138 Goal=   None    Shift=    0.000
 RMSDP=9.77D-05 MaxDP=2.00D-03 DE=-1.30D-03 OVMax= 6.23D-03

 Cycle   6  Pass 1  IDiag  1:
 RMSU=  3.06D-05    CP:  9.82D-01  2.45D+00  7.56D-01  5.92D-01  6.55D-01
 E= -305.956974102515     Delta-E=       -0.000054683675 Rises=F Damp=F
 DIIS: error= 9.00D-05 at cycle   6 NSaved=   6.
 NSaved= 6 IEnMin= 6 EnMin= -305.956974102515     IErMin= 6 ErrMin= 9.00D-05
 ErrMax= 9.00D-05  0.00D+00 EMaxC= 1.00D-01 BMatC= 1.67D-06 BMatP= 4.00D-05
 IDIUse=1 WtCom= 1.00D+00 WtEn= 0.00D+00
 Coeff-Com:  0.327D-02-0.490D-02 0.290D-01 0.869D-01 0.284D+00 0.601D+00
 Coeff:      0.327D-02-0.490D-02 0.290D-01 0.869D-01 0.284D+00 0.601D+00
 Gap=     0.138 Goal=   None    Shift=    0.000
 RMSDP=1.10D-05 MaxDP=2.94D-04 DE=-5.47D-05 OVMax= 3.80D-04

 Cycle   7  Pass 1  IDiag  1:
 RMSU=  8.96D-06    CP:  9.82D-01  2.45D+00  7.56D-01  5.98D-01  6.73D-01
                    CP:  8.66D-01
 E= -305.956975376821     Delta-E=       -0.000001274306 Rises=F Damp=F
 DIIS: error= 3.14D-05 at cycle   7 NSaved=   7.
 NSaved= 7 IEnMin= 7 EnMin= -305.956975376821     IErMin= 7 ErrMin= 3.14D-05
 ErrMax= 3.14D-05  0.00D+00 EMaxC= 1.00D-01 BMatC= 1.76D-07 BMatP= 1.67D-06
 IDIUse=1 WtCom= 1.00D+00 WtEn= 0.00D+00
 Coeff-Com:  0.661D-03-0.112D-02 0.767D-02 0.240D-01 0.857D-01 0.282D+00
 Coeff-Com:  0.602D+00
 Coeff:      0.661D-03-0.112D-02 0.767D-02 0.240D-01 0.857D-01 0.282D+00
 Coeff:      0.602D+00
 Gap=     0.139 Goal=   None    Shift=    0.000
 RMSDP=5.00D-06 MaxDP=1.77D-04 DE=-1.27D-06 OVMax= 2.80D-04

 Cycle   8  Pass 1  IDiag  1:
 RMSU=  2.79D-06    CP:  9.82D-01  2.44D+00  7.57D-01  5.97D-01  6.85D-01
                    CP:  8.63D-01  7.19D-01
 E= -305.956975554430     Delta-E=       -0.000000177609 Rises=F Damp=F
 DIIS: error= 1.21D-05 at cycle   8 NSaved=   8.
 NSaved= 8 IEnMin= 8 EnMin= -305.956975554430     IErMin= 8 ErrMin= 1.21D-05
 ErrMax= 1.21D-05  0.00D+00 EMaxC= 1.00D-01 BMatC= 2.02D-08 BMatP= 1.76D-07
 IDIUse=1 WtCom= 1.00D+00 WtEn= 0.00D+00
 Coeff-Com: -0.839D-04 0.246D-04 0.122D-03 0.108D-02 0.459D-02 0.457D-01
 Coeff-Com:  0.290D+00 0.658D+00
 Coeff:     -0.839D-04 0.246D-04 0.122D-03 0.108D-02 0.459D-02 0.457D-01
 Coeff:      0.290D+00 0.658D+00
 Gap=     0.139 Goal=   None    Shift=    0.000
 RMSDP=1.33D-06 MaxDP=3.78D-05 DE=-1.78D-07 OVMax= 4.31D-05

 Cycle   9  Pass 1  IDiag  1:
 RMSU=  7.78D-07    CP:  9.82D-01  2.44D+00  7.57D-01  5.97D-01  6.86D-01
                    CP:  8.83D-01  7.89D-01  8.43D-01
 E= -305.956975572292     Delta-E=       -0.000000017862 Rises=F Damp=F
 DIIS: error= 3.11D-06 at cycle   9 NSaved=   9.
 NSaved= 9 IEnMin= 9 EnMin= -305.956975572292     IErMin= 9 ErrMin= 3.11D-06
 ErrMax= 3.11D-06  0.00D+00 EMaxC= 1.00D-01 BMatC= 1.44D-09 BMatP= 2.02D-08
 IDIUse=1 WtCom= 1.00D+00 WtEn= 0.00D+00
 Coeff-Com: -0.106D-03 0.112D-03-0.743D-03-0.171D-02-0.578D-02-0.254D-02
 Coeff-Com:  0.110D+00 0.314D+00 0.587D+00
 Coeff:     -0.106D-03 0.112D-03-0.743D-03-0.171D-02-0.578D-02-0.254D-02
 Coeff:      0.110D+00 0.314D+00 0.587D+00
 Gap=     0.139 Goal=   None    Shift=    0.000
 RMSDP=5.83D-07 MaxDP=1.24D-05 DE=-1.79D-08 OVMax= 3.24D-05

 Cycle  10  Pass 1  IDiag  1:
 RMSU=  2.62D-07    CP:  9.82D-01  2.44D+00  7.57D-01  5.97D-01  6.84D-01
                    CP:  8.88D-01  8.09D-01  8.64D-01  7.29D-01
 E= -305.956975574199     Delta-E=       -0.000000001906 Rises=F Damp=F
 DIIS: error= 7.45D-07 at cycle  10 NSaved=  10.
 NSaved=10 IEnMin=10 EnMin= -305.956975574199     IErMin=10 ErrMin= 7.45D-07
 ErrMax= 7.45D-07  0.00D+00 EMaxC= 1.00D-01 BMatC= 8.76D-11 BMatP= 1.44D-09
 IDIUse=1 WtCom= 1.00D+00 WtEn= 0.00D+00
 Coeff-Com: -0.391D-04 0.506D-04-0.267D-03-0.727D-03-0.284D-02-0.575D-02
 Coeff-Com:  0.201D-01 0.486D-01 0.221D+00 0.720D+00
 Coeff:     -0.391D-04 0.506D-04-0.267D-03-0.727D-03-0.284D-02-0.575D-02
 Coeff:      0.201D-01 0.486D-01 0.221D+00 0.720D+00
 Gap=     0.139 Goal=   None    Shift=    0.000
 RMSDP=1.18D-07 MaxDP=3.51D-06 DE=-1.91D-09 OVMax= 3.81D-06

 Cycle  11  Pass 1  IDiag  1:
 RMSU=  5.64D-08    CP:  9.82D-01  2.44D+00  7.57D-01  5.97D-01  6.84D-01
                    CP:  8.89D-01  8.16D-01  8.73D-01  7.89D-01  8.44D-01
 E= -305.956975574292     Delta-E=       -0.000000000093 Rises=F Damp=F
 DIIS: error= 1.13D-07 at cycle  11 NSaved=  11.
 NSaved=11 IEnMin=11 EnMin= -305.956975574292     IErMin=11 ErrMin= 1.13D-07
 ErrMax= 1.13D-07  0.00D+00 EMaxC= 1.00D-01 BMatC= 1.69D-12 BMatP= 8.76D-11
 IDIUse=1 WtCom= 1.00D+00 WtEn= 0.00D+00
 Coeff-Com: -0.170D-05 0.382D-05-0.102D-04-0.438D-04-0.239D-03-0.107D-02
 Coeff-Com: -0.164D-02-0.103D-01 0.821D-02 0.130D+00 0.875D+00
 Coeff:     -0.170D-05 0.382D-05-0.102D-04-0.438D-04-0.239D-03-0.107D-02
 Coeff:     -0.164D-02-0.103D-01 0.821D-02 0.130D+00 0.875D+00
 Gap=     0.139 Goal=   None    Shift=    0.000
 RMSDP=2.64D-08 MaxDP=1.01D-06 DE=-9.31D-11 OVMax= 7.62D-07

 Cycle  12  Pass 1  IDiag  1:
 RMSU=  1.00D-08    CP:  9.82D-01  2.44D+00  7.57D-01  5.97D-01  6.84D-01
                    CP:  8.89D-01  8.17D-01  8.74D-01  8.03D-01  8.96D-01
                    CP:  1.00D+00
 E= -305.956975574295     Delta-E=       -0.000000000003 Rises=F Damp=F
 DIIS: error= 2.85D-08 at cycle  12 NSaved=  12.
 NSaved=12 IEnMin=12 EnMin= -305.956975574295     IErMin=12 ErrMin= 2.85D-08
 ErrMax= 2.85D-08  0.00D+00 EMaxC= 1.00D-01 BMatC= 1.67D-13 BMatP= 1.69D-12
 IDIUse=1 WtCom= 1.00D+00 WtEn= 0.00D+00
 Coeff-Com:  0.626D-08 0.730D-06 0.641D-06-0.478D-05-0.495D-04-0.382D-03
 Coeff-Com: -0.114D-02-0.573D-02-0.115D-02 0.447D-01 0.398D+00 0.566D+00
 Coeff:      0.626D-08 0.730D-06 0.641D-06-0.478D-05-0.495D-04-0.382D-03
 Coeff:     -0.114D-02-0.573D-02-0.115D-02 0.447D-01 0.398D+00 0.566D+00
 Gap=     0.139 Goal=   None    Shift=    0.000
 RMSDP=4.94D-09 MaxDP=1.29D-07 DE=-3.30D-12 OVMax= 2.12D-07

 Error on total polarization charges =  0.02884
 SCF Done:  E(RB3LYP) =  -305.956975574     A.U. after   12 cycles
            NFock= 12  Conv=0.49D-08     -V/T= 2.0098
 KE= 3.029929799600D+02 PE=-1.338717165474D+03 EE= 4.140555377843D+02
 SMD-CDS (non-electrostatic) energy       (kcal/mol) =      -3.68
 (included in total energy above)
 Leave Link  502 at Thu Oct 31 05:46:20 2019, MaxMem=   140000000 cpu:             197.0 elap:               8.5
 (Enter /usr/g16/l801.exe)
 DoSCS=F DFT=T ScalE2(SS,OS)=  1.000000  1.000000
 Range of M.O.s used for correlation:     1   125
 NBasis=   125 NAE=    27 NBE=    27 NFC=     0 NFV=     0
 NROrb=    125 NOA=    27 NOB=    27 NVA=    98 NVB=    98
 Leave Link  801 at Thu Oct 31 05:46:20 2019, MaxMem=   140000000 cpu:               0.4 elap:               0.0
 (Enter /usr/g16/l1101.exe)
 Using compressed storage, NAtomX=    17.
 Will process     18 centers per pass.
 R6Disp: Adding Grimme-D3(BJ) dispersion energy 1st derivatives to the gradient.
 Leave Link 1101 at Thu Oct 31 05:46:20 2019, MaxMem=   140000000 cpu:               4.8 elap:               0.2
 (Enter /usr/g16/l1102.exe)
 Symmetrizing basis deriv contribution to polar:
 IMax=3 JMax=2 DiffMx= 0.00D+00
 Leave Link 1102 at Thu Oct 31 05:46:20 2019, MaxMem=   140000000 cpu:               0.6 elap:               0.0
 (Enter /usr/g16/l1110.exe)
 Forming Gx(P) for the SCF density, NAtomX=    17.
 Integral derivatives from FoFJK, PRISM(SPDF).
 Do as many integral derivatives as possible in FoFJK.
 G2DrvN: MDV=     139998640.
 G2DrvN: will do    18 centers at a time, making    1 passes.
 Calling FoFCou, ICntrl=  3107 FMM=F I1Cent=   0 AccDes= 0.00D+00.
 FoFJK:  IHMeth= 1 ICntrl=    3107 DoSepK=F KAlg= 0 I1Cent=           0 FoldK=F
 IRaf=         0 NMat=       1 IRICut=       1 DoRegI=T DoRafI=F ISym2E= 0 IDoP0=0 IntGTp=1.
 FoFCou: FMM=F IPFlag=           0 FMFlag=      100000 FMFlg1=           0
         NFxFlg=           0 DoJE=F BraDBF=F KetDBF=F FulRan=T
         wScrn=  0.000000 ICntrl=      3107 IOpCl=  0 I1Cent=           0 NGrid=           0
         NMat0=    1 NMatS0=      1 NMatT0=    0 NMatD0=    1 NMtDS0=    0 NMtDT0=    0
 Symmetry not used in FoFCou.
 NEqPCM:  Using equilibrium solvation (IEInf=0, Eps=   2.2706, EpsInf=   2.2533)
 G2PCM: DoFxE=T DoFxN=T DoGrad=T DoDP/DQ/DG/TGxP=FFFF NFrqRd=   0 IEInf=0 SqF1=F DoCFld=F IF1Alg=4.
 GePol: Maximum number of non-zero 1st derivatives   =     245
 End of G2Drv F.D. properties file   721 does not exist.
 End of G2Drv F.D. properties file   722 does not exist.
 End of G2Drv F.D. properties file   788 does not exist.
 Leave Link 1110 at Thu Oct 31 05:46:29 2019, MaxMem=   140000000 cpu:             222.6 elap:               9.3
 (Enter /usr/g16/l1002.exe)
 Minotr:  Closed shell wavefunction.
          IDoAtm=11111111111111111
 NEqPCM:  Using equilibrium solvation (IEInf=0, Eps=   2.2706, EpsInf=   2.2533)
          Direct CPHF calculation.
          Differentiating once with respect to nuclear coordinates.
          Requested convergence is 1.0D-08 RMS, and 1.0D-07 maximum.
          Secondary convergence is 1.0D-12 RMS, and 1.0D-12 maximum.
          NewPWx=T KeepS1=F KeepF1=F KeepIn=T MapXYZ=F SortEE=F KeepMc=T.
         5032 words used for storage of precomputed grid.
 Keep R1 ints in memory in canonical form, NReq=53753287.
 FoFCou: FMM=F IPFlag=           0 FMFlag=           0 FMFlg1=           0
         NFxFlg=           0 DoJE=F BraDBF=F KetDBF=F FulRan=T
         wScrn=  0.000000 ICntrl=       600 IOpCl=  0 I1Cent=           0 NGrid=           0
         NMat0=    1 NMatS0=   7875 NMatT0=    0 NMatD0=    1 NMtDS0=    0 NMtDT0=    0
 Symmetry not used in FoFCou.
 Two-electron integral symmetry not used.
          MDV=     140000000 using IRadAn=       1.
          Solving linear equations simultaneously, MaxMat=       0.
          There are    54 degrees of freedom in the 1st order CPHF.  IDoFFX=6 NUNeed=     0.
     48 vectors produced by pass  0 Test12= 4.90D-15 1.85D-09 XBig12= 1.30D-01 1.77D-01.
 AX will form    48 AO Fock derivatives at one time.
     48 vectors produced by pass  1 Test12= 4.90D-15 1.85D-09 XBig12= 3.67D-02 9.13D-02.
     48 vectors produced by pass  2 Test12= 4.90D-15 1.85D-09 XBig12= 1.58D-04 2.43D-03.
     48 vectors produced by pass  3 Test12= 4.90D-15 1.85D-09 XBig12= 2.69D-07 9.09D-05.
     48 vectors produced by pass  4 Test12= 4.90D-15 1.85D-09 XBig12= 3.29D-10 3.61D-06.
     28 vectors produced by pass  5 Test12= 4.90D-15 1.85D-09 XBig12= 1.99D-13 5.65D-08.
      1 vectors produced by pass  6 Test12= 4.90D-15 1.85D-09 XBig12= 7.73D-17 2.31D-09.
 InvSVY:  IOpt=1 It=  1 EMax= 5.55D-16
 Solved reduced A of dimension   269 with    54 vectors.
 End of Minotr F.D. properties file   721 does not exist.
 End of Minotr F.D. properties file   722 does not exist.
 End of Minotr F.D. properties file   788 does not exist.
 Leave Link 1002 at Thu Oct 31 05:46:38 2019, MaxMem=   140000000 cpu:             200.1 elap:               8.4
 (Enter /usr/g16/l601.exe)
 Copying SCF densities to generalized density rwf, IOpCl= 0 IROHF=0.

 **********************************************************************

            Population analysis using the SCF density.

 **********************************************************************

 Alpha  occ. eigenvalues --  -14.40757 -14.40756 -10.25807 -10.23412 -10.23339
 Alpha  occ. eigenvalues --  -10.22652 -10.22652  -1.05194  -0.94075  -0.79315
 Alpha  occ. eigenvalues --   -0.75048  -0.70100  -0.62683  -0.60003  -0.54914
 Alpha  occ. eigenvalues --   -0.49249  -0.47374  -0.45798  -0.45591  -0.45045
 Alpha  occ. eigenvalues --   -0.44320  -0.40563  -0.40213  -0.38854  -0.29313
 Alpha  occ. eigenvalues --   -0.25517  -0.13408
 Alpha virt. eigenvalues --    0.00446   0.02820   0.09349   0.10562   0.12647
 Alpha virt. eigenvalues --    0.14057   0.14375   0.15246   0.15260   0.17290
 Alpha virt. eigenvalues --    0.17919   0.18848   0.19592   0.24239   0.25293
 Alpha virt. eigenvalues --    0.32152   0.34914   0.42650   0.46369   0.47610
 Alpha virt. eigenvalues --    0.48786   0.50770   0.51503   0.53402   0.55321
 Alpha virt. eigenvalues --    0.57681   0.60283   0.62955   0.67063   0.68987
 Alpha virt. eigenvalues --    0.71976   0.73272   0.77801   0.80286   0.80477
 Alpha virt. eigenvalues --    0.81476   0.82323   0.84512   0.86229   0.89003
 Alpha virt. eigenvalues --    0.89319   0.90305   0.92467   0.93977   0.94609
 Alpha virt. eigenvalues --    0.97474   1.03161   1.04681   1.14969   1.17436
 Alpha virt. eigenvalues --    1.19610   1.22387   1.23045   1.33531   1.34510
 Alpha virt. eigenvalues --    1.37306   1.38992   1.48775   1.50646   1.57914
 Alpha virt. eigenvalues --    1.65805   1.81558   1.83494   1.88500   1.90934
 Alpha virt. eigenvalues --    1.91787   1.96211   1.97025   2.00658   2.05014
 Alpha virt. eigenvalues --    2.05663   2.14470   2.14629   2.16969   2.20872
 Alpha virt. eigenvalues --    2.23805   2.25778   2.29014   2.32048   2.33445
 Alpha virt. eigenvalues --    2.35335   2.47182   2.50251   2.57591   2.63058
 Alpha virt. eigenvalues --    2.70503   2.75707   2.77965   2.99703   3.07391
 Alpha virt. eigenvalues --    3.10385   3.93135   4.01518   4.09649   4.23121
 Alpha virt. eigenvalues --    4.25539   4.40151   4.42203
          Condensed to atoms (all electrons):
               1          2          3          4          5          6
     1  C    4.877135  -0.089503  -0.089469   0.005942   0.005943   0.402903
     2  C   -0.089503   4.838117   0.608442   0.373075  -0.033404  -0.051330
     3  C   -0.089469   0.608442   4.838080  -0.033404   0.373073   0.373936
     4  H    0.005942   0.373075  -0.033404   0.495222  -0.000241   0.002722
     5  H    0.005943  -0.033404   0.373073  -0.000241   0.495218  -0.039501
     6  N    0.402903  -0.051330   0.373936   0.002722  -0.039501   6.612323
     7  N    0.402908   0.373938  -0.051342  -0.039501   0.002722  -0.039050
     8  C   -0.042512   0.006362  -0.037662  -0.000091  -0.002770   0.293070
     9  H   -0.005973  -0.000022   0.001429   0.000005   0.000103  -0.043934
    10  H   -0.001113  -0.000195   0.001933   0.000003   0.000027  -0.035537
    11  H    0.003822   0.000051  -0.002774  -0.000006   0.003469  -0.030665
    12  C   -0.042524  -0.037662   0.006361  -0.002770  -0.000091   0.003809
    13  H   -0.005970   0.001426  -0.000021   0.000103   0.000005  -0.000446
    14  H    0.003823  -0.002775   0.000052   0.003468  -0.000006  -0.000184
    15  H   -0.001111   0.001936  -0.000196   0.000027   0.000003   0.000049
    16  H   -0.036245   0.000546   0.000549   0.000018   0.000018  -0.016213
    17  H    0.303633   0.002960   0.002963  -0.000069  -0.000069  -0.040340
               7          8          9         10         11         12
     1  C    0.402908  -0.042512  -0.005973  -0.001113   0.003822  -0.042524
     2  C    0.373938   0.006362  -0.000022  -0.000195   0.000051  -0.037662
     3  C   -0.051342  -0.037662   0.001429   0.001933  -0.002774   0.006361
     4  H   -0.039501  -0.000091   0.000005   0.000003  -0.000006  -0.002770
     5  H    0.002722  -0.002770   0.000103   0.000027   0.003469  -0.000091
     6  N   -0.039050   0.293070  -0.043934  -0.035537  -0.030665   0.003809
     7  N    6.612327   0.003810  -0.000445   0.000049  -0.000184   0.293071
     8  C    0.003810   5.026374   0.340124   0.382071   0.372982  -0.000109
     9  H   -0.000445   0.340124   0.517904  -0.032229  -0.018814  -0.000020
    10  H    0.000049   0.382071  -0.032229   0.523929  -0.027732  -0.000000
    11  H   -0.000184   0.372982  -0.018814  -0.027732   0.518294   0.000004
    12  C    0.293071  -0.000109  -0.000020  -0.000000   0.000004   5.026341
    13  H   -0.043936  -0.000020   0.000049   0.000001   0.000001   0.340152
    14  H   -0.030667   0.000004   0.000001  -0.000000  -0.000000   0.372979
    15  H   -0.035534  -0.000000   0.000001  -0.000002  -0.000000   0.382072
    16  H   -0.016202  -0.009870   0.027623  -0.000460   0.000197  -0.009857
    17  H   -0.040340  -0.003709   0.007061  -0.000181   0.000124  -0.003705
              13         14         15         16         17
     1  C   -0.005970   0.003823  -0.001111  -0.036245   0.303633
     2  C    0.001426  -0.002775   0.001936   0.000546   0.002960
     3  C   -0.000021   0.000052  -0.000196   0.000549   0.002963
     4  H    0.000103   0.003468   0.000027   0.000018  -0.000069
     5  H    0.000005  -0.000006   0.000003   0.000018  -0.000069
     6  N   -0.000446  -0.000184   0.000049  -0.016213  -0.040340
     7  N   -0.043936  -0.030667  -0.035534  -0.016202  -0.040340
     8  C   -0.000020   0.000004  -0.000000  -0.009870  -0.003709
     9  H    0.000049   0.000001   0.000001   0.027623   0.007061
    10  H    0.000001  -0.000000  -0.000002  -0.000460  -0.000181
    11  H    0.000001  -0.000000  -0.000000   0.000197   0.000124
    12  C    0.340152   0.372979   0.382072  -0.009857  -0.003705
    13  H    0.517907  -0.018821  -0.032230   0.027600   0.007057
    14  H   -0.018821   0.518307  -0.027728   0.000197   0.000124
    15  H   -0.032230  -0.027728   0.523912  -0.000460  -0.000181
    16  H    0.027600   0.000197  -0.000460   1.584730   0.100025
    17  H    0.007057   0.000124  -0.000181   0.100025   0.444127
 Mulliken charges:
               1
     1  C    0.308311
     2  C    0.008039
     3  C    0.008048
     4  H    0.195497
     5  H    0.195502
     6  N   -0.391613
     7  N   -0.391625
     8  C   -0.328053
     9  H    0.207139
    10  H    0.189437
    11  H    0.181231
    12  C   -0.328051
    13  H    0.207145
    14  H    0.181226
    15  H    0.189443
    16  H   -0.652196
    17  H    0.220521
 Sum of Mulliken charges =  -0.00000
 Mulliken charges with hydrogens summed into heavy atoms:
               1
     1  C   -0.123364
     2  C    0.203535
     3  C    0.203550
     6  N   -0.391613
     7  N   -0.391625
     8  C    0.249754
    12  C    0.249763
 APT charges:
               1
     1  C   -0.035421
     2  C   -0.423046
     3  C   -0.423023
     4  H    0.617380
     5  H    0.617381
     6  N   -0.284968
     7  N   -0.284945
     8  C   -1.210705
     9  H    0.385336
    10  H    0.515115
    11  H    0.544702
    12  C   -1.210749
    13  H    0.385347
    14  H    0.544708
    15  H    0.515120
    16  H   -0.635708
    17  H    0.383476
 Sum of APT charges =  -0.00000
 APT charges with hydrogens summed into heavy atoms:
               1
     1  C   -0.287653
     2  C    0.194335
     3  C    0.194358
     6  N   -0.284968
     7  N   -0.284945
     8  C    0.234447
    12  C    0.234426
 Electronic spatial extent (au):  <R**2>=            815.8457
 Charge=             -0.0000 electrons
 Dipole moment (field-independent basis, Debye):
    X=              0.0006    Y=              6.3385    Z=              4.3609  Tot=              7.6938
 Quadrupole moment (field-independent basis, Debye-Ang):
   XX=            -28.9972   YY=            -53.4122   ZZ=            -53.3352
   XY=             -0.0021   XZ=             -0.0011   YZ=            -12.5321
 Traceless Quadrupole moment (field-independent basis, Debye-Ang):
   XX=             16.2510   YY=             -8.1640   ZZ=             -8.0870
   XY=             -0.0021   XZ=             -0.0011   YZ=            -12.5321
 Octapole moment (field-independent basis, Debye-Ang**2):
  XXX=              0.0006  YYY=             54.6222  ZZZ=             20.2916  XYY=              0.0052
  XXY=              2.9135  XXZ=              1.2284  XZZ=              0.0014  YZZ=             18.6628
  YYZ=             27.9989  XYZ=              0.0035
 Hexadecapole moment (field-independent basis, Debye-Ang**3):
 XXXX=           -610.1911 YYYY=           -400.5962 ZZZZ=           -117.7617 XXXY=             -0.0040
 XXXZ=              0.0001 YYYX=             -0.0130 YYYZ=            -86.3019 ZZZX=             -0.0077
 ZZZY=            -45.7778 XXYY=           -151.6972 XXZZ=           -130.7441 YYZZ=           -115.3925
 XXYZ=            -11.1326 YYXZ=             -0.0028 ZZXY=             -0.0066
 N-N= 3.157116721555D+02 E-N=-1.338717166336D+03  KE= 3.029929799600D+02
  Exact polarizability:   0.000   0.000   0.000   0.000   0.000   0.000
 Approx polarizability: 117.575   0.006 136.217   0.007  30.260  91.851
 No NMR shielding tensors so no spin-rotation constants.
 Leave Link  601 at Thu Oct 31 05:46:38 2019, MaxMem=   140000000 cpu:               2.5 elap:               0.1
 (Enter /usr/g16/l701.exe)
 ... and contract with generalized density number  0.
 Compute integral second derivatives.
 R6Disp: Adding Grimme-D3(BJ) dispersion energy 2nd derivatives to the Hessian.
 D2PCM: PCM CHGder 2nd derivatives, FixD1E=F FixD2E=F DoIter=F DoCFld=F I1PDM=0
 GePol: Maximum number of non-zero 2nd derivatives   =     245
 Leave Link  701 at Thu Oct 31 05:46:41 2019, MaxMem=   140000000 cpu:              86.0 elap:               3.6
 (Enter /usr/g16/l702.exe)
 L702 exits ... SP integral derivatives will be done elsewhere.
 Leave Link  702 at Thu Oct 31 05:46:41 2019, MaxMem=   140000000 cpu:               0.4 elap:               0.0
 (Enter /usr/g16/l703.exe)
 Integral derivatives from FoFJK, PRISM(SPDF).
 Compute integral second derivatives, UseDBF=F ICtDFT=           0.
 Calling FoFJK, ICntrl=    100147 FMM=F ISym2X=0 I1Cent= 0 IOpClX= 0 NMat=1 NMatS=1 NMatT=0.
 FoFJK:  IHMeth= 1 ICntrl=  100147 DoSepK=F KAlg= 0 I1Cent=           0 FoldK=F
 IRaf=         0 NMat=       1 IRICut=       1 DoRegI=T DoRafI=F ISym2E= 0 IDoP0=0 IntGTp=1.
 FoFCou: FMM=F IPFlag=           0 FMFlag=      100000 FMFlg1=         800
         NFxFlg=           0 DoJE=F BraDBF=F KetDBF=F FulRan=T
         wScrn=  0.000000 ICntrl=    100147 IOpCl=  0 I1Cent=           0 NGrid=           0
         NMat0=    1 NMatS0=      1 NMatT0=    0 NMatD0=    1 NMtDS0=    0 NMtDT0=    0
 Symmetry not used in FoFCou.
 Leave Link  703 at Thu Oct 31 05:46:53 2019, MaxMem=   140000000 cpu:             266.8 elap:              11.1
 (Enter /usr/g16/l716.exe)
 Dipole        = 2.42714480D-04 2.49376644D+00 1.71572466D+00
 Polarizability= 0.00000000D+00 0.00000000D+00 0.00000000D+00
                 0.00000000D+00 0.00000000D+00 0.00000000D+00
 -------------------------------------------------------------------
 Center     Atomic                   Forces (Hartrees/Bohr)
 Number     Number              X              Y              Z
 -------------------------------------------------------------------
      1        6          -0.000012658    0.000015276    0.000006594
      2        6          -0.000003773    0.000009313    0.000003157
      3        6           0.000003640   -0.000011661    0.000001899
      4        1           0.000000232    0.000000449    0.000006558
      5        1           0.000000180   -0.000000288    0.000010141
      6        7           0.000008861    0.000007939    0.000009645
      7        7          -0.000006278   -0.000015464   -0.000007470
      8        6           0.000006223   -0.000009494   -0.000007818
      9        1          -0.000004554    0.000003498   -0.000001705
     10        1          -0.000000316   -0.000004527   -0.000002855
     11        1           0.000002590    0.000000392    0.000001285
     12        6           0.000004844    0.000000945   -0.000001757
     13        1           0.000001368    0.000002348   -0.000000641
     14        1           0.000000546    0.000000101    0.000001481
     15        1          -0.000000357   -0.000004590   -0.000003348
     16        1           0.000003554    0.000000083   -0.000003570
     17        1          -0.000004102    0.000005679   -0.000011595
 -------------------------------------------------------------------
 Cartesian Forces:  Max     0.000015464 RMS     0.000006196
 Z-matrix is all fixed cartesians, so copy forces.
 Leave Link  716 at Thu Oct 31 05:46:53 2019, MaxMem=   140000000 cpu:               1.5 elap:               0.1
 (Enter /usr/g16/l123.exe)
 IRC-IRC-IRC-IRC-IRC-IRC-IRC-IRC-IRC-IRC-IRC-IRC-IRC-IRC-IRC-IRC-IRC-IRC
          ******** Start new reaction path calculation ********
 Current Structure is TS -> form Hessian eigenvectors.
                            Diagonalizing Hessian.
 Supplied step size of   0.1000 bohr.
    Integration on MW PES will use step size of   0.1025 sqrt(amu)*bohr.
 Point Number:   0          Path Number:   1
 Calculating another point on the path.
 Point Number  1 in FORWARD path direction.
 Using LQA Reaction Path Following.
 IRC-IRC-IRC-IRC-IRC-IRC-IRC-IRC-IRC-IRC-IRC-IRC-IRC-IRC-IRC-IRC-IRC-IRC
 Leave Link  123 at Thu Oct 31 05:46:53 2019, MaxMem=   140000000 cpu:               0.5 elap:               0.0
 (Enter /usr/g16/l202.exe)
                          Input orientation:                          
 ---------------------------------------------------------------------
 Center     Atomic      Atomic             Coordinates (Angstroms)
 Number     Number       Type             X           Y           Z
 ---------------------------------------------------------------------
      1          6           0        0.000015   -0.836909    0.238674
      2          6           0        0.679770    1.257293   -0.115916
      3          6           0       -0.679743    1.257294   -0.115997
      4          1           0        1.389087    2.059898   -0.241545
      5          1           0       -1.389056    2.059884   -0.241757
      6          7           0       -1.088267   -0.047875    0.125357
      7          7           0        1.088289   -0.047842    0.125538
      8          6           0       -2.426123   -0.591317   -0.043632
      9          1           0       -2.394356   -1.305850   -0.876698
     10          1           0       -2.750305   -1.102988    0.865883
     11          1           0       -3.116489    0.222876   -0.267679
     12          6           0        2.426079   -0.591365   -0.043727
     13          1           0        2.394317   -1.305390   -0.877225
     14          1           0        3.116556    0.222887   -0.267214
     15          1           0        2.750132   -1.103623    0.865503
     16          1           0       -0.000216   -2.392710   -1.566238
     17          1           0        0.000043   -1.918880    0.080617
 ---------------------------------------------------------------------
                    Distance matrix (angstroms):
                    1          2          3          4          5
     1  C    0.000000
     2  C    2.230130   0.000000
     3  C    2.230145   1.359513   0.000000
     4  H    3.248326   1.078466   2.222610   0.000000
     5  H    3.248344   2.222618   1.078467   2.778143   0.000000
     6  N    1.348990   2.210799   1.388744   3.273318   2.160531
     7  N    1.348987   1.388727   2.210804   2.160509   3.273324
     8  C    2.454823   3.615129   2.544100   4.650155   2.853705
     9  H    2.682717   4.074155   3.176204   5.103540   3.569586
    10  H    2.833452   4.277882   3.289718   5.325863   3.617130
    11  H    3.330486   3.937593   2.651558   4.865753   2.521765
    12  C    2.454756   2.544079   3.615092   2.853714   4.650117
    13  H    2.682794   3.175941   4.073899   3.569277   5.103214
    14  H    3.330453   2.651567   3.937606   2.521788   4.865772
    15  H    2.833230   3.289909   4.278002   3.617439   5.326037
    16  H    2.382903   3.986017   3.985911   4.848783   4.848579
    17  H    1.093455   3.254032   3.254050   4.226572   4.226592
                    6          7          8          9         10
     6  N    0.000000
     7  N    2.176557   0.000000
     8  C    1.453872   3.560207   0.000000
     9  H    2.071830   3.836128   1.097982   0.000000
    10  H    2.103333   4.049228   1.092758   1.790095   0.000000
    11  H    2.083619   4.231792   1.090740   1.797049   1.782406
    12  C    3.560140   1.453874   4.852201   4.943775   5.280539
    13  H    3.836001   2.071875   4.943826   4.788672   5.435671
    14  H    4.231780   2.083606   5.606621   5.751404   6.120613
    15  H    4.049163   2.103317   5.280397   5.435247   5.500436
    16  H    3.089272   3.089556   3.383543   2.718204   3.891218
    17  H    2.164966   2.164967   2.768418   2.650547   2.974346
                   11         12         13         14         15
    11  H    0.000000
    12  C    5.606532   0.000000
    13  H    5.751184   1.097979   0.000000
    14  H    6.233045   1.090739   1.797045   0.000000
    15  H    6.120534   1.092757   1.790088   1.782398   0.000000
    16  H    4.270679   3.383754   2.718601   4.271192   3.890954
    17  H    3.797525   2.768286   2.650731   3.797473   2.973833
                   16         17
    16  H    0.000000
    17  H    1.713664   0.000000
 Symmetry turned off by external request.
 Stoichiometry    C5H10N2
 Framework group  C1[X(C5H10N2)]
 Deg. of freedom    45
 Full point group                 C1      NOp   1
 Rotational constants (GHZ):           5.8684546           2.0798158           1.6058810
 Leave Link  202 at Thu Oct 31 05:46:53 2019, MaxMem=   140000000 cpu:               0.1 elap:               0.0
 (Enter /usr/g16/l301.exe)
 Standard basis: 6-31G(d) (6D, 7F)
 Ernie: Thresh=  0.10000D-02 Tol=  0.10000D-05 Strict=F.
   125 basis functions,   236 primitive gaussians,   125 cartesian basis functions
    27 alpha electrons       27 beta electrons
       nuclear repulsion energy       315.7096603458 Hartrees.
 IExCor=  402 DFT=T Ex+Corr=B3LYP ExCW=0 ScaHFX=  0.200000
 ScaDFX=  0.800000  0.720000  1.000000  0.810000 ScalE2=  1.000000  1.000000
 IRadAn=      5 IRanWt=     -1 IRanGd=            0 ICorTp=0 IEmpDi=141
 NAtoms=   17 NActive=   17 NUniq=   17 SFac= 1.00D+00 NAtFMM=   60 NAOKFM=F Big=F
 Integral buffers will be    131072 words long.
 Raffenetti 2 integral format.
 Two-electron integral symmetry is turned off.
 R6Disp:  Grimme-D3(BJ) Dispersion energy=       -0.0246680878 Hartrees.
 Nuclear repulsion after empirical dispersion term =      315.6849922580 Hartrees.
 Force inversion solution in PCM.
 ------------------------------------------------------------------------------
 Polarizable Continuum Model (PCM)
 =================================
 Model                : PCM.
 Atomic radii         : SMD-Coulomb.
 Polarization charges : Total charges.
 Charge compensation  : None.
 Solution method      : Matrix inversion.
 Cavity type          : VdW (van der Waals Surface) (Alpha=1.000).
 Cavity algorithm     : GePol (No added spheres)
                        Default sphere list used, NSphG=   17.
                        Lebedev-Laikov grids with approx.  5.0 points / Ang**2.
                        Smoothing algorithm: York/Karplus (Gamma=1.0000).
                        Polarization charges: spherical gaussians, with
                                              point-specific exponents (IZeta= 3).
                        Self-potential: point-specific (ISelfS= 7).
                        Self-field    : sphere-specific E.n sum rule (ISelfD= 2).
 1st derivatives      : Analytical E(r).r(x)/FMM algorithm (CHGder, D1EAlg=3).
                        Cavity 1st derivative terms included.
 Solvent              : Benzene, Eps=   2.270600 Eps(inf)=   2.253301
 ------------------------------------------------------------------------------
 Spheres list:
 ISph  on   Nord     Re0    Alpha      Xe            Ye            Ze
    1   C      1    1.8500  1.000      0.000015     -0.836909      0.238674
    2   C      2    1.8500  1.000      0.679770      1.257293     -0.115916
    3   C      3    1.8500  1.000     -0.679743      1.257294     -0.115997
    4   H      4    1.2000  1.000      1.389087      2.059898     -0.241545
    5   H      5    1.2000  1.000     -1.389056      2.059884     -0.241757
    6   N      6    1.8900  1.000     -1.088267     -0.047875      0.125357
    7   N      7    1.8900  1.000      1.088289     -0.047842      0.125538
    8   C      8    1.8500  1.000     -2.426123     -0.591317     -0.043632
    9   H      9    1.2000  1.000     -2.394356     -1.305850     -0.876698
   10   H     10    1.2000  1.000     -2.750305     -1.102988      0.865883
   11   H     11    1.2000  1.000     -3.116489      0.222876     -0.267679
   12   C     12    1.8500  1.000      2.426079     -0.591365     -0.043727
   13   H     13    1.2000  1.000      2.394317     -1.305390     -0.877225
   14   H     14    1.2000  1.000      3.116556      0.222887     -0.267214
   15   H     15    1.2000  1.000      2.750132     -1.103623      0.865503
   16   H     16    1.2000  1.000     -0.000216     -2.392710     -1.566238
   17   H     17    1.2000  1.000      0.000043     -1.918880      0.080617
 ------------------------------------------------------------------------------
 GePol: Number of generator spheres                  =      17
 GePol: Total number of spheres                      =      17
 GePol: Number of exposed spheres                    =      17 (100.00%)
 GePol: Number of points                             =    1316
 GePol: Average weight of points                     =       0.11
 GePol: Minimum weight of points                     =   0.16D-07
 GePol: Maximum weight of points                     =    0.17992
 GePol: Number of points with low weight             =      55
 GePol: Fraction of low-weight points (<1% of avg)   =       4.18%
 GePol: Cavity surface area                          =    148.660 Ang**2
 GePol: Cavity volume                                =    119.149 Ang**3
 ------------------------------------------------------------------------------
 Atomic radii for non-electrostatic terms: SMD-CDS.
 ------------------------------------------------------------------------------
 PCM non-electrostatic energy =        -0.0059364755 Hartrees.
 Nuclear repulsion after PCM non-electrostatic terms =      315.6790557825 Hartrees.
 Leave Link  301 at Thu Oct 31 05:46:53 2019, MaxMem=   140000000 cpu:               2.0 elap:               0.1
 (Enter /usr/g16/l302.exe)
 NPDir=0 NMtPBC=     1 NCelOv=     1 NCel=       1 NClECP=     1 NCelD=      1
         NCelK=      1 NCelE2=     1 NClLst=     1 CellRange=     0.0.
 One-electron integrals computed using PRISM.
 NBasis=   125 RedAO= T EigKep=  1.43D-03  NBF=   125
 NBsUse=   125 1.00D-06 EigRej= -1.00D+00 NBFU=   125
 Precomputing XC quadrature grid using
 IXCGrd= 4 IRadAn=           5 IRanWt=          -1 IRanGd=           0 AccXCQ= 0.00D+00.
 Generated NRdTot=       0 NPtTot=           0 NUsed=           0 NTot=          32
 NSgBfM=   125   125   125   125   125 MxSgAt=    17 MxSgA2=    17.
 Leave Link  302 at Thu Oct 31 05:46:53 2019, MaxMem=   140000000 cpu:               6.1 elap:               0.3
 (Enter /usr/g16/l303.exe)
 DipDrv:  MaxL=1.
 Leave Link  303 at Thu Oct 31 05:46:53 2019, MaxMem=   140000000 cpu:               0.6 elap:               0.0
 (Enter /usr/g16/l401.exe)
 Initial guess from the checkpoint file:  "carbene_irc.chk"
 B after Tr=    -0.000005   -0.079226   -0.043872
         Rot=    1.000000   -0.000087    0.000000   -0.000000 Ang=  -0.01 deg.
 Guess basis will be translated and rotated to current coordinates.
 JPrj=2 DoOrth=T DoCkMO=T.
 Generating alternative initial guess.
 ExpMin= 1.61D-01 ExpMax= 4.17D+03 ExpMxC= 6.27D+02 IAcc=2 IRadAn=         4 AccDes= 0.00D+00
 Harris functional with IExCor=  402 and IRadAn=       4 diagonalized for initial guess.
 HarFok:  IExCor=  402 AccDes= 0.00D+00 IRadAn=         4 IDoV= 1 UseB2=F ITyADJ=14
 ICtDFT=  3500011 ScaDFX=  1.000000  1.000000  1.000000  1.000000
 FoFCou: FMM=F IPFlag=           0 FMFlag=      100000 FMFlg1=           0
         NFxFlg=           0 DoJE=T BraDBF=F KetDBF=T FulRan=T
         wScrn=  0.000000 ICntrl=       500 IOpCl=  0 I1Cent=   200000004 NGrid=           0
         NMat0=    1 NMatS0=      1 NMatT0=    0 NMatD0=    1 NMtDS0=    0 NMtDT0=    0
 Symmetry not used in FoFCou.
 Harris En= -305.926935873721    
 Leave Link  401 at Thu Oct 31 05:46:54 2019, MaxMem=   140000000 cpu:               8.4 elap:               0.4
 (Enter /usr/g16/l502.exe)
 Two-electron integral symmetry not used.
 Closed shell SCF:
 Using DIIS extrapolation, IDIIS=  1040.
 NGot=   140000000 LenX=   139964426 LenY=   139948360
 Requested convergence on RMS density matrix=1.00D-08 within 128 cycles.
 Requested convergence on MAX density matrix=1.00D-06.
 Requested convergence on             energy=1.00D-06.
 No special actions if energy rises.
 Fock matrices will be formed incrementally for  20 cycles.

 Cycle   1  Pass 1  IDiag  1:
 FoFJK:  IHMeth= 1 ICntrl=       0 DoSepK=F KAlg= 0 I1Cent=           0 FoldK=F
 IRaf= 980000000 NMat=       1 IRICut=       1 DoRegI=T DoRafI=F ISym2E= 0 IDoP0=0 IntGTp=1.
 FoFCou: FMM=F IPFlag=           0 FMFlag=      100000 FMFlg1=           0
         NFxFlg=           0 DoJE=F BraDBF=F KetDBF=F FulRan=T
         wScrn=  0.000000 ICntrl=         0 IOpCl=  0 I1Cent=           0 NGrid=           0
         NMat0=    1 NMatS0=      1 NMatT0=    0 NMatD0=    1 NMtDS0=    0 NMtDT0=    0
 Symmetry not used in FoFCou.
 Inv3:  Mode=1 IEnd=     5195568.
 Iteration    1 A*A^-1 deviation from unit magnitude is 4.44D-15 for    460.
 Iteration    1 A*A^-1 deviation from orthogonality  is 1.82D-15 for   1304    534.
 Iteration    1 A^-1*A deviation from unit magnitude is 4.66D-15 for    461.
 Iteration    1 A^-1*A deviation from orthogonality  is 1.23D-15 for    407    378.
 E= -305.956746313707    
 DIIS: error= 1.11D-03 at cycle   1 NSaved=   1.
 NSaved= 1 IEnMin= 1 EnMin= -305.956746313707     IErMin= 1 ErrMin= 1.11D-03
 ErrMax= 1.11D-03  0.00D+00 EMaxC= 1.00D-01 BMatC= 1.48D-04 BMatP= 1.48D-04
 IDIUse=3 WtCom= 9.89D-01 WtEn= 1.11D-02
 Coeff-Com:  0.100D+01
 Coeff-En:   0.100D+01
 Coeff:      0.100D+01
 Gap=     1.489 Goal=   None    Shift=    0.000
 GapD=    1.489 DampG=2.000 DampE=1.000 DampFc=2.0000 IDamp=-1.
 RMSDP=2.71D-04 MaxDP=8.27D-03              OVMax= 1.26D-02

 Cycle   2  Pass 1  IDiag  1:
 RMSU=  2.71D-04    CP:  1.00D+00
 E= -305.957037825666     Delta-E=       -0.000291511959 Rises=F Damp=F
 DIIS: error= 3.26D-04 at cycle   2 NSaved=   2.
 NSaved= 2 IEnMin= 2 EnMin= -305.957037825666     IErMin= 2 ErrMin= 3.26D-04
 ErrMax= 3.26D-04  0.00D+00 EMaxC= 1.00D-01 BMatC= 9.26D-06 BMatP= 1.48D-04
 IDIUse=3 WtCom= 9.97D-01 WtEn= 3.26D-03
 Coeff-Com:  0.615D-01 0.938D+00
 Coeff-En:   0.000D+00 0.100D+01
 Coeff:      0.613D-01 0.939D+00
 Gap=     0.137 Goal=   None    Shift=    0.000
 RMSDP=1.10D-04 MaxDP=3.13D-03 DE=-2.92D-04 OVMax= 5.65D-03

 Cycle   3  Pass 1  IDiag  1:
 RMSU=  1.08D-04    CP:  1.00D+00  1.08D+00
 E= -305.957033293662     Delta-E=        0.000004532004 Rises=F Damp=F
 DIIS: error= 3.83D-04 at cycle   3 NSaved=   3.
 NSaved= 3 IEnMin= 2 EnMin= -305.957037825666     IErMin= 2 ErrMin= 3.26D-04
 ErrMax= 3.83D-04  0.00D+00 EMaxC= 1.00D-01 BMatC= 1.64D-05 BMatP= 9.26D-06
 IDIUse=3 WtCom= 3.38D-01 WtEn= 6.62D-01
 Coeff-Com: -0.265D-01 0.584D+00 0.442D+00
 Coeff-En:   0.000D+00 0.563D+00 0.437D+00
 Coeff:     -0.897D-02 0.570D+00 0.439D+00
 Gap=     0.139 Goal=   None    Shift=    0.000
 RMSDP=4.70D-05 MaxDP=1.24D-03 DE= 4.53D-06 OVMax= 2.93D-03

 Cycle   4  Pass 1  IDiag  1:
 RMSU=  2.17D-05    CP:  1.00D+00  1.14D+00  6.46D-01
 E= -305.957053227073     Delta-E=       -0.000019933411 Rises=F Damp=F
 DIIS: error= 4.91D-05 at cycle   4 NSaved=   4.
 NSaved= 4 IEnMin= 4 EnMin= -305.957053227073     IErMin= 4 ErrMin= 4.91D-05
 ErrMax= 4.91D-05  0.00D+00 EMaxC= 1.00D-01 BMatC= 4.20D-07 BMatP= 9.26D-06
 IDIUse=1 WtCom= 1.00D+00 WtEn= 0.00D+00
 Coeff-Com: -0.186D-01 0.199D+00 0.204D+00 0.615D+00
 Coeff:     -0.186D-01 0.199D+00 0.204D+00 0.615D+00
 Gap=     0.139 Goal=   None    Shift=    0.000
 RMSDP=7.17D-06 MaxDP=1.00D-04 DE=-1.99D-05 OVMax= 2.74D-04

 Cycle   5  Pass 1  IDiag  1:
 RMSU=  5.55D-06    CP:  1.00D+00  1.15D+00  6.44D-01  8.78D-01
 E= -305.957053621318     Delta-E=       -0.000000394245 Rises=F Damp=F
 DIIS: error= 9.87D-06 at cycle   5 NSaved=   5.
 NSaved= 5 IEnMin= 5 EnMin= -305.957053621318     IErMin= 5 ErrMin= 9.87D-06
 ErrMax= 9.87D-06  0.00D+00 EMaxC= 1.00D-01 BMatC= 3.00D-08 BMatP= 4.20D-07
 IDIUse=1 WtCom= 1.00D+00 WtEn= 0.00D+00
 Coeff-Com: -0.619D-02 0.454D-01 0.633D-01 0.270D+00 0.627D+00
 Coeff:     -0.619D-02 0.454D-01 0.633D-01 0.270D+00 0.627D+00
 Gap=     0.139 Goal=   None    Shift=    0.000
 RMSDP=2.09D-06 MaxDP=6.90D-05 DE=-3.94D-07 OVMax= 5.93D-05

 Cycle   6  Pass 1  IDiag  1:
 RMSU=  1.36D-06    CP:  1.00D+00  1.15D+00  6.54D-01  9.07D-01  9.50D-01
 E= -305.957053649360     Delta-E=       -0.000000028042 Rises=F Damp=F
 DIIS: error= 3.86D-06 at cycle   6 NSaved=   6.
 NSaved= 6 IEnMin= 6 EnMin= -305.957053649360     IErMin= 6 ErrMin= 3.86D-06
 ErrMax= 3.86D-06  0.00D+00 EMaxC= 1.00D-01 BMatC= 3.99D-09 BMatP= 3.00D-08
 IDIUse=1 WtCom= 1.00D+00 WtEn= 0.00D+00
 Coeff-Com: -0.552D-04-0.110D-01 0.922D-04 0.332D-01 0.285D+00 0.693D+00
 Coeff:     -0.552D-04-0.110D-01 0.922D-04 0.332D-01 0.285D+00 0.693D+00
 Gap=     0.139 Goal=   None    Shift=    0.000
 RMSDP=1.07D-06 MaxDP=4.03D-05 DE=-2.80D-08 OVMax= 3.06D-05

 Cycle   7  Pass 1  IDiag  1:
 RMSU=  4.61D-07    CP:  1.00D+00  1.16D+00  6.61D-01  9.24D-01  9.74D-01
                    CP:  8.85D-01
 E= -305.957053652937     Delta-E=       -0.000000003577 Rises=F Damp=F
 DIIS: error= 1.40D-06 at cycle   7 NSaved=   7.
 NSaved= 7 IEnMin= 7 EnMin= -305.957053652937     IErMin= 7 ErrMin= 1.40D-06
 ErrMax= 1.40D-06  0.00D+00 EMaxC= 1.00D-01 BMatC= 4.03D-10 BMatP= 3.99D-09
 IDIUse=1 WtCom= 1.00D+00 WtEn= 0.00D+00
 Coeff-Com:  0.357D-03-0.721D-02-0.252D-02 0.179D-02 0.941D-01 0.330D+00
 Coeff-Com:  0.583D+00
 Coeff:      0.357D-03-0.721D-02-0.252D-02 0.179D-02 0.941D-01 0.330D+00
 Coeff:      0.583D+00
 Gap=     0.139 Goal=   None    Shift=    0.000
 RMSDP=2.56D-07 MaxDP=6.51D-06 DE=-3.58D-09 OVMax= 1.20D-05

 Cycle   8  Pass 1  IDiag  1:
 RMSU=  1.86D-07    CP:  1.00D+00  1.16D+00  6.62D-01  9.27D-01  9.91D-01
                    CP:  9.07D-01  7.84D-01
 E= -305.957053653316     Delta-E=       -0.000000000379 Rises=F Damp=F
 DIIS: error= 5.02D-07 at cycle   8 NSaved=   8.
 NSaved= 8 IEnMin= 8 EnMin= -305.957053653316     IErMin= 8 ErrMin= 5.02D-07
 ErrMax= 5.02D-07  0.00D+00 EMaxC= 1.00D-01 BMatC= 4.69D-11 BMatP= 4.03D-10
 IDIUse=1 WtCom= 1.00D+00 WtEn= 0.00D+00
 Coeff-Com:  0.223D-03-0.288D-02-0.161D-02-0.423D-02 0.150D-01 0.873D-01
 Coeff-Com:  0.296D+00 0.610D+00
 Coeff:      0.223D-03-0.288D-02-0.161D-02-0.423D-02 0.150D-01 0.873D-01
 Coeff:      0.296D+00 0.610D+00
 Gap=     0.139 Goal=   None    Shift=    0.000
 RMSDP=7.68D-08 MaxDP=2.11D-06 DE=-3.79D-10 OVMax= 2.18D-06

 Cycle   9  Pass 1  IDiag  1:
 RMSU=  4.32D-08    CP:  1.00D+00  1.16D+00  6.62D-01  9.27D-01  9.93D-01
                    CP:  9.22D-01  8.37D-01  8.71D-01
 E= -305.957053653368     Delta-E=       -0.000000000053 Rises=F Damp=F
 DIIS: error= 1.28D-07 at cycle   9 NSaved=   9.
 NSaved= 9 IEnMin= 9 EnMin= -305.957053653368     IErMin= 9 ErrMin= 1.28D-07
 ErrMax= 1.28D-07  0.00D+00 EMaxC= 1.00D-01 BMatC= 1.27D-12 BMatP= 4.69D-11
 IDIUse=1 WtCom= 1.00D+00 WtEn= 0.00D+00
 Coeff-Com:  0.516D-04-0.565D-03-0.285D-03-0.112D-02 0.105D-02 0.122D-01
 Coeff-Com:  0.756D-01 0.204D+00 0.709D+00
 Coeff:      0.516D-04-0.565D-03-0.285D-03-0.112D-02 0.105D-02 0.122D-01
 Coeff:      0.756D-01 0.204D+00 0.709D+00
 Gap=     0.139 Goal=   None    Shift=    0.000
 RMSDP=1.49D-08 MaxDP=3.54D-07 DE=-5.26D-11 OVMax= 6.13D-07

 Cycle  10  Pass 1  IDiag  1:
 RMSU=  9.66D-09    CP:  1.00D+00  1.16D+00  6.62D-01  9.27D-01  9.93D-01
                    CP:  9.23D-01  8.46D-01  9.17D-01  9.51D-01
 E= -305.957053653366     Delta-E=        0.000000000003 Rises=F Damp=F
 DIIS: error= 5.17D-08 at cycle  10 NSaved=  10.
 NSaved=10 IEnMin= 9 EnMin= -305.957053653368     IErMin=10 ErrMin= 5.17D-08
 ErrMax= 5.17D-08  0.00D+00 EMaxC= 1.00D-01 BMatC= 2.80D-13 BMatP= 1.27D-12
 IDIUse=1 WtCom= 1.00D+00 WtEn= 0.00D+00
 Coeff-Com: -0.120D-05 0.546D-04 0.629D-04-0.453D-04-0.132D-02-0.501D-02
 Coeff-Com:  0.213D-02 0.194D-01 0.343D+00 0.642D+00
 Coeff:     -0.120D-05 0.546D-04 0.629D-04-0.453D-04-0.132D-02-0.501D-02
 Coeff:      0.213D-02 0.194D-01 0.343D+00 0.642D+00
 Gap=     0.139 Goal=   None    Shift=    0.000
 RMSDP=5.03D-09 MaxDP=1.43D-07 DE= 2.50D-12 OVMax= 1.21D-07

 Error on total polarization charges =  0.02884
 SCF Done:  E(RB3LYP) =  -305.957053653     A.U. after   10 cycles
            NFock= 10  Conv=0.50D-08     -V/T= 2.0098
 KE= 3.029943669311D+02 PE=-1.338662005065D+03 EE= 4.140315286979D+02
 SMD-CDS (non-electrostatic) energy       (kcal/mol) =      -3.73
 (included in total energy above)
 Leave Link  502 at Thu Oct 31 05:47:01 2019, MaxMem=   140000000 cpu:             164.0 elap:               7.1
 (Enter /usr/g16/l801.exe)
 DoSCS=F DFT=T ScalE2(SS,OS)=  1.000000  1.000000
 Range of M.O.s used for correlation:     1   125
 NBasis=   125 NAE=    27 NBE=    27 NFC=     0 NFV=     0
 NROrb=    125 NOA=    27 NOB=    27 NVA=    98 NVB=    98
 Leave Link  801 at Thu Oct 31 05:47:01 2019, MaxMem=   140000000 cpu:               1.5 elap:               0.1
 (Enter /usr/g16/l1101.exe)
 Leave Link 1101 at Thu Oct 31 05:47:01 2019, MaxMem=   140000000 cpu:               0.5 elap:               0.0
 (Enter /usr/g16/l1102.exe)
 Symmetrizing basis deriv contribution to polar:
 IMax=3 JMax=2 DiffMx= 0.00D+00
 Leave Link 1102 at Thu Oct 31 05:47:01 2019, MaxMem=   140000000 cpu:               0.8 elap:               0.1
 (Enter /usr/g16/l1110.exe)
 Leave Link 1110 at Thu Oct 31 05:47:01 2019, MaxMem=   140000000 cpu:               1.8 elap:               0.1
 (Enter /usr/g16/l1002.exe)
 Minotr:  Closed shell wavefunction.
 Leave Link 1002 at Thu Oct 31 05:47:01 2019, MaxMem=   140000000 cpu:               0.5 elap:               0.0
 (Enter /usr/g16/l701.exe)
 ... and contract with generalized density number  0.
 Compute integral first derivatives.
 R6Disp: Adding Grimme-D3(BJ) dispersion energy 1st derivatives to the gradient.
 D1PCM: PCM CHGder 1st derivatives, ID1Alg=3 FixD1E=F DoIter=F DoCFld=F I1PDM=0.
 GePol: Maximum number of non-zero 1st derivatives   =     245
 Leave Link  701 at Thu Oct 31 05:47:02 2019, MaxMem=   140000000 cpu:              16.2 elap:               0.7
 (Enter /usr/g16/l702.exe)
 L702 exits ... SP integral derivatives will be done elsewhere.
 Leave Link  702 at Thu Oct 31 05:47:02 2019, MaxMem=   140000000 cpu:               0.5 elap:               0.0
 (Enter /usr/g16/l703.exe)
 Integral derivatives from FoFJK, PRISM(SPDF).
 Compute integral first derivatives, UseDBF=F ICtDFT=           0.
 Calling FoFJK, ICntrl=      2147 FMM=F ISym2X=0 I1Cent= 0 IOpClX= 0 NMat=1 NMatS=1 NMatT=0.
 FoFJK:  IHMeth= 1 ICntrl=    2147 DoSepK=F KAlg= 0 I1Cent=           0 FoldK=F
 IRaf=         0 NMat=       1 IRICut=       1 DoRegI=T DoRafI=F ISym2E= 0 IDoP0=0 IntGTp=1.
 FoFCou: FMM=F IPFlag=           0 FMFlag=      100000 FMFlg1=         800
         NFxFlg=           0 DoJE=F BraDBF=F KetDBF=F FulRan=T
         wScrn=  0.000000 ICntrl=      2147 IOpCl=  0 I1Cent=           0 NGrid=           0
         NMat0=    1 NMatS0=      1 NMatT0=    0 NMatD0=    1 NMtDS0=    0 NMtDT0=    0
 Symmetry not used in FoFCou.
 Leave Link  703 at Thu Oct 31 05:47:03 2019, MaxMem=   140000000 cpu:              29.9 elap:               1.3
 (Enter /usr/g16/l716.exe)
 Dipole        = 2.34564284D-04 2.52354191D+00 1.66399076D+00
 Polarizability= 0.00000000D+00 0.00000000D+00 0.00000000D+00
                 0.00000000D+00 0.00000000D+00 0.00000000D+00
 -------------------------------------------------------------------
 Center     Atomic                   Forces (Hartrees/Bohr)
 Number     Number              X              Y              Z
 -------------------------------------------------------------------
      1        6          -0.000012666   -0.000503618    0.000877014
      2        6           0.000063497    0.000151404    0.000108883
      3        6          -0.000063570    0.000130610    0.000107520
      4        1          -0.000003113    0.000025688    0.000031683
      5        1           0.000003511    0.000024972    0.000035256
      6        7           0.000245857    0.000209141   -0.000211547
      7        7          -0.000243305    0.000185616   -0.000228708
      8        6           0.000065149    0.000035848    0.000038991
      9        1          -0.000038069   -0.000007827    0.000029231
     10        1           0.000016601    0.000017170    0.000014497
     11        1           0.000004627   -0.000000917   -0.000012023
     12        6          -0.000054111    0.000046297    0.000045150
     13        1           0.000034883   -0.000008964    0.000030242
     14        1          -0.000001497   -0.000001197   -0.000011802
     15        1          -0.000017267    0.000017071    0.000013998
     16        1           0.000003894   -0.000668982    0.000325284
     17        1          -0.000004420    0.000347688   -0.001193667
 -------------------------------------------------------------------
 Cartesian Forces:  Max     0.001193667 RMS     0.000262439
 Z-matrix is all fixed cartesians, so copy forces.
 Leave Link  716 at Thu Oct 31 05:47:03 2019, MaxMem=   140000000 cpu:               1.4 elap:               0.1
 (Enter /usr/g16/l123.exe)
 IRC-IRC-IRC-IRC-IRC-IRC-IRC-IRC-IRC-IRC-IRC-IRC-IRC-IRC-IRC-IRC-IRC-IRC
 Pt  1 Step number   1 out of a maximum of  20
 Using modified Bulirsch-Stoer corrector integration.
   Using distance weighted interpolants to fit PES.
 PreDWI: IReCr0= 2 IReCr1= 1 IReCr2= 1 IReCr3= 1
 Modified Bulirsch-Stoer Extrapolation Cycles:
    EPS =    0.000010000000000
    Cycle     1 NS=    48
      PEZero:  N= 2 I= 1 D=  2.67D-04 Err=  6.70D-04
    Cycle     2 NS=    64 Truncation Error =  0.000669760
      PEZero:  N= 3 I= 2 D=  2.67D-04 Err=  4.46D-04
      PEZero:  N= 3 I= 1 D=  5.34D-04 Err=  2.32D-07
    Cycle     3 NS=    96 Truncation Error =  0.000000232
 BS completed in    3 cycles and     208 integration steps.
 Maximum DWI energy   std dev =  0.000001228 at pt     1
 Maximum DWI gradient std dev =  0.137116510 at pt     1
 SUMMARY OF CORRECTOR INTEGRATION:
   Predictor End Point Energy =  -305.957054
   Old End Point Energy       =  -305.957054
   Corrected End Point Energy =  -305.957054
   Predictor End-Start Dist.  =     0.102475
   Old End-Start Dist.        =     0.102475
   New End-Start Dist.        =     0.102442
   New End-Old End Dist.      =     0.002280
 CORRECTOR INTEGRATION CONVERGENCE:
   Recorrection delta-x convergence threshold:    0.010000
   Delta-x Convergence Met
 Point Number:   1          Path Number:   1
                    CURRENT STRUCTURE
                Cartesian Coordinates (Ang):                
 ---------------------------------------------------------------------
 Center     Atomic                     Coordinates (Angstroms)
 Number     Number                        X           Y           Z
 ---------------------------------------------------------------------
      1          6                    0.000002   -0.836996    0.238611
      2          6                    0.679775    1.257319   -0.115891
      3          6                   -0.679746    1.257309   -0.115972
      4          1                    1.389081    2.059948   -0.241450
      5          1                   -1.389048    2.059930   -0.241606
      6          7                   -1.088241   -0.047844    0.125359
      7          7                    1.088259   -0.047831    0.125514
      8          6                   -2.426105   -0.591311   -0.043639
      9          1                   -2.394456   -1.305798   -0.876727
     10          1                   -2.750269   -1.103023    0.865861
     11          1                   -3.116478    0.222890   -0.267641
     12          6                    2.426074   -0.591350   -0.043726
     13          1                    2.394412   -1.305351   -0.877230
     14          1                    3.116568    0.222900   -0.267175
     15          1                    2.750095   -1.103649    0.865492
     16          1                   -0.000143   -2.393594   -1.566391
     17          1                   -0.000005   -1.918450    0.081015
 ---------------------------------------------------------------------
   CHANGE IN THE REACTION COORDINATE =    0.10244
   NET REACTION COORDINATE UP TO THIS POINT =    0.10244
  # OF POINTS ALONG THE PATH =   1
  # OF STEPS =   1

 Calculating another point on the path.
 Point Number  2 in FORWARD path direction.
 Using LQA Reaction Path Following.
   LQA: T_Est iteration completed in    3 iterations.
 IRC-IRC-IRC-IRC-IRC-IRC-IRC-IRC-IRC-IRC-IRC-IRC-IRC-IRC-IRC-IRC-IRC-IRC
 Leave Link  123 at Thu Oct 31 05:47:03 2019, MaxMem=   140000000 cpu:               1.4 elap:               0.1
 (Enter /usr/g16/l202.exe)
                          Input orientation:                          
 ---------------------------------------------------------------------
 Center     Atomic      Atomic             Coordinates (Angstroms)
 Number     Number       Type             X           Y           Z
 ---------------------------------------------------------------------
      1          6           0       -0.000003   -0.837160    0.241353
      2          6           0        0.679932    1.257726   -0.115524
      3          6           0       -0.679902    1.257721   -0.115601
      4          1           0        1.389038    2.060701   -0.240302
      5          1           0       -1.389002    2.060693   -0.240435
      6          7           0       -1.087646   -0.047467    0.124742
      7          7           0        1.087660   -0.047463    0.124876
      8          6           0       -2.425955   -0.591146   -0.043487
      9          1           0       -2.395356   -1.306306   -0.875807
     10          1           0       -2.749605   -1.102252    0.866447
     11          1           0       -3.116349    0.222911   -0.267950
     12          6           0        2.425928   -0.591183   -0.043568
     13          1           0        2.395331   -1.305872   -0.876294
     14          1           0        3.116437    0.222928   -0.267482
     15          1           0        2.749430   -1.102859    0.866097
     16          1           0       -0.000080   -2.417411   -1.553619
     17          1           0       -0.000020   -1.918914    0.035735
 ---------------------------------------------------------------------
                    Distance matrix (angstroms):
                    1          2          3          4          5
     1  C    0.000000
     2  C    2.231193   0.000000
     3  C    2.231189   1.359834   0.000000
     4  H    3.249465   1.078503   2.222800   0.000000
     5  H    3.249460   2.222801   1.078503   2.778040   0.000000
     6  N    1.349141   2.210337   1.388357   3.272857   2.160673
     7  N    1.349147   1.388364   2.210342   2.160681   3.272862
     8  C    2.454974   3.615252   2.544053   4.650290   2.854174
     9  H    2.684373   4.075498   3.177252   5.105119   3.571152
    10  H    2.832194   4.277322   3.289006   5.325178   3.616718
    11  H    3.330879   3.937744   2.651474   4.865876   2.522287
    12  C    2.454960   2.544042   3.615221   2.854179   4.650258
    13  H    2.684483   3.177011   4.075257   3.570844   5.104826
    14  H    3.330900   2.651501   3.937773   2.522312   4.865911
[...]
   Corrected End Point Energy =  -306.026792
   Predictor End-Start Dist.  =     0.101762
   Old End-Start Dist.        =     0.101762
   New End-Start Dist.        =     0.100412
   New End-Old End Dist.      =     0.009402
 CORRECTOR INTEGRATION CONVERGENCE:
   Recorrection delta-x convergence threshold:    0.010000
   Delta-x Convergence Met
 Point Number:  30          Path Number:   2
                    CURRENT STRUCTURE
                Cartesian Coordinates (Ang):                
 ---------------------------------------------------------------------
 Center     Atomic                     Coordinates (Angstroms)
 Number     Number                        X           Y           Z
 ---------------------------------------------------------------------
      1          6                   -0.000001   -0.934008    0.087324
      2          6                    0.673146    1.254338   -0.134036
      3          6                   -0.673115    1.254341   -0.134086
      4          1                    1.377471    2.065056   -0.246276
      5          1                   -1.377429    2.065065   -0.246364
      6          7                   -1.116922   -0.045368    0.164079
      7          7                    1.116928   -0.045378    0.164184
      8          6                   -2.423111   -0.587028   -0.050548
      9          1                   -2.433848   -1.283502   -0.909794
     10          1                   -2.772856   -1.138920    0.834227
     11          1                   -3.133300    0.219358   -0.253147
     12          6                    2.423082   -0.587063   -0.050617
     13          1                    2.433841   -1.283127   -0.910203
     14          1                    3.133369    0.219356   -0.252733
     15          1                    2.772671   -1.139420    0.833926
     16          1                    0.000039   -1.497970   -0.900373
     17          1                   -0.000035   -1.725922    0.857514
 ---------------------------------------------------------------------
   CHANGE IN THE REACTION COORDINATE =    0.10041
   NET REACTION COORDINATE UP TO THIS POINT =    3.07040
  # OF POINTS ALONG THE PATH =  60
  # OF STEPS =   1

 Maximum number of steps reached.
 Calculation of REVERSE path complete.
 Reaction path calculation complete.
 
 Energies reported relative to the TS energy of        -305.956976
 --------------------------------------------------------------------------
    Summary of reaction path following
 --------------------------------------------------------------------------
                        Energy    RxCoord
   1                   -0.06982  -3.07040
   2                   -0.06836  -2.96999
   3                   -0.06575  -2.86787
   4                   -0.06209  -2.76546
   5                   -0.05775  -2.66302
   6                   -0.05311  -2.56057
   7                   -0.04850  -2.45812
   8                   -0.04405  -2.35567
   9                   -0.03973  -2.25321
  10                   -0.03557  -2.15076
  11                   -0.03161  -2.04831
  12                   -0.02789  -1.94587
  13                   -0.02443  -1.84342
  14                   -0.02127  -1.74098
  15                   -0.01845  -1.63854
  16                   -0.01590  -1.53610
  17                   -0.01358  -1.43365
  18                   -0.01148  -1.33122
  19                   -0.00961  -1.22878
  20                   -0.00794  -1.12634
  21                   -0.00645  -1.02390
  22                   -0.00514  -0.92148
  23                   -0.00400  -0.81906
  24                   -0.00304  -0.71666
  25                   -0.00223  -0.61426
  26                   -0.00157  -0.51184
  27                   -0.00103  -0.40941
  28                   -0.00061  -0.30702
  29                   -0.00028  -0.20467
  30                   -0.00007  -0.10235
  31                    0.00000   0.00000
  32                   -0.00008   0.10244
  33                   -0.00027   0.20486
  34                   -0.00058   0.30716
  35                   -0.00104   0.40960
  36                   -0.00161   0.51203
  37                   -0.00231   0.61444
  38                   -0.00316   0.71686
  39                   -0.00419   0.81924
  40                   -0.00550   0.92162
  41                   -0.00714   1.02399
  42                   -0.00918   1.12637
  43                   -0.01167   1.22877
  44                   -0.01456   1.33115
  45                   -0.01759   1.43346
  46                   -0.02040   1.53550
  47                   -0.02288   1.63765
  48                   -0.02515   1.73998
  49                   -0.02725   1.84237
  50                   -0.02917   1.94480
  51                   -0.03091   2.04723
  52                   -0.03248   2.14964
  53                   -0.03391   2.25175
  54                   -0.03517   2.35371
  55                   -0.03635   2.45591
  56                   -0.03741   2.55814
  57                   -0.03836   2.66045
  58                   -0.03923   2.76279
  59                   -0.04000   2.86511
  60                   -0.04069   2.96745
  61                   -0.04132   3.06978
 --------------------------------------------------------------------------
 
 Total number of points:                   60
 Total number of gradient calculations:    67
 Total number of Hessian calculations:      1
 IRC-IRC-IRC-IRC-IRC-IRC-IRC-IRC-IRC-IRC-IRC-IRC-IRC-IRC-IRC-IRC-IRC-IRC
 Leave Link  123 at Thu Oct 31 05:58:08 2019, MaxMem=   140000000 cpu:               0.7 elap:               0.1
 (Enter /usr/g16/l202.exe)
                          Input orientation:                          
 ---------------------------------------------------------------------
 Center     Atomic      Atomic             Coordinates (Angstroms)
 Number     Number       Type             X           Y           Z
 ---------------------------------------------------------------------
      1          6           0       -0.000001   -0.933788    0.086932
      2          6           0        0.673134    1.254332   -0.133996
      3          6           0       -0.673104    1.254335   -0.134046
      4          1           0        1.377618    2.064888   -0.246507
      5          1           0       -1.377576    2.064896   -0.246595
      6          7           0       -1.116813   -0.045422    0.163920
      7          7           0        1.116819   -0.045432    0.164025
      8          6           0       -2.423044   -0.587055   -0.050462
      9          1           0       -2.433505   -1.283785   -0.909590
     10          1           0       -2.772805   -1.138770    0.834521
     11          1           0       -3.133161    0.219353   -0.253271
     12          6           0        2.423015   -0.587091   -0.050531
     13          1           0        2.433497   -1.283410   -0.909999
     14          1           0        3.133230    0.219351   -0.252857
     15          1           0        2.772620   -1.139270    0.834220
     16          1           0        0.000038   -1.496282   -0.898882
     17          1           0       -0.000035   -1.728678    0.860170
 ---------------------------------------------------------------------
                    Distance matrix (angstroms):
                    1          2          3          4          5
     1  C    0.000000
     2  C    2.299954   0.000000
     3  C    2.299952   1.346238   0.000000
     4  H    3.316786   1.079795   2.207964   0.000000
     5  H    3.316784   2.207964   1.079796   2.755194   0.000000
     6  N    1.429122   2.232045   1.405357   3.293030   2.165633
     7  N    1.429128   1.405368   2.232054   2.165641   3.293039
     8  C    2.451579   3.603332   2.541652   4.638563   2.857327
     9  H    2.652828   4.085926   3.184734   5.116439   3.573264
    10  H    2.879123   4.305747   3.327734   5.353322   3.657725
    11  H    3.355914   3.946300   2.671569   4.873722   2.547185
    12  C    2.451551   2.541631   3.603300   2.857315   4.638531
    13  H    2.652927   3.184524   4.085734   3.572981   5.116203
    14  H    3.355938   2.671588   3.946325   2.547198   4.873750
    15  H    2.878904   3.327854   4.305797   3.657954   5.353407
    16  H    1.135002   2.933255   2.933255   3.873661   3.873666
    17  H    1.108940   3.215567   3.215564   4.184950   4.184944
                    6          7          8          9         10
     6  N    0.000000
     7  N    2.233633   0.000000
     8  C    1.430232   3.587477   0.000000
     9  H    2.102295   3.910367   1.106184   0.000000
    10  H    2.094618   4.095623   1.099962   1.782716   0.000000
    11  H    2.076008   4.278619   1.093477   1.783171   1.776977
    12  C    3.587447   1.430236   4.846059   4.980879   5.299454
    13  H    3.910322   2.102321   4.980934   4.867002   5.492709
    14  H    4.278630   2.076008   5.618134   5.803383   6.156958
    15  H    4.095546   2.094592   5.299295   5.492312   5.545424
    16  H    2.117050   2.117058   2.723571   2.442827   3.289553
    17  H    2.136658   2.136656   2.829051   3.041670   2.834943
                   11         12         13         14         15
    11  H    0.000000
    12  C    5.618055   0.000000
    13  H    5.803212   1.106190   0.000000
    14  H    6.266390   1.093476   1.783186   0.000000
    15  H    6.156845   1.099959   1.782717   1.776971   0.000000
    16  H    3.630035   2.723443   2.442777   3.630101   3.289119
    17  H    3.853707   2.829093   3.042013   3.853699   2.834729
                   16         17
    16  H    0.000000
    17  H    1.774337   0.000000
 Symmetry turned off by external request.
 Stoichiometry    C5H10N2
 Framework group  C1[X(C5H10N2)]
 Deg. of freedom    45
 Full point group                 C1      NOp   1
 Rotational constants (GHZ):           6.1133491           2.0748738           1.6063632
 Leave Link  202 at Thu Oct 31 05:58:08 2019, MaxMem=   140000000 cpu:               0.1 elap:               0.0
 (Enter /usr/g16/l601.exe)
 Copying SCF densities to generalized density rwf, IOpCl= 0 IROHF=0.

 **********************************************************************

            Population analysis using the SCF density.

 **********************************************************************

 Alpha  occ. eigenvalues --  -14.32698 -14.32698 -10.23070 -10.20326 -10.20326
 Alpha  occ. eigenvalues --  -10.18701 -10.18622  -0.97795  -0.88228  -0.75287
 Alpha  occ. eigenvalues --   -0.71094  -0.66264  -0.57737  -0.56953  -0.50988
 Alpha  occ. eigenvalues --   -0.47287  -0.43610  -0.43379  -0.42269  -0.40826
 Alpha  occ. eigenvalues --   -0.39781  -0.38041  -0.37485  -0.35749  -0.30347
 Alpha  occ. eigenvalues --   -0.24280  -0.13402
 Alpha virt. eigenvalues --    0.06827   0.10168   0.11283   0.12305   0.15496
 Alpha virt. eigenvalues --    0.15697   0.16618   0.17484   0.18058   0.18065
 Alpha virt. eigenvalues --    0.18625   0.20813   0.21696   0.25687   0.27748
 Alpha virt. eigenvalues --    0.30378   0.35233   0.45767   0.48536   0.50930
 Alpha virt. eigenvalues --    0.53093   0.54155   0.55360   0.56462   0.56980
 Alpha virt. eigenvalues --    0.60191   0.62178   0.67311   0.69998   0.71400
 Alpha virt. eigenvalues --    0.72841   0.76460   0.80215   0.80704   0.82632
 Alpha virt. eigenvalues --    0.83899   0.85013   0.86380   0.89220   0.90395
 Alpha virt. eigenvalues --    0.91121   0.92211   0.95032   0.95932   0.98071
 Alpha virt. eigenvalues --    0.99997   1.01154   1.08016   1.08204   1.18807
 Alpha virt. eigenvalues --    1.23819   1.26726   1.35180   1.39708   1.40683
 Alpha virt. eigenvalues --    1.41073   1.47975   1.52190   1.59245   1.67867
 Alpha virt. eigenvalues --    1.80673   1.85053   1.90263   1.90609   1.93644
 Alpha virt. eigenvalues --    1.95516   1.97915   2.00781   2.04316   2.06349
 Alpha virt. eigenvalues --    2.09534   2.13989   2.17473   2.18042   2.22096
 Alpha virt. eigenvalues --    2.24050   2.24223   2.29065   2.35503   2.38418
 Alpha virt. eigenvalues --    2.40485   2.53718   2.55300   2.60533   2.62700
 Alpha virt. eigenvalues --    2.75819   2.78718   2.81687   2.95155   3.01607
 Alpha virt. eigenvalues --    3.12487   3.98665   4.07778   4.15394   4.27779
 Alpha virt. eigenvalues --    4.28109   4.43931   4.48008
          Condensed to atoms (all electrons):
               1          2          3          4          5          6
     1  C    4.764189  -0.068725  -0.068721   0.006056   0.006055   0.344711
     2  C   -0.068725   4.863777   0.652173   0.371193  -0.038035  -0.065455
     3  C   -0.068721   0.652173   4.863732  -0.038035   0.371191   0.326311
     4  H    0.006056   0.371193  -0.038035   0.549172  -0.000585   0.003229
     5  H    0.006055  -0.038035   0.371191  -0.000585   0.549171  -0.043412
     6  N    0.344711  -0.065455   0.326311   0.003229  -0.043412   6.800264
     7  N    0.344709   0.326298  -0.065452  -0.043411   0.003229  -0.030996
     8  C   -0.053199   0.006529  -0.043492  -0.000112  -0.003032   0.335233
     9  H   -0.007070   0.000245   0.003684  -0.000000  -0.000064  -0.055177
    10  H   -0.000396  -0.000059   0.002441   0.000005  -0.000024  -0.051422
    11  H    0.004538  -0.000149  -0.003265  -0.000010   0.004426  -0.031097
    12  C   -0.053202  -0.043496   0.006529  -0.003032  -0.000112   0.004165
    13  H   -0.007071   0.003685   0.000245  -0.000064  -0.000000  -0.000236
    14  H    0.004539  -0.003266  -0.000149   0.004426  -0.000010  -0.000136
    15  H   -0.000397   0.002443  -0.000059  -0.000024   0.000005  -0.000085
    16  H    0.320663   0.009594   0.009598  -0.000230  -0.000230  -0.076542
    17  H    0.376149   0.004537   0.004535  -0.000099  -0.000099  -0.043385
               7          8          9         10         11         12
     1  C    0.344709  -0.053199  -0.007070  -0.000396   0.004538  -0.053202
     2  C    0.326298   0.006529   0.000245  -0.000059  -0.000149  -0.043496
     3  C   -0.065452  -0.043492   0.003684   0.002441  -0.003265   0.006529
     4  H   -0.043411  -0.000112  -0.000000   0.000005  -0.000010  -0.003032
     5  H    0.003229  -0.003032  -0.000064  -0.000024   0.004426  -0.000112
     6  N   -0.030996   0.335233  -0.055177  -0.051422  -0.031097   0.004165
     7  N    6.800269   0.004165  -0.000236  -0.000085  -0.000136   0.335240
     8  C    0.004165   4.955372   0.353032   0.385238   0.375782  -0.000188
     9  H   -0.000236   0.353032   0.631105  -0.053302  -0.025762  -0.000009
    10  H   -0.000085   0.385238  -0.053302   0.590648  -0.029807   0.000001
    11  H   -0.000136   0.375782  -0.025762  -0.029807   0.543020   0.000004
    12  C    0.335240  -0.000188  -0.000009   0.000001   0.000004   4.955381
    13  H   -0.055187  -0.000009   0.000028  -0.000001   0.000000   0.353019
    14  H   -0.031096   0.000004   0.000000  -0.000000  -0.000000   0.375788
    15  H   -0.051414   0.000001  -0.000001  -0.000000  -0.000000   0.385238
    16  H   -0.076539  -0.008451   0.022197  -0.002557   0.000081  -0.008452
    17  H   -0.043385   0.002984  -0.004064   0.004760  -0.000160   0.002982
              13         14         15         16         17
     1  C   -0.007071   0.004539  -0.000397   0.320663   0.376149
     2  C    0.003685  -0.003266   0.002443   0.009594   0.004537
     3  C    0.000245  -0.000149  -0.000059   0.009598   0.004535
     4  H   -0.000064   0.004426  -0.000024  -0.000230  -0.000099
     5  H   -0.000000  -0.000010   0.000005  -0.000230  -0.000099
     6  N   -0.000236  -0.000136  -0.000085  -0.076542  -0.043385
     7  N   -0.055187  -0.031096  -0.051414  -0.076539  -0.043385
     8  C   -0.000009   0.000004   0.000001  -0.008451   0.002984
     9  H    0.000028   0.000000  -0.000001   0.022197  -0.004064
    10  H   -0.000001  -0.000000  -0.000000  -0.002557   0.004760
    11  H    0.000000  -0.000000  -0.000000   0.000081  -0.000160
    12  C    0.353019   0.375788   0.385238  -0.008452   0.002982
    13  H    0.631147  -0.025774  -0.053301   0.022204  -0.004063
    14  H   -0.025774   0.543019  -0.029798   0.000080  -0.000160
    15  H   -0.053301  -0.029798   0.590626  -0.002558   0.004761
    16  H    0.022204   0.000080  -0.002558   0.821470  -0.095082
    17  H   -0.004063  -0.000160   0.004761  -0.095082   0.655520
 Mulliken charges:
               1
     1  C    0.087172
     2  C   -0.021288
     3  C   -0.021266
     4  H    0.151523
     5  H    0.151527
     6  N   -0.415969
     7  N   -0.415971
     8  C   -0.309859
     9  H    0.135394
    10  H    0.154561
    11  H    0.162534
    12  C   -0.309855
    13  H    0.135378
    14  H    0.162533
    15  H    0.154565
    16  H    0.064753
    17  H    0.134269
 Sum of Mulliken charges =  -0.00000
 Mulliken charges with hydrogens summed into heavy atoms:
               1
     1  C    0.286194
     2  C    0.130235
     3  C    0.130261
     6  N   -0.415969
     7  N   -0.415971
     8  C    0.142630
    12  C    0.142621
 APT charges:
               1
     1  C   -0.492521
     2  C   -0.460294
     3  C   -0.460273
     4  H    0.558238
     5  H    0.558238
     6  N   -0.307849
     7  N   -0.307864
     8  C   -1.194276
     9  H    0.351764
    10  H    0.464582
    11  H    0.513344
    12  C   -1.194260
    13  H    0.351718
    14  H    0.513367
    15  H    0.464583
    16  H    0.223559
    17  H    0.417945
 Sum of APT charges =  -0.00000
 APT charges with hydrogens summed into heavy atoms:
               1
     1  C    0.148983
     2  C    0.097944
     3  C    0.097965
     6  N   -0.307849
     7  N   -0.307864
     8  C    0.135414
    12  C    0.135408
 Electronic spatial extent (au):  <R**2>=            798.0145
 Charge=             -0.0000 electrons
 Dipole moment (field-independent basis, Debye):
    X=             -0.0003    Y=             -0.2965    Z=             -0.4262  Tot=              0.5192
 Quadrupole moment (field-independent basis, Debye-Ang):
   XX=            -36.9515   YY=            -41.0670   ZZ=            -46.5525
   XY=              0.0000   XZ=              0.0002   YZ=             -1.3574
 Traceless Quadrupole moment (field-independent basis, Debye-Ang):
   XX=              4.5722   YY=              0.4567   ZZ=             -5.0289
   XY=              0.0000   XZ=              0.0002   YZ=             -1.3574
 Octapole moment (field-independent basis, Debye-Ang**2):
  XXX=             -0.0005  YYY=              9.3872  ZZZ=              3.2261  XYY=             -0.0000
  XXY=              4.7362  XXZ=             -0.4906  XZZ=             -0.0011  YZZ=             -1.3160
  YYZ=              0.9129  XYZ=             -0.0001
 Hexadecapole moment (field-independent basis, Debye-Ang**3):
 XXXX=           -687.9407 YYYY=           -268.0021 ZZZZ=            -73.8892 XXXY=              0.0022
 XXXZ=              0.0064 YYYX=              0.0009 YYYZ=              0.8367 ZZZX=              0.0009
 ZZZY=              6.5379 XXYY=           -156.8357 XXZZ=           -136.4394 YYZZ=            -60.8237
 XXYZ=             -2.4290 YYXZ=              0.0032 ZZXY=              0.0001
 N-N= 3.164249717415D+02 E-N=-1.342664404556D+03  KE= 3.031483090458D+02
  Exact polarizability:   0.000   0.000   0.000   0.000   0.000   0.000
 Approx polarizability: 118.821   0.001  94.451  -0.001  -0.919  65.594
 No NMR shielding tensors so no spin-rotation constants.
 Leave Link  601 at Thu Oct 31 05:58:09 2019, MaxMem=   140000000 cpu:               3.0 elap:               0.2
 (Enter /usr/g16/l9999.exe)

 This type of calculation cannot be archived.


    THE DOUGHNUT CREED
 AS YOU RAMBLE ON THROUGH LIFE, BROTHER
 WHATEVER BE YOUR GOAL
 KEEP YOUR EYE UPON THE DOUGHNUT
 AND NOT UPON THE HOLE.
 Job cpu time:       0 days  4 hours 29 minutes 22.7 seconds.
 Elapsed time:       0 days  0 hours 11 minutes 48.0 seconds.
 File lengths (MBytes):  RWF=     78 Int=      0 D2E=      0 Chk=      9 Scr=      1
 Normal termination of Gaussian 16 at Thu Oct 31 05:58:09 2019.
