 Entering Gaussian System, Link 0=g16
 Input=carbene.gjf
 Output=carbene.log
 Initial command:
 /usr/g16/l1.exe "/scratch/wsr/gaussian/Gau-95983.inp" -scrdir="/scratch/wsr/gaussian/"
 Entering Link 1 = /usr/g16/l1.exe PID=     95984.
  
 Copyright (c) 1988,1990,1992,1993,1995,1998,2003,2009,2016,
            Gaussian, Inc.  All Rights Reserved.
  
 This is part of the Gaussian(R) 16 program.  It is based on
 the Gaussian(R) 09 system (copyright 2009, Gaussian, Inc.),
 the Gaussian(R) 03 system (copyright 2003, Gaussian, Inc.),
 the Gaussian(R) 98 system (copyright 1998, Gaussian, Inc.),
 the Gaussian(R) 94 system (copyright 1995, Gaussian, Inc.),
 the Gaussian 92(TM) system (copyright 1992, Gaussian, Inc.),
 the Gaussian 90(TM) system (copyright 1990, Gaussian, Inc.),
 the Gaussian 88(TM) system (copyright 1988, Gaussian, Inc.),
 the Gaussian 86(TM) system (copyright 1986, Carnegie Mellon
 University), and the Gaussian 82(TM) system (copyright 1983,
 Carnegie Mellon University). Gaussian is a federally registered
 trademark of Gaussian, Inc.
  
 This software contains proprietary and confidential information,
 including trade secrets, belonging to Gaussian, Inc.
  
 This software is provided under written license and may be
 used, copied, transmitted, or stored only in accord with that
 written license.
  
 The following legend is applicable only to US Government
 contracts under FAR:
  
                    RESTRICTED RIGHTS LEGEND
  
 Use, reproduction and disclosure by the US Government is
 subject to restrictions as set forth in subparagraphs (a)
 and (c) of the Commercial Computer Software - Restricted
 Rights clause in FAR 52.227-19.
  
 Gaussian, Inc.
 340 Quinnipiac St., Bldg. 40, Wallingford CT 06492
  
  
 ---------------------------------------------------------------
 Warning -- This program may not be used in any manner that
 competes with the business of Gaussian, Inc. or will provide
 assistance to any competitor of Gaussian, Inc.  The licensee
 of this program is prohibited from giving any competitor of
 Gaussian, Inc. access to this program.  By using this program,
 the user acknowledges that Gaussian, Inc. is engaged in the
 business of creating and licensing software in the field of
 computational chemistry and represents and warrants to the
 licensee that it is not a competitor of Gaussian, Inc. and that
 it will not use this program in any manner prohibited above.
 ---------------------------------------------------------------
  

 Cite this work as:
 Gaussian 16, Revision A.03,
 M. J. Frisch, G. W. Trucks, H. B. Schlegel, G. E. Scuseria, 
 M. A. Robb, J. R. Cheeseman, G. Scalmani, V. Barone, 
 G. A. Petersson, H. Nakatsuji, X. Li, M. Caricato, A. V. Marenich, 
 J. Bloino, B. G. Janesko, R. Gomperts, B. Mennucci, H. P. Hratchian, 
 J. V. Ortiz, A. F. Izmaylov, J. L. Sonnenberg, D. Williams-Young, 
 F. Ding, F. Lipparini, F. Egidi, J. Goings, B. Peng, A. Petrone, 
 T. Henderson, D. Ranasinghe, V. G. Zakrzewski, J. Gao, N. Rega, 
 G. Zheng, W. Liang, M. Hada, M. Ehara, K. Toyota, R. Fukuda, 
 J. Hasegawa, M. Ishida, T. Nakajima, Y. Honda, O. Kitao, H. Nakai, 
 T. Vreven, K. Throssell, J. A. Montgomery, Jr., J. E. Peralta, 
 F. Ogliaro, M. J. Bearpark, J. J. Heyd, E. N. Brothers, K. N. Kudin, 
 V. N. Staroverov, T. A. Keith, R. Kobayashi, J. Normand, 
 K. Raghavachari, A. P. Rendell, J. C. Burant, S. S. Iyengar, 
 J. Tomasi, M. Cossi, J. M. Millam, M. Klene, C. Adamo, R. Cammi, 
 J. W. Ochterski, R. L. Martin, K. Morokuma, O. Farkas, 
 J. B. Foresman, and D. J. Fox, Gaussian, Inc., Wallingford CT, 2016.
 
 ******************************************
 Gaussian 16:  ES64L-G16RevA.03 25-Dec-2016
                31-Oct-2019 
 ******************************************
 %chk=carbene.chk
 %nproc=24
 Will use up to   24 processors via shared memory.
 ----------------------------------------------------------------------
 #p b3lyp/6-31g* em=gd3bj opt=(ts,calcfc,noeigen) freq scrf=(smd,solven
 t=benzene)
 ----------------------------------------------------------------------
 1/5=1,10=4,11=1,18=20,26=3,38=1/1,3;
 2/9=110,12=2,17=6,18=5,40=1/2;
 3/5=1,6=6,7=1,11=2,25=1,30=1,70=32201,71=2,72=12,74=-5,124=41,140=1/1,2,3;
 4//1;
 5/5=2,38=5,53=12/2;
 8/6=4,10=90,11=11/1;
 11/6=1,8=1,9=11,15=111,16=1/1,2,10;
 10/6=1,13=1/2;
 6/7=2,8=2,9=2,10=2,28=1/1;
 7/10=1,18=20,25=1/1,2,3,16;
 1/5=1,10=4,11=1,18=20,26=3/3(2);
 2/9=110/2;
 99//99;
 2/9=110/2;
 3/5=1,6=6,7=1,11=2,25=1,30=1,70=32205,71=1,72=12,74=-5,124=41/1,2,3;
 4/5=5,16=3,69=1/1;
 5/5=2,38=5,53=12/2;
 7//1,2,3,16;
 1/5=1,11=1,18=20,26=3/3(-5);
 2/9=110/2;
 6/7=2,8=2,9=2,10=2,19=2,28=1/1;
 99/9=1/99;
 Leave Link    1 at Thu Oct 31 05:26:04 2019, MaxMem=           0 cpu:               2.7 elap:               0.1
 (Enter /usr/g16/l101.exe)
 -------------------
 Title Card Required
 -------------------
 Symbolic Z-matrix:
 Charge =  0 Multiplicity = 1
 C                    -0.29428  -0.26367  -1.51786 
 C                     1.55889   1.06088  -1.74841 
 C                     0.50395   1.88157  -1.56926 
 H                     2.53135   1.37809  -2.06241 
 H                     0.52263   2.94048  -1.72178 
 N                    -0.67999   1.11542  -1.16312 
 N                     1.17913  -0.33121  -1.47961 
 C                    -0.93849   1.2308    0.27937 
 H                    -1.15876   2.24941   0.52189 
 H                    -1.77157   0.61323   0.54295 
 H                    -0.07328   0.91375   0.82324 
 C                     1.74426  -1.26288  -2.46629 
 H                     1.42585  -0.97941  -3.4477 
 H                     2.81258  -1.23186  -2.41507 
 H                     1.40569  -2.25552  -2.25429 
 H                    -0.99888  -0.98297  -2.36859 
 H                    -1.04254  -1.29611  -1.19379 
 
 Add virtual bond connecting atoms H17        and H16        Dist= 2.30D+00.
 Add virtual bond connecting atoms H16        and C1         Dist= 2.49D+00.
 Add virtual bond connecting atoms H17        and C1         Dist= 2.49D+00.
 ITRead=  0  0  0  0  0  0  0  0  0  0  0  0  0  0  0  0  0
 MicOpt= -1 -1 -1 -1 -1 -1 -1 -1 -1 -1 -1 -1 -1 -1 -1 -1 -1
 NAtoms=     17 NQM=       17 NQMF=       0 NMMI=      0 NMMIF=      0
                NMic=       0 NMicF=      0.
                    Isotopes and Nuclear Properties:
 (Nuclear quadrupole moments (NQMom) in fm**2, nuclear magnetic moments (NMagM)
  in nuclear magnetons)

  Atom         1           2           3           4           5           6           7           8           9          10
 IAtWgt=          12          12          12           1           1          14          14          12           1           1
 AtmWgt=  12.0000000  12.0000000  12.0000000   1.0078250   1.0078250  14.0030740  14.0030740  12.0000000   1.0078250   1.0078250
 NucSpn=           0           0           0           1           1           2           2           0           1           1
 AtZEff=  -0.0000000  -0.0000000  -0.0000000  -0.0000000  -0.0000000  -0.0000000  -0.0000000  -0.0000000  -0.0000000  -0.0000000
 NQMom=    0.0000000   0.0000000   0.0000000   0.0000000   0.0000000   2.0440000   2.0440000   0.0000000   0.0000000   0.0000000
 NMagM=    0.0000000   0.0000000   0.0000000   2.7928460   2.7928460   0.4037610   0.4037610   0.0000000   2.7928460   2.7928460
 AtZNuc=   6.0000000   6.0000000   6.0000000   1.0000000   1.0000000   7.0000000   7.0000000   6.0000000   1.0000000   1.0000000

  Atom        11          12          13          14          15          16          17
 IAtWgt=           1          12           1           1           1           1           1
 AtmWgt=   1.0078250  12.0000000   1.0078250   1.0078250   1.0078250   1.0078250   1.0078250
 NucSpn=           1           0           1           1           1           1           1
 AtZEff=  -0.0000000  -0.0000000  -0.0000000  -0.0000000  -0.0000000  -0.0000000  -0.0000000
 NQMom=    0.0000000   0.0000000   0.0000000   0.0000000   0.0000000   0.0000000   0.0000000
 NMagM=    2.7928460   0.0000000   2.7928460   2.7928460   2.7928460   2.7928460   2.7928460
 AtZNuc=   1.0000000   6.0000000   1.0000000   1.0000000   1.0000000   1.0000000   1.0000000
 Leave Link  101 at Thu Oct 31 05:26:04 2019, MaxMem=   140000000 cpu:               2.7 elap:               0.1
 (Enter /usr/g16/l103.exe)

 GradGradGradGradGradGradGradGradGradGradGradGradGradGradGradGradGradGrad
 Berny optimization.
 Initialization pass.
                           ----------------------------
                           !    Initial Parameters    !
                           ! (Angstroms and Degrees)  !
 --------------------------                            --------------------------
 ! Name  Definition              Value          Derivative Info.                !
 --------------------------------------------------------------------------------
 ! R1    R(1,6)                  1.4753         calculate D2E/DX2 analytically  !
 ! R2    R(1,7)                  1.4755         calculate D2E/DX2 analytically  !
 ! R3    R(1,16)                 1.3182         calculate D2E/DX2 analytically  !
 ! R4    R(1,17)                 1.3156         calculate D2E/DX2 analytically  !
 ! R5    R(2,3)                  1.3485         calculate D2E/DX2 analytically  !
 ! R6    R(2,4)                  1.07           calculate D2E/DX2 analytically  !
 ! R7    R(2,7)                  1.4678         calculate D2E/DX2 analytically  !
 ! R8    R(3,5)                  1.07           calculate D2E/DX2 analytically  !
 ! R9    R(3,6)                  1.4675         calculate D2E/DX2 analytically  !
 ! R10   R(6,8)                  1.47           calculate D2E/DX2 analytically  !
 ! R11   R(7,12)                 1.47           calculate D2E/DX2 analytically  !
 ! R12   R(8,9)                  1.07           calculate D2E/DX2 analytically  !
 ! R13   R(8,10)                 1.07           calculate D2E/DX2 analytically  !
 ! R14   R(8,11)                 1.07           calculate D2E/DX2 analytically  !
 ! R15   R(12,13)                1.07           calculate D2E/DX2 analytically  !
 ! R16   R(12,14)                1.07           calculate D2E/DX2 analytically  !
 ! R17   R(12,15)                1.07           calculate D2E/DX2 analytically  !
 ! R18   R(16,17)                1.2166         calculate D2E/DX2 analytically  !
 ! A1    A(6,1,7)              107.3163         calculate D2E/DX2 analytically  !
 ! A2    A(6,1,16)             121.7039         calculate D2E/DX2 analytically  !
 ! A3    A(6,1,17)             121.7124         calculate D2E/DX2 analytically  !
 ! A4    A(7,1,16)             121.7039         calculate D2E/DX2 analytically  !
 ! A5    A(7,1,17)             121.7124         calculate D2E/DX2 analytically  !
 ! A6    A(3,2,4)              124.7187         calculate D2E/DX2 analytically  !
 ! A7    A(3,2,7)              110.516          calculate D2E/DX2 analytically  !
 ! A8    A(4,2,7)              124.7539         calculate D2E/DX2 analytically  !
 ! A9    A(2,3,5)              124.7279         calculate D2E/DX2 analytically  !
 ! A10   A(2,3,6)              110.4972         calculate D2E/DX2 analytically  !
 ! A11   A(5,3,6)              124.7635         calculate D2E/DX2 analytically  !
 ! A12   A(1,6,3)              102.1549         calculate D2E/DX2 analytically  !
 ! A13   A(1,6,8)              110.812          calculate D2E/DX2 analytically  !
 ! A14   A(3,6,8)              111.8671         calculate D2E/DX2 analytically  !
 ! A15   A(1,7,2)              102.1344         calculate D2E/DX2 analytically  !
 ! A16   A(1,7,12)             113.2986         calculate D2E/DX2 analytically  !
 ! A17   A(2,7,12)             112.2545         calculate D2E/DX2 analytically  !
 ! A18   A(6,8,9)              109.4712         calculate D2E/DX2 analytically  !
 ! A19   A(6,8,10)             109.4712         calculate D2E/DX2 analytically  !
 ! A20   A(6,8,11)             109.4712         calculate D2E/DX2 analytically  !
 ! A21   A(9,8,10)             109.4712         calculate D2E/DX2 analytically  !
 ! A22   A(9,8,11)             109.4712         calculate D2E/DX2 analytically  !
 ! A23   A(10,8,11)            109.4712         calculate D2E/DX2 analytically  !
 ! A24   A(7,12,13)            109.4712         calculate D2E/DX2 analytically  !
 ! A25   A(7,12,14)            109.4712         calculate D2E/DX2 analytically  !
 ! A26   A(7,12,15)            109.4712         calculate D2E/DX2 analytically  !
 ! A27   A(13,12,14)           109.4712         calculate D2E/DX2 analytically  !
 ! A28   A(13,12,15)           109.4712         calculate D2E/DX2 analytically  !
 ! A29   A(14,12,15)           109.4712         calculate D2E/DX2 analytically  !
 ! D1    D(7,1,6,3)             26.2213         calculate D2E/DX2 analytically  !
 ! D2    D(7,1,6,8)            -93.0836         calculate D2E/DX2 analytically  !
 ! D3    D(16,1,6,3)          -120.8785         calculate D2E/DX2 analytically  !
 ! D4    D(16,1,6,8)           119.8166         calculate D2E/DX2 analytically  !
 ! D5    D(17,1,6,3)           173.3506         calculate D2E/DX2 analytically  !
 ! D6    D(17,1,6,8)            54.0456         calculate D2E/DX2 analytically  !
 ! D7    D(6,1,7,2)            -26.1974         calculate D2E/DX2 analytically  !
 ! D8    D(6,1,7,12)          -147.1521         calculate D2E/DX2 analytically  !
 ! D9    D(16,1,7,2)           120.9024         calculate D2E/DX2 analytically  !
 ! D10   D(16,1,7,12)           -0.0523         calculate D2E/DX2 analytically  !
 ! D11   D(17,1,7,2)          -173.3266         calculate D2E/DX2 analytically  !
 ! D12   D(17,1,7,12)           65.7186         calculate D2E/DX2 analytically  !
 ! D13   D(4,2,3,5)              0.0327         calculate D2E/DX2 analytically  !
 ! D14   D(4,2,3,6)            178.8526         calculate D2E/DX2 analytically  !
 ! D15   D(7,2,3,5)           -178.7869         calculate D2E/DX2 analytically  !
 ! D16   D(7,2,3,6)              0.033          calculate D2E/DX2 analytically  !
 ! D17   D(3,2,7,1)             16.199          calculate D2E/DX2 analytically  !
 ! D18   D(3,2,7,12)           137.8744         calculate D2E/DX2 analytically  !
 ! D19   D(4,2,7,1)           -162.62           calculate D2E/DX2 analytically  !
 ! D20   D(4,2,7,12)           -40.9446         calculate D2E/DX2 analytically  !
 ! D21   D(2,3,6,1)            -16.2534         calculate D2E/DX2 analytically  !
 ! D22   D(2,3,6,8)            102.3058         calculate D2E/DX2 analytically  !
 ! D23   D(5,3,6,1)            162.566          calculate D2E/DX2 analytically  !
 ! D24   D(5,3,6,8)            -78.8748         calculate D2E/DX2 analytically  !
 ! D25   D(1,6,8,9)            176.6412         calculate D2E/DX2 analytically  !
 ! D26   D(1,6,8,10)           -63.3588         calculate D2E/DX2 analytically  !
 ! D27   D(1,6,8,11)            56.6412         calculate D2E/DX2 analytically  !
 ! D28   D(3,6,8,9)             63.3588         calculate D2E/DX2 analytically  !
 ! D29   D(3,6,8,10)          -176.6412         calculate D2E/DX2 analytically  !
 ! D30   D(3,6,8,11)           -56.6412         calculate D2E/DX2 analytically  !
 ! D31   D(1,7,12,13)           57.5281         calculate D2E/DX2 analytically  !
 ! D32   D(1,7,12,14)          177.5281         calculate D2E/DX2 analytically  !
 ! D33   D(1,7,12,15)          -62.4719         calculate D2E/DX2 analytically  !
 ! D34   D(2,7,12,13)          -57.5281         calculate D2E/DX2 analytically  !
 ! D35   D(2,7,12,14)           62.4719         calculate D2E/DX2 analytically  !
 ! D36   D(2,7,12,15)         -177.5281         calculate D2E/DX2 analytically  !
 --------------------------------------------------------------------------------
 Trust Radius=3.00D-01 FncErr=1.00D-07 GrdErr=1.00D-06 EigMax=2.50D+02 EigMin=1.00D-04
 Number of steps in this run=     93 maximum allowed number of steps=    102.
 Search for a saddle point of order  1.
 GradGradGradGradGradGradGradGradGradGradGradGradGradGradGradGradGradGrad

 Leave Link  103 at Thu Oct 31 05:26:04 2019, MaxMem=   140000000 cpu:               0.5 elap:               0.0
 (Enter /usr/g16/l202.exe)
                          Input orientation:                          
 ---------------------------------------------------------------------
 Center     Atomic      Atomic             Coordinates (Angstroms)
 Number     Number       Type             X           Y           Z
 ---------------------------------------------------------------------
      1          6           0       -0.294283   -0.263669   -1.517855
      2          6           0        1.558889    1.060884   -1.748406
      3          6           0        0.503947    1.881573   -1.569259
      4          1           0        2.531351    1.378093   -2.062407
      5          1           0        0.522627    2.940482   -1.721777
      6          7           0       -0.679995    1.115416   -1.163116
      7          7           0        1.179130   -0.331213   -1.479612
      8          6           0       -0.938485    1.230804    0.279371
      9          1           0       -1.158759    2.249413    0.521887
     10          1           0       -1.771570    0.613233    0.542954
     11          1           0       -0.073279    0.913754    0.823245
     12          6           0        1.744256   -1.262880   -2.466287
     13          1           0        1.425852   -0.979415   -3.447698
     14          1           0        2.812579   -1.231861   -2.415068
     15          1           0        1.405688   -2.255517   -2.254290
     16          1           0       -0.998881   -0.982974   -2.368593
     17          1           0       -1.042543   -1.296111   -1.193793
 ---------------------------------------------------------------------
                    Distance matrix (angstroms):
                    1          2          3          4          5
     1  C    0.000000
     2  C    2.289507   0.000000
     3  C    2.289514   1.348527   0.000000
     4  H    3.313024   1.070000   2.146405   0.000000
     5  H    3.312931   2.146494   1.070000   2.567501   0.000000
     6  N    1.475293   2.314765   1.467537   3.345215   2.255940
     7  N    1.475456   1.467788   2.315239   2.256075   3.345688
     8  C    2.424555   3.221433   2.433422   4.188720   3.010389
     9  H    3.350142   3.735297   2.696811   4.588539   2.887674
    10  H    2.682959   4.067269   3.353819   5.088029   3.975982
    11  H    2.629813   3.049427   2.644605   3.914932   3.307546
    12  C    2.460404   2.439179   3.497229   2.785206   4.440150
    13  H    2.682433   2.658592   3.544530   2.949407   4.377238
    14  H    3.375645   2.696823   3.967196   2.648644   4.809675
    15  H    2.720238   3.358259   4.289279   3.808813   5.297336
    16  H    1.318185   3.332293   3.332125   4.258042   4.257566
    17  H    1.315616   3.553937   3.553910   4.547370   4.547224
                    6          7          8          9         10
     6  N    0.000000
     7  N    2.376815   0.000000
     8  C    1.470000   3.165156   0.000000
     9  H    2.086720   4.016386   1.070000   0.000000
    10  H    2.086720   3.699916   1.070000   1.747303   0.000000
    11  H    2.086720   2.902003   1.070000   1.747303   1.747303
    12  C    3.637518   1.470000   4.577576   5.449118   4.993633
    13  H    3.747295   2.086720   4.936213   5.732639   5.355869
    14  H    4.390349   2.086720   5.234042   6.042888   5.759226
    15  H    4.111438   2.086720   4.906018   5.880301   5.113635
    16  H    2.440923   2.441068   3.451981   4.339212   3.409110
    17  H    2.438820   2.438965   2.926830   3.940533   2.682044
                   11         12         13         14         15
    11  H    0.000000
    12  C    4.343063   0.000000
    13  H    4.906367   1.070000   0.000000
    14  H    4.839268   1.070000   1.747303   0.000000
    15  H    4.658631   1.070000   1.747303   1.747303   0.000000
    16  H    3.826505   2.759111   2.654018   3.819860   2.722936
    17  H    3.145062   3.063755   3.357582   4.044454   2.835303
                   16         17
    16  H    0.000000
    17  H    1.216600   0.000000
 Stoichiometry    C5H10N2
 Framework group  C1[X(C5H10N2)]
 Deg. of freedom    45
 Full point group                 C1      NOp   1
 Largest Abelian subgroup         C1      NOp   1
 Largest concise Abelian subgroup C1      NOp   1
                         Standard orientation:                         
 ---------------------------------------------------------------------
 Center     Atomic      Atomic             Coordinates (Angstroms)
 Number     Number       Type             X           Y           Z
 ---------------------------------------------------------------------
      1          6           0        0.035708   -0.927909   -0.366905
      2          6           0        0.523407    1.244553    0.166387
      3          6           0       -0.707850    1.237436   -0.383598
      4          1           0        1.101962    2.124874    0.354026
      5          1           0       -1.242062    2.111189   -0.693555
      6          7           0       -1.200420   -0.137915   -0.523064
      7          7           0        0.970023   -0.125479    0.445579
      8          6           0       -2.174302   -0.479483    0.523733
      9          1           0       -3.037151    0.145663    0.425832
     10          1           0       -2.463146   -1.504660    0.421356
     11          1           0       -1.731489   -0.328076    1.485966
     12          6           0        2.380121   -0.335296    0.087107
     13          1           0        2.522506   -0.107632   -0.948652
     14          1           0        2.998237    0.304880    0.681250
     15          1           0        2.646016   -1.355861    0.267792
     16          1           0        0.462441   -1.740838   -1.312768
     17          1           0        0.012963   -2.241584   -0.299191
 ---------------------------------------------------------------------
 Rotational constants (GHZ):           5.4079528           2.1832953           1.7746674
 Leave Link  202 at Thu Oct 31 05:26:04 2019, MaxMem=   140000000 cpu:               0.2 elap:               0.0
 (Enter /usr/g16/l301.exe)
 Standard basis: 6-31G(d) (6D, 7F)
 Ernie: Thresh=  0.10000D-02 Tol=  0.10000D-05 Strict=F.
 There are   125 symmetry adapted cartesian basis functions of A   symmetry.
 There are   125 symmetry adapted basis functions of A   symmetry.
   125 basis functions,   236 primitive gaussians,   125 cartesian basis functions
    27 alpha electrons       27 beta electrons
       nuclear repulsion energy       314.2325018565 Hartrees.
 IExCor=  402 DFT=T Ex+Corr=B3LYP ExCW=0 ScaHFX=  0.200000
 ScaDFX=  0.800000  0.720000  1.000000  0.810000 ScalE2=  1.000000  1.000000
 IRadAn=      5 IRanWt=     -1 IRanGd=            0 ICorTp=0 IEmpDi=141
 NAtoms=   17 NActive=   17 NUniq=   17 SFac= 1.00D+00 NAtFMM=   60 NAOKFM=F Big=F
 Integral buffers will be    131072 words long.
 Raffenetti 2 integral format.
 Two-electron integral symmetry is turned on.
 R6Disp:  Grimme-D3(BJ) Dispersion energy=       -0.0247077954 Hartrees.
 Nuclear repulsion after empirical dispersion term =      314.2077940611 Hartrees.
 Force inversion solution in PCM.
 ------------------------------------------------------------------------------
 Polarizable Continuum Model (PCM)
 =================================
 Model                : PCM.
 Atomic radii         : SMD-Coulomb.
 Polarization charges : Total charges.
 Charge compensation  : None.
 Solution method      : Matrix inversion.
 Cavity type          : VdW (van der Waals Surface) (Alpha=1.000).
 Cavity algorithm     : GePol (No added spheres)
                        Default sphere list used, NSphG=   17.
                        Lebedev-Laikov grids with approx.  5.0 points / Ang**2.
                        Smoothing algorithm: York/Karplus (Gamma=1.0000).
                        Polarization charges: spherical gaussians, with
                                              point-specific exponents (IZeta= 3).
                        Self-potential: point-specific (ISelfS= 7).
                        Self-field    : sphere-specific E.n sum rule (ISelfD= 2).
 1st derivatives      : Analytical E(r).r(x)/FMM algorithm (CHGder, D1EAlg=3).
                        Cavity 1st derivative terms included.
 2nd derivatives      : Analytical E(r).r(xy)/FMM algorithm (CHGder, D2EAlg=3).
                        Cavity 2nd derivative terms included.
 Solvent              : Benzene, Eps=   2.270600 Eps(inf)=   2.253301
 ------------------------------------------------------------------------------
 Spheres list:
 ISph  on   Nord     Re0    Alpha      Xe            Ye            Ze
    1   C      1    1.8500  1.000      0.035708     -0.927909     -0.366905
    2   C      2    1.8500  1.000      0.523407      1.244553      0.166387
    3   C      3    1.8500  1.000     -0.707850      1.237436     -0.383598
    4   H      4    1.2000  1.000      1.101962      2.124874      0.354026
    5   H      5    1.2000  1.000     -1.242062      2.111189     -0.693555
    6   N      6    1.8900  1.000     -1.200420     -0.137915     -0.523064
    7   N      7    1.8900  1.000      0.970023     -0.125479      0.445579
    8   C      8    1.8500  1.000     -2.174302     -0.479483      0.523733
    9   H      9    1.2000  1.000     -3.037151      0.145663      0.425832
   10   H     10    1.2000  1.000     -2.463146     -1.504660      0.421356
   11   H     11    1.2000  1.000     -1.731489     -0.328076      1.485966
   12   C     12    1.8500  1.000      2.380121     -0.335296      0.087107
   13   H     13    1.2000  1.000      2.522506     -0.107632     -0.948652
   14   H     14    1.2000  1.000      2.998237      0.304880      0.681250
   15   H     15    1.2000  1.000      2.646016     -1.355861      0.267792
   16   H     16    1.2000  1.000      0.462441     -1.740838     -1.312768
   17   H     17    1.2000  1.000      0.012963     -2.241584     -0.299191
 ------------------------------------------------------------------------------
 GePol: Number of generator spheres                  =      17
 GePol: Total number of spheres                      =      17
 GePol: Number of exposed spheres                    =      17 (100.00%)
 GePol: Number of points                             =    1245
 GePol: Average weight of points                     =       0.11
 GePol: Minimum weight of points                     =   0.48D-09
 GePol: Maximum weight of points                     =    0.17992
 GePol: Number of points with low weight             =      58
 GePol: Fraction of low-weight points (<1% of avg)   =       4.66%
 GePol: Cavity surface area                          =    142.044 Ang**2
 GePol: Cavity volume                                =    118.474 Ang**3
 ------------------------------------------------------------------------------
 Atomic radii for non-electrostatic terms: SMD-CDS.
 ------------------------------------------------------------------------------
 PCM non-electrostatic energy =        -0.0043288018 Hartrees.
 Nuclear repulsion after PCM non-electrostatic terms =      314.2034652593 Hartrees.
 Leave Link  301 at Thu Oct 31 05:26:04 2019, MaxMem=   140000000 cpu:               2.5 elap:               0.1
 (Enter /usr/g16/l302.exe)
 NPDir=0 NMtPBC=     1 NCelOv=     1 NCel=       1 NClECP=     1 NCelD=      1
         NCelK=      1 NCelE2=     1 NClLst=     1 CellRange=     0.0.
 One-electron integrals computed using PRISM.
 One-electron integral symmetry used in STVInt
 NBasis=   125 RedAO= T EigKep=  2.07D-03  NBF=   125
 NBsUse=   125 1.00D-06 EigRej= -1.00D+00 NBFU=   125
 Precomputing XC quadrature grid using
 IXCGrd= 4 IRadAn=           5 IRanWt=          -1 IRanGd=           0 AccXCQ= 0.00D+00.
 Generated NRdTot=       0 NPtTot=           0 NUsed=           0 NTot=          32
 NSgBfM=   125   125   125   125   125 MxSgAt=    17 MxSgA2=    17.
 Leave Link  302 at Thu Oct 31 05:26:05 2019, MaxMem=   140000000 cpu:               4.2 elap:               0.2
 (Enter /usr/g16/l303.exe)
 DipDrv:  MaxL=1.
 Leave Link  303 at Thu Oct 31 05:26:05 2019, MaxMem=   140000000 cpu:               1.7 elap:               0.1
 (Enter /usr/g16/l401.exe)
 ExpMin= 1.61D-01 ExpMax= 4.17D+03 ExpMxC= 6.27D+02 IAcc=3 IRadAn=         5 AccDes= 0.00D+00
 Harris functional with IExCor=  402 and IRadAn=       5 diagonalized for initial guess.
 HarFok:  IExCor=  402 AccDes= 0.00D+00 IRadAn=         5 IDoV= 1 UseB2=F ITyADJ=14
 ICtDFT=  3500011 ScaDFX=  1.000000  1.000000  1.000000  1.000000
 FoFCou: FMM=F IPFlag=           0 FMFlag=      100000 FMFlg1=           0
         NFxFlg=           0 DoJE=T BraDBF=F KetDBF=T FulRan=T
         wScrn=  0.000000 ICntrl=       500 IOpCl=  0 I1Cent=   200000004 NGrid=           0
         NMat0=    1 NMatS0=      1 NMatT0=    0 NMatD0=    1 NMtDS0=    0 NMtDT0=    0
 Petite list used in FoFCou.
 Harris En= -305.892578238215    
 JPrj=0 DoOrth=F DoCkMO=F.
 Leave Link  401 at Thu Oct 31 05:26:05 2019, MaxMem=   140000000 cpu:               9.3 elap:               0.4
 (Enter /usr/g16/l502.exe)
 Integral symmetry usage will be decided dynamically.
 Closed shell SCF:
 Using DIIS extrapolation, IDIIS=  1040.
 NGot=   140000000 LenX=   139964128 LenY=   139948062
 Requested convergence on RMS density matrix=1.00D-08 within 128 cycles.
 Requested convergence on MAX density matrix=1.00D-06.
 Requested convergence on             energy=1.00D-06.
 No special actions if energy rises.
 Fock matrices will be formed incrementally for  20 cycles.

 Cycle   1  Pass 1  IDiag  1:
 FoFJK:  IHMeth= 1 ICntrl=       0 DoSepK=F KAlg= 0 I1Cent=           0 FoldK=F
 IRaf= 980000000 NMat=       1 IRICut=       1 DoRegI=T DoRafI=F ISym2E= 0 IDoP0=0 IntGTp=1.
 FoFCou: FMM=F IPFlag=           0 FMFlag=      100000 FMFlg1=           0
         NFxFlg=           0 DoJE=F BraDBF=F KetDBF=F FulRan=T
         wScrn=  0.000000 ICntrl=         0 IOpCl=  0 I1Cent=           0 NGrid=           0
         NMat0=    1 NMatS0=      1 NMatT0=    0 NMatD0=    1 NMtDS0=    0 NMtDT0=    0
 Symmetry not used in FoFCou.
 Inv3:  Mode=1 IEnd=     4650075.
 Iteration    1 A*A^-1 deviation from unit magnitude is 4.44D-15 for   1212.
 Iteration    1 A*A^-1 deviation from orthogonality  is 1.96D-15 for   1212    943.
 Iteration    1 A^-1*A deviation from unit magnitude is 4.22D-15 for   1212.
 Iteration    1 A^-1*A deviation from orthogonality  is 1.54D-15 for   1239   1210.
 E= -305.747886884875    
 DIIS: error= 3.50D-02 at cycle   1 NSaved=   1.
 NSaved= 1 IEnMin= 1 EnMin= -305.747886884875     IErMin= 1 ErrMin= 3.50D-02
 ErrMax= 3.50D-02  0.00D+00 EMaxC= 1.00D-01 BMatC= 1.47D-01 BMatP= 1.47D-01
 IDIUse=3 WtCom= 6.50D-01 WtEn= 3.50D-01
 Coeff-Com:  0.100D+01
 Coeff-En:   0.100D+01
 Coeff:      0.100D+01
 Gap=     0.239 Goal=   None    Shift=    0.000
 GapD=    0.239 DampG=1.000 DampE=0.500 DampFc=0.5000 IDamp=-1.
 Damping current iteration by 5.00D-01
 RMSDP=7.10D-03 MaxDP=1.93D-01              OVMax= 1.81D-01

 Cycle   2  Pass 1  IDiag  1:
 RMSU=  3.51D-03    CP:  9.81D-01
 E= -305.823554484284     Delta-E=       -0.075667599408 Rises=F Damp=T
 DIIS: error= 5.48D-03 at cycle   2 NSaved=   2.
 NSaved= 2 IEnMin= 2 EnMin= -305.823554484284     IErMin= 2 ErrMin= 5.48D-03
 ErrMax= 5.48D-03  0.00D+00 EMaxC= 1.00D-01 BMatC= 8.75D-03 BMatP= 1.47D-01
 IDIUse=3 WtCom= 9.45D-01 WtEn= 5.48D-02
 Coeff-Com:  0.138D-01 0.986D+00
 Coeff-En:   0.250D-01 0.975D+00
 Coeff:      0.144D-01 0.986D+00
 Gap=     0.219 Goal=   None    Shift=    0.000
 RMSDP=1.42D-03 MaxDP=2.75D-02 DE=-7.57D-02 OVMax= 1.19D-01

 Cycle   3  Pass 1  IDiag  1:
 RMSU=  1.38D-03    CP:  9.78D-01  9.09D-01
 E= -305.905038838739     Delta-E=       -0.081484354455 Rises=F Damp=F
 DIIS: error= 3.10D-03 at cycle   3 NSaved=   3.
 NSaved= 3 IEnMin= 3 EnMin= -305.905038838739     IErMin= 3 ErrMin= 3.10D-03
 ErrMax= 3.10D-03  0.00D+00 EMaxC= 1.00D-01 BMatC= 3.22D-03 BMatP= 8.75D-03
 IDIUse=3 WtCom= 9.69D-01 WtEn= 3.10D-02
 Coeff-Com: -0.318D-01 0.356D+00 0.676D+00
 Coeff-En:   0.000D+00 0.000D+00 0.100D+01
 Coeff:     -0.308D-01 0.345D+00 0.686D+00
 Gap=     0.195 Goal=   None    Shift=    0.000
 RMSDP=7.99D-04 MaxDP=2.44D-02 DE=-8.15D-02 OVMax= 2.65D-02

 Cycle   4  Pass 1  IDiag  1:
 RMSU=  5.20D-04    CP:  9.78D-01  1.02D+00  6.56D-01
 E= -305.906816896110     Delta-E=       -0.001778057371 Rises=F Damp=F
 DIIS: error= 2.02D-03 at cycle   4 NSaved=   4.
 NSaved= 4 IEnMin= 4 EnMin= -305.906816896110     IErMin= 4 ErrMin= 2.02D-03
 ErrMax= 2.02D-03  0.00D+00 EMaxC= 1.00D-01 BMatC= 1.52D-03 BMatP= 3.22D-03
 IDIUse=3 WtCom= 9.80D-01 WtEn= 2.02D-02
 Coeff-Com: -0.185D-01 0.973D-01 0.422D+00 0.500D+00
 Coeff-En:   0.000D+00 0.000D+00 0.324D+00 0.676D+00
 Coeff:     -0.181D-01 0.954D-01 0.420D+00 0.503D+00
 Gap=     0.200 Goal=   None    Shift=    0.000
 RMSDP=3.38D-04 MaxDP=8.72D-03 DE=-1.78D-03 OVMax= 1.13D-02

 Cycle   5  Pass 1  IDiag  1:
 RMSU=  1.29D-04    CP:  9.78D-01  9.85D-01  7.60D-01  5.09D-01
 E= -305.908223932277     Delta-E=       -0.001407036166 Rises=F Damp=F
 DIIS: error= 2.98D-04 at cycle   5 NSaved=   5.
 NSaved= 5 IEnMin= 5 EnMin= -305.908223932277     IErMin= 5 ErrMin= 2.98D-04
 ErrMax= 2.98D-04  0.00D+00 EMaxC= 1.00D-01 BMatC= 3.24D-05 BMatP= 1.52D-03
 IDIUse=3 WtCom= 9.97D-01 WtEn= 2.98D-03
 Coeff-Com: -0.381D-02 0.940D-02 0.114D+00 0.199D+00 0.681D+00
 Coeff-En:   0.000D+00 0.000D+00 0.000D+00 0.000D+00 0.100D+01
 Coeff:     -0.380D-02 0.937D-02 0.114D+00 0.198D+00 0.682D+00
 Gap=     0.199 Goal=   None    Shift=    0.000
 RMSDP=5.96D-05 MaxDP=1.47D-03 DE=-1.41D-03 OVMax= 2.52D-03

 Cycle   6  Pass 1  IDiag  1:
 RMSU=  3.43D-05    CP:  9.78D-01  9.86D-01  7.67D-01  5.62D-01  6.98D-01
 E= -305.908248023764     Delta-E=       -0.000024091487 Rises=F Damp=F
 DIIS: error= 1.49D-04 at cycle   6 NSaved=   6.
 NSaved= 6 IEnMin= 6 EnMin= -305.908248023764     IErMin= 6 ErrMin= 1.49D-04
 ErrMax= 1.49D-04  0.00D+00 EMaxC= 1.00D-01 BMatC= 7.05D-06 BMatP= 3.24D-05
 IDIUse=3 WtCom= 9.99D-01 WtEn= 1.49D-03
 Coeff-Com: -0.176D-02 0.244D-02 0.597D-01 0.111D+00 0.441D+00 0.388D+00
 Coeff-En:   0.000D+00 0.000D+00 0.000D+00 0.000D+00 0.118D+00 0.882D+00
 Coeff:     -0.175D-02 0.244D-02 0.596D-01 0.111D+00 0.440D+00 0.389D+00
 Gap=     0.199 Goal=   None    Shift=    0.000
 RMSDP=2.19D-05 MaxDP=6.13D-04 DE=-2.41D-05 OVMax= 1.11D-03

 Cycle   7  Pass 1  IDiag  1:
 RMSU=  1.01D-05    CP:  9.78D-01  9.86D-01  7.67D-01  5.62D-01  7.39D-01
                    CP:  4.58D-01
 E= -305.908254856709     Delta-E=       -0.000006832945 Rises=F Damp=F
 DIIS: error= 1.71D-05 at cycle   7 NSaved=   7.
 NSaved= 7 IEnMin= 7 EnMin= -305.908254856709     IErMin= 7 ErrMin= 1.71D-05
 ErrMax= 1.71D-05  0.00D+00 EMaxC= 1.00D-01 BMatC= 9.16D-08 BMatP= 7.05D-06
 IDIUse=1 WtCom= 1.00D+00 WtEn= 0.00D+00
 Coeff-Com: -0.194D-03-0.190D-03 0.922D-02 0.176D-01 0.846D-01 0.132D+00
 Coeff-Com:  0.757D+00
 Coeff:     -0.194D-03-0.190D-03 0.922D-02 0.176D-01 0.846D-01 0.132D+00
 Coeff:      0.757D+00
 Gap=     0.199 Goal=   None    Shift=    0.000
 RMSDP=3.64D-06 MaxDP=7.67D-05 DE=-6.83D-06 OVMax= 1.60D-04

 Cycle   8  Pass 1  IDiag  1:
 RMSU=  2.35D-06    CP:  9.78D-01  9.86D-01  7.68D-01  5.62D-01  7.44D-01
                    CP:  5.19D-01  8.67D-01
 E= -305.908254939672     Delta-E=       -0.000000082963 Rises=F Damp=F
 DIIS: error= 7.29D-06 at cycle   8 NSaved=   8.
 NSaved= 8 IEnMin= 8 EnMin= -305.908254939672     IErMin= 8 ErrMin= 7.29D-06
 ErrMax= 7.29D-06  0.00D+00 EMaxC= 1.00D-01 BMatC= 1.53D-08 BMatP= 9.16D-08
 IDIUse=1 WtCom= 1.00D+00 WtEn= 0.00D+00
 Coeff-Com:  0.244D-04-0.257D-03 0.457D-03 0.100D-02 0.107D-01 0.341D-01
 Coeff-Com:  0.367D+00 0.587D+00
 Coeff:      0.244D-04-0.257D-03 0.457D-03 0.100D-02 0.107D-01 0.341D-01
 Coeff:      0.367D+00 0.587D+00
 Gap=     0.199 Goal=   None    Shift=    0.000
 RMSDP=1.14D-06 MaxDP=1.98D-05 DE=-8.30D-08 OVMax= 2.27D-05

 Cycle   9  Pass 1  IDiag  1:
 RMSU=  8.00D-07    CP:  9.78D-01  9.86D-01  7.68D-01  5.62D-01  7.46D-01
                    CP:  5.16D-01  9.16D-01  7.53D-01
 E= -305.908254953096     Delta-E=       -0.000000013424 Rises=F Damp=F
 DIIS: error= 2.16D-06 at cycle   9 NSaved=   9.
 NSaved= 9 IEnMin= 9 EnMin= -305.908254953096     IErMin= 9 ErrMin= 2.16D-06
 ErrMax= 2.16D-06  0.00D+00 EMaxC= 1.00D-01 BMatC= 1.28D-09 BMatP= 1.53D-08
 IDIUse=1 WtCom= 1.00D+00 WtEn= 0.00D+00
 Coeff-Com:  0.328D-04-0.941D-04-0.843D-03-0.154D-02-0.502D-02-0.138D-02
 Coeff-Com:  0.817D-01 0.267D+00 0.660D+00
 Coeff:      0.328D-04-0.941D-04-0.843D-03-0.154D-02-0.502D-02-0.138D-02
 Coeff:      0.817D-01 0.267D+00 0.660D+00
 Gap=     0.199 Goal=   None    Shift=    0.000
 RMSDP=3.15D-07 MaxDP=5.90D-06 DE=-1.34D-08 OVMax= 8.46D-06

 Cycle  10  Pass 1  IDiag  1:
 RMSU=  1.88D-07    CP:  9.78D-01  9.86D-01  7.68D-01  5.62D-01  7.46D-01
                    CP:  5.18D-01  9.27D-01  8.10D-01  8.03D-01
 E= -305.908254954219     Delta-E=       -0.000000001123 Rises=F Damp=F
 DIIS: error= 4.82D-07 at cycle  10 NSaved=  10.
 NSaved=10 IEnMin=10 EnMin= -305.908254954219     IErMin=10 ErrMin= 4.82D-07
 ErrMax= 4.82D-07  0.00D+00 EMaxC= 1.00D-01 BMatC= 1.07D-10 BMatP= 1.28D-09
 IDIUse=1 WtCom= 1.00D+00 WtEn= 0.00D+00
 Coeff-Com:  0.154D-04-0.345D-04-0.443D-03-0.824D-03-0.307D-02-0.261D-02
 Coeff-Com:  0.244D-01 0.105D+00 0.332D+00 0.546D+00
 Coeff:      0.154D-04-0.345D-04-0.443D-03-0.824D-03-0.307D-02-0.261D-02
 Coeff:      0.244D-01 0.105D+00 0.332D+00 0.546D+00
 Gap=     0.199 Goal=   None    Shift=    0.000
 RMSDP=8.39D-08 MaxDP=1.90D-06 DE=-1.12D-09 OVMax= 2.43D-06

 Cycle  11  Pass 1  IDiag  1:
 RMSU=  6.28D-08    CP:  9.78D-01  9.86D-01  7.68D-01  5.62D-01  7.46D-01
                    CP:  5.18D-01  9.29D-01  8.19D-01  8.28D-01  7.82D-01
 E= -305.908254954315     Delta-E=       -0.000000000096 Rises=F Damp=F
 DIIS: error= 1.56D-07 at cycle  11 NSaved=  11.
 NSaved=11 IEnMin=11 EnMin= -305.908254954315     IErMin=11 ErrMin= 1.56D-07
 ErrMax= 1.56D-07  0.00D+00 EMaxC= 1.00D-01 BMatC= 5.60D-12 BMatP= 1.07D-10
 IDIUse=1 WtCom= 1.00D+00 WtEn= 0.00D+00
 Coeff-Com:  0.546D-06 0.231D-05-0.234D-04-0.582D-04-0.312D-03-0.900D-03
 Coeff-Com: -0.305D-02-0.473D-02 0.150D-01 0.180D+00 0.814D+00
 Coeff:      0.546D-06 0.231D-05-0.234D-04-0.582D-04-0.312D-03-0.900D-03
 Coeff:     -0.305D-02-0.473D-02 0.150D-01 0.180D+00 0.814D+00
 Gap=     0.199 Goal=   None    Shift=    0.000
 RMSDP=2.72D-08 MaxDP=7.11D-07 DE=-9.56D-11 OVMax= 9.01D-07

 Cycle  12  Pass 1  IDiag  1:
 RMSU=  1.46D-08    CP:  9.78D-01  9.86D-01  7.68D-01  5.62D-01  7.46D-01
                    CP:  5.18D-01  9.30D-01  8.22D-01  8.42D-01  8.45D-01
                    CP:  9.50D-01
 E= -305.908254954319     Delta-E=       -0.000000000004 Rises=F Damp=F
 DIIS: error= 1.71D-08 at cycle  12 NSaved=  12.
 NSaved=12 IEnMin=12 EnMin= -305.908254954319     IErMin=12 ErrMin= 1.71D-08
 ErrMax= 1.71D-08  0.00D+00 EMaxC= 1.00D-01 BMatC= 1.08D-13 BMatP= 5.60D-12
 IDIUse=1 WtCom= 1.00D+00 WtEn= 0.00D+00
 Coeff-Com: -0.258D-06 0.123D-05 0.746D-05 0.746D-05 0.189D-04-0.145D-03
 Coeff-Com: -0.123D-02-0.394D-02-0.631D-02 0.185D-01 0.151D+00 0.842D+00
 Coeff:     -0.258D-06 0.123D-05 0.746D-05 0.746D-05 0.189D-04-0.145D-03
 Coeff:     -0.123D-02-0.394D-02-0.631D-02 0.185D-01 0.151D+00 0.842D+00
 Gap=     0.199 Goal=   None    Shift=    0.000
 RMSDP=4.67D-09 MaxDP=7.56D-08 DE=-3.87D-12 OVMax= 1.77D-07

 Error on total polarization charges =  0.02357
 SCF Done:  E(RB3LYP) =  -305.908254954     A.U. after   12 cycles
            NFock= 12  Conv=0.47D-08     -V/T= 2.0105
 KE= 3.027154526610D+02 PE=-1.337712340068D+03 EE= 4.148851671935D+02
 SMD-CDS (non-electrostatic) energy       (kcal/mol) =      -2.72
 (included in total energy above)
 Leave Link  502 at Thu Oct 31 05:26:14 2019, MaxMem=   140000000 cpu:             197.7 elap:               8.5
 (Enter /usr/g16/l801.exe)
 DoSCS=F DFT=T ScalE2(SS,OS)=  1.000000  1.000000
 Range of M.O.s used for correlation:     1   125
 NBasis=   125 NAE=    27 NBE=    27 NFC=     0 NFV=     0
 NROrb=    125 NOA=    27 NOB=    27 NVA=    98 NVB=    98
 Leave Link  801 at Thu Oct 31 05:26:14 2019, MaxMem=   140000000 cpu:               0.4 elap:               0.0
 (Enter /usr/g16/l1101.exe)
 Using compressed storage, NAtomX=    17.
 Will process     18 centers per pass.
 R6Disp: Adding Grimme-D3(BJ) dispersion energy 1st derivatives to the gradient.
 Leave Link 1101 at Thu Oct 31 05:26:14 2019, MaxMem=   140000000 cpu:               4.6 elap:               0.2
 (Enter /usr/g16/l1102.exe)
 Symmetrizing basis deriv contribution to polar:
 IMax=3 JMax=2 DiffMx= 0.00D+00
 Leave Link 1102 at Thu Oct 31 05:26:14 2019, MaxMem=   140000000 cpu:               0.6 elap:               0.0
 (Enter /usr/g16/l1110.exe)
 Forming Gx(P) for the SCF density, NAtomX=    17.
 Integral derivatives from FoFJK, PRISM(SPDF).
 Do as many integral derivatives as possible in FoFJK.
 G2DrvN: MDV=     139998640.
 G2DrvN: will do    18 centers at a time, making    1 passes.
 Calling FoFCou, ICntrl=  3107 FMM=F I1Cent=   0 AccDes= 0.00D+00.
 FoFJK:  IHMeth= 1 ICntrl=    3107 DoSepK=F KAlg= 0 I1Cent=           0 FoldK=F
 IRaf=         0 NMat=       1 IRICut=       1 DoRegI=T DoRafI=F ISym2E= 0 IDoP0=0 IntGTp=1.
 FoFCou: FMM=F IPFlag=           0 FMFlag=      100000 FMFlg1=           0
         NFxFlg=           0 DoJE=F BraDBF=F KetDBF=F FulRan=T
         wScrn=  0.000000 ICntrl=      3107 IOpCl=  0 I1Cent=           0 NGrid=           0
         NMat0=    1 NMatS0=      1 NMatT0=    0 NMatD0=    1 NMtDS0=    0 NMtDT0=    0
 Symmetry not used in FoFCou.
 NEqPCM:  Using equilibrium solvation (IEInf=0, Eps=   2.2706, EpsInf=   2.2533)
 G2PCM: DoFxE=T DoFxN=T DoGrad=T DoDP/DQ/DG/TGxP=FFFF NFrqRd=   0 IEInf=0 SqF1=F DoCFld=F IF1Alg=4.
 GePol: Maximum number of non-zero 1st derivatives   =     238
 End of G2Drv F.D. properties file   721 does not exist.
 End of G2Drv F.D. properties file   722 does not exist.
 End of G2Drv F.D. properties file   788 does not exist.
 Leave Link 1110 at Thu Oct 31 05:26:23 2019, MaxMem=   140000000 cpu:             223.8 elap:               9.3
 (Enter /usr/g16/l1002.exe)
 Minotr:  Closed shell wavefunction.
          IDoAtm=11111111111111111
 NEqPCM:  Using equilibrium solvation (IEInf=0, Eps=   2.2706, EpsInf=   2.2533)
          Direct CPHF calculation.
          Differentiating once with respect to nuclear coordinates.
          Requested convergence is 1.0D-08 RMS, and 1.0D-07 maximum.
          Secondary convergence is 1.0D-12 RMS, and 1.0D-12 maximum.
          NewPWx=T KeepS1=F KeepF1=F KeepIn=T MapXYZ=F SortEE=F KeepMc=T.
         5032 words used for storage of precomputed grid.
 Keep R1 ints in memory in canonical form, NReq=53753585.
 FoFCou: FMM=F IPFlag=           0 FMFlag=           0 FMFlg1=           0
         NFxFlg=           0 DoJE=F BraDBF=F KetDBF=F FulRan=T
         wScrn=  0.000000 ICntrl=       600 IOpCl=  0 I1Cent=           0 NGrid=           0
         NMat0=    1 NMatS0=   7875 NMatT0=    0 NMatD0=    1 NMtDS0=    0 NMtDT0=    0
 Symmetry not used in FoFCou.
 Two-electron integral symmetry not used.
          MDV=     140000000 using IRadAn=       1.
          Solving linear equations simultaneously, MaxMat=       0.
          There are    54 degrees of freedom in the 1st order CPHF.  IDoFFX=6 NUNeed=     0.
     48 vectors produced by pass  0 Test12= 4.90D-15 1.85D-09 XBig12= 1.34D-01 1.53D-01.
 AX will form    48 AO Fock derivatives at one time.
     48 vectors produced by pass  1 Test12= 4.90D-15 1.85D-09 XBig12= 1.83D-02 3.94D-02.
     48 vectors produced by pass  2 Test12= 4.90D-15 1.85D-09 XBig12= 2.14D-04 3.35D-03.
     48 vectors produced by pass  3 Test12= 4.90D-15 1.85D-09 XBig12= 5.25D-07 9.66D-05.
     48 vectors produced by pass  4 Test12= 4.90D-15 1.85D-09 XBig12= 6.18D-10 3.07D-06.
     27 vectors produced by pass  5 Test12= 4.90D-15 1.85D-09 XBig12= 3.81D-13 7.04D-08.
      1 vectors produced by pass  6 Test12= 4.90D-15 1.85D-09 XBig12= 2.76D-16 2.66D-09.
 InvSVY:  IOpt=1 It=  1 EMax= 3.89D-16
 Solved reduced A of dimension   268 with    54 vectors.
 End of Minotr F.D. properties file   721 does not exist.
 End of Minotr F.D. properties file   722 does not exist.
 End of Minotr F.D. properties file   788 does not exist.
 Leave Link 1002 at Thu Oct 31 05:26:32 2019, MaxMem=   140000000 cpu:             207.6 elap:               8.7
 (Enter /usr/g16/l601.exe)
 Copying SCF densities to generalized density rwf, IOpCl= 0 IROHF=0.

 **********************************************************************

            Population analysis using the SCF density.

 **********************************************************************

 Orbital symmetries:
       Occupied  (A) (A) (A) (A) (A) (A) (A) (A) (A) (A) (A) (A)
                 (A) (A) (A) (A) (A) (A) (A) (A) (A) (A) (A) (A)
                 (A) (A) (A)
       Virtual   (A) (A) (A) (A) (A) (A) (A) (A) (A) (A) (A) (A)
                 (A) (A) (A) (A) (A) (A) (A) (A) (A) (A) (A) (A)
                 (A) (A) (A) (A) (A) (A) (A) (A) (A) (A) (A) (A)
                 (A) (A) (A) (A) (A) (A) (A) (A) (A) (A) (A) (A)
                 (A) (A) (A) (A) (A) (A) (A) (A) (A) (A) (A) (A)
                 (A) (A) (A) (A) (A) (A) (A) (A) (A) (A) (A) (A)
                 (A) (A) (A) (A) (A) (A) (A) (A) (A) (A) (A) (A)
                 (A) (A) (A) (A) (A) (A) (A) (A) (A) (A) (A) (A)
                 (A) (A)
 The electronic state is 1-A.
 Alpha  occ. eigenvalues --  -14.34882 -14.33936 -10.26185 -10.20669 -10.19790
 Alpha  occ. eigenvalues --  -10.19601 -10.18680  -0.96233  -0.87582  -0.74328
 Alpha  occ. eigenvalues --   -0.69802  -0.66382  -0.59117  -0.56365  -0.50646
 Alpha  occ. eigenvalues --   -0.45856  -0.44238  -0.44020  -0.41988  -0.41555
 Alpha  occ. eigenvalues --   -0.40497  -0.37848  -0.36167  -0.31449  -0.25512
 Alpha  occ. eigenvalues --   -0.24943  -0.16874
 Alpha virt. eigenvalues --    0.03019   0.04297   0.09786   0.11965   0.12978
 Alpha virt. eigenvalues --    0.14703   0.15393   0.17007   0.17295   0.18238
 Alpha virt. eigenvalues --    0.18762   0.19897   0.21134   0.22202   0.24447
 Alpha virt. eigenvalues --    0.30470   0.33785   0.39297   0.50478   0.52263
 Alpha virt. eigenvalues --    0.53383   0.54567   0.55172   0.56132   0.56960
 Alpha virt. eigenvalues --    0.60870   0.62000   0.64749   0.67999   0.68845
 Alpha virt. eigenvalues --    0.72664   0.76106   0.77254   0.78156   0.82289
 Alpha virt. eigenvalues --    0.84165   0.86612   0.87228   0.88455   0.90777
 Alpha virt. eigenvalues --    0.92400   0.93214   0.95106   0.98651   0.99078
 Alpha virt. eigenvalues --    1.00095   1.00369   1.02789   1.09575   1.10469
 Alpha virt. eigenvalues --    1.19134   1.19671   1.27949   1.38500   1.42213
 Alpha virt. eigenvalues --    1.43622   1.47619   1.55269   1.60107   1.61927
 Alpha virt. eigenvalues --    1.70806   1.80203   1.81539   1.85033   1.92017
 Alpha virt. eigenvalues --    1.92484   1.93916   1.96282   1.99664   2.01677
 Alpha virt. eigenvalues --    2.04715   2.10882   2.12995   2.17941   2.20642
 Alpha virt. eigenvalues --    2.21168   2.23330   2.27918   2.32742   2.34119
 Alpha virt. eigenvalues --    2.45103   2.52090   2.56789   2.59225   2.65145
 Alpha virt. eigenvalues --    2.68342   2.73693   2.77923   2.81295   2.91651
 Alpha virt. eigenvalues --    2.99577   4.00046   4.10227   4.17124   4.24113
 Alpha virt. eigenvalues --    4.30615   4.33040   4.43041
          Condensed to atoms (all electrons):
               1          2          3          4          5          6
     1  C    4.958152  -0.070423  -0.061716   0.005299   0.005271   0.341214
     2  C   -0.070423   4.899833   0.633125   0.363160  -0.048893  -0.062788
     3  C   -0.061716   0.633125   4.921755  -0.038979   0.378085   0.326753
     4  H    0.005299   0.363160  -0.038979   0.536134  -0.000703   0.004713
     5  H    0.005271  -0.048893   0.378085  -0.000703   0.540760  -0.038296
     6  N    0.341214  -0.062788   0.326753   0.004713  -0.038296   6.785377
     7  N    0.298093   0.310525  -0.056444  -0.037627   0.003470  -0.068134
     8  C   -0.062984  -0.004458  -0.067647  -0.000114   0.001265   0.299464
     9  H    0.006310  -0.000307  -0.001110   0.000001   0.001524  -0.035104
    10  H   -0.003143  -0.000059   0.005905   0.000009  -0.000051  -0.032197
    11  H   -0.002715   0.008180   0.000165  -0.000258  -0.000826  -0.054158
    12  C   -0.052831  -0.047999   0.001524  -0.001219  -0.000147   0.004198
    13  H    0.000716  -0.000340   0.002686   0.000895  -0.000025   0.000179
    14  H    0.004888  -0.004690   0.000007   0.002136  -0.000002  -0.000165
    15  H   -0.003538   0.005275  -0.000178  -0.000033   0.000006  -0.000032
    16  H    0.282509  -0.002313   0.004013   0.000081   0.000086  -0.031581
    17  H    0.329134   0.004660   0.002298  -0.000081  -0.000081  -0.014431
               7          8          9         10         11         12
     1  C    0.298093  -0.062984   0.006310  -0.003143  -0.002715  -0.052831
     2  C    0.310525  -0.004458  -0.000307  -0.000059   0.008180  -0.047999
     3  C   -0.056444  -0.067647  -0.001110   0.005905   0.000165   0.001524
     4  H   -0.037627  -0.000114   0.000001   0.000009  -0.000258  -0.001219
     5  H    0.003470   0.001265   0.001524  -0.000051  -0.000826  -0.000147
     6  N   -0.068134   0.299464  -0.035104  -0.032197  -0.054158   0.004198
     7  N    6.849759   0.000846  -0.000202  -0.000467   0.004212   0.299965
     8  C    0.000846   5.013539   0.374579   0.378018   0.365545  -0.000103
     9  H   -0.000202   0.374579   0.562354  -0.026908  -0.036768   0.000005
    10  H   -0.000467   0.378018  -0.026908   0.552466  -0.035289   0.000020
    11  H    0.004212   0.365545  -0.036768  -0.035289   0.599926  -0.000165
    12  C    0.299965  -0.000103   0.000005   0.000020  -0.000165   4.993353
    13  H   -0.056824   0.000041  -0.000000  -0.000003  -0.000005   0.355715
    14  H   -0.032838   0.000005  -0.000000   0.000000   0.000006   0.381526
    15  H   -0.035640   0.000003   0.000000  -0.000001  -0.000010   0.384039
    16  H   -0.044316   0.006985  -0.000251  -0.000334  -0.000657  -0.007592
    17  H   -0.017435  -0.008878   0.000444   0.002534   0.001138   0.001212
              13         14         15         16         17
     1  C    0.000716   0.004888  -0.003538   0.282509   0.329134
     2  C   -0.000340  -0.004690   0.005275  -0.002313   0.004660
     3  C    0.002686   0.000007  -0.000178   0.004013   0.002298
     4  H    0.000895   0.002136  -0.000033   0.000081  -0.000081
     5  H   -0.000025  -0.000002   0.000006   0.000086  -0.000081
     6  N    0.000179  -0.000165  -0.000032  -0.031581  -0.014431
     7  N   -0.056824  -0.032838  -0.035640  -0.044316  -0.017435
     8  C    0.000041   0.000005   0.000003   0.006985  -0.008878
     9  H   -0.000000  -0.000000   0.000000  -0.000251   0.000444
    10  H   -0.000003   0.000000  -0.000001  -0.000334   0.002534
    11  H   -0.000005   0.000006  -0.000010  -0.000657   0.001138
    12  C    0.355715   0.381526   0.384039  -0.007592   0.001212
    13  H    0.605513  -0.034387  -0.038751   0.015647  -0.002646
    14  H   -0.034387   0.546250  -0.028086   0.000235  -0.000298
    15  H   -0.038751  -0.028086   0.551816  -0.003568   0.004524
    16  H    0.015647   0.000235  -0.003568   0.943880  -0.226296
    17  H   -0.002646  -0.000298   0.004524  -0.226296   0.804080
 Mulliken charges:
               1
     1  C    0.025764
     2  C    0.017513
     3  C   -0.050244
     4  H    0.166585
     5  H    0.158555
     6  N   -0.425009
     7  N   -0.416941
     8  C   -0.296104
     9  H    0.155434
    10  H    0.159500
    11  H    0.151682
    12  C   -0.311501
    13  H    0.151591
    14  H    0.165411
    15  H    0.164172
    16  H    0.063472
    17  H    0.120121
 Sum of Mulliken charges =  -0.00000
 Mulliken charges with hydrogens summed into heavy atoms:
               1
     1  C    0.209357
     2  C    0.184098
     3  C    0.108311
     6  N   -0.425009
     7  N   -0.416941
     8  C    0.170512
    12  C    0.169673
 APT charges:
               1
     1  C   -0.697953
     2  C   -0.404169
     3  C   -0.461155
     4  H    0.566230
     5  H    0.587497
     6  N   -0.364966
     7  N   -0.372577
     8  C   -1.103888
     9  H    0.523976
    10  H    0.472320
    11  H    0.233477
    12  C   -1.161108
    13  H    0.306817
    14  H    0.511075
    15  H    0.470561
    16  H    0.400167
    17  H    0.493697
 Sum of APT charges =   0.00000
 APT charges with hydrogens summed into heavy atoms:
               1
     1  C    0.195910
     2  C    0.162061
     3  C    0.126342
     6  N   -0.364966
     7  N   -0.372577
     8  C    0.125885
    12  C    0.127344
 Electronic spatial extent (au):  <R**2>=            764.4864
 Charge=              0.0000 electrons
 Dipole moment (field-independent basis, Debye):
    X=              0.9643    Y=              0.2698    Z=              0.3357  Tot=              1.0561
 Quadrupole moment (field-independent basis, Debye-Ang):
   XX=            -39.4792   YY=            -37.7705   ZZ=            -48.5674
   XY=             -0.2683   XZ=             -1.2251   YZ=              0.7523
 Traceless Quadrupole moment (field-independent basis, Debye-Ang):
   XX=              2.4598   YY=              4.1685   ZZ=             -6.6283
   XY=             -0.2683   XZ=             -1.2251   YZ=              0.7523
 Octapole moment (field-independent basis, Debye-Ang**2):
  XXX=              3.7416  YYY=              1.5244  ZZZ=              3.8735  XYY=              1.4242
  XXY=              2.4290  XXZ=              5.0442  XZZ=              0.6886  YZZ=              1.2194
  YYZ=             -3.4383  XYZ=              2.7879
 Hexadecapole moment (field-independent basis, Debye-Ang**3):
 XXXX=           -618.1809 YYYY=           -238.2921 ZZZZ=           -120.0948 XXXY=             -1.0387
 XXXZ=              2.3321 YYYX=             -1.6234 YYYZ=              4.8315 ZZZX=             -1.1603
 ZZZY=             -2.7211 XXYY=           -142.6311 XXZZ=           -132.2501 YYZZ=            -65.6101
 XXYZ=             -2.2978 YYXZ=              5.9038 ZZXY=              0.8576
 N-N= 3.142034652593D+02 E-N=-1.337712340857D+03  KE= 3.027154526610D+02
  Exact polarizability:   0.000   0.000   0.000   0.000   0.000   0.000
 Approx polarizability: 109.277  -5.738 110.102  10.491   9.142  73.219
 No NMR shielding tensors so no spin-rotation constants.
 Leave Link  601 at Thu Oct 31 05:26:32 2019, MaxMem=   140000000 cpu:               3.6 elap:               0.2
 (Enter /usr/g16/l701.exe)
 ... and contract with generalized density number  0.
 Compute integral second derivatives.
 R6Disp: Adding Grimme-D3(BJ) dispersion energy 2nd derivatives to the Hessian.
 D2PCM: PCM CHGder 2nd derivatives, FixD1E=F FixD2E=F DoIter=F DoCFld=F I1PDM=0
 GePol: Maximum number of non-zero 2nd derivatives   =     238
 Leave Link  701 at Thu Oct 31 05:26:36 2019, MaxMem=   140000000 cpu:              82.9 elap:               3.5
 (Enter /usr/g16/l702.exe)
 L702 exits ... SP integral derivatives will be done elsewhere.
 Leave Link  702 at Thu Oct 31 05:26:36 2019, MaxMem=   140000000 cpu:               1.4 elap:               0.1
 (Enter /usr/g16/l703.exe)
 Integral derivatives from FoFJK, PRISM(SPDF).
 Compute integral second derivatives, UseDBF=F ICtDFT=           0.
 Calling FoFJK, ICntrl=    100147 FMM=F ISym2X=0 I1Cent= 0 IOpClX= 0 NMat=1 NMatS=1 NMatT=0.
 FoFJK:  IHMeth= 1 ICntrl=  100147 DoSepK=F KAlg= 0 I1Cent=           0 FoldK=F
 IRaf=         0 NMat=       1 IRICut=       1 DoRegI=T DoRafI=F ISym2E= 0 IDoP0=0 IntGTp=1.
 FoFCou: FMM=F IPFlag=           0 FMFlag=      100000 FMFlg1=         800
         NFxFlg=           0 DoJE=F BraDBF=F KetDBF=F FulRan=T
         wScrn=  0.000000 ICntrl=    100147 IOpCl=  0 I1Cent=           0 NGrid=           0
         NMat0=    1 NMatS0=      1 NMatT0=    0 NMatD0=    1 NMtDS0=    0 NMtDT0=    0
 Symmetry not used in FoFCou.
 Leave Link  703 at Thu Oct 31 05:26:47 2019, MaxMem=   140000000 cpu:             269.2 elap:              11.2
 (Enter /usr/g16/l716.exe)
 Dipole        = 3.79399706D-01 1.06136886D-01 1.32055046D-01
 Polarizability= 0.00000000D+00 0.00000000D+00 0.00000000D+00
                 0.00000000D+00 0.00000000D+00 0.00000000D+00
 ***** Axes restored to original set *****
 -------------------------------------------------------------------
 Center     Atomic                   Forces (Hartrees/Bohr)
 Number     Number              X              Y              Z
 -------------------------------------------------------------------
      1        6          -0.075256502   -0.085166144   -0.014687006
      2        6          -0.038095303   -0.008953807    0.011162183
      3        6           0.004589639   -0.032948869    0.001275385
      4        1           0.011465487   -0.007353920   -0.002124806
      5        1          -0.008004105    0.009506653    0.004069250
      6        7           0.001622101   -0.013550240   -0.016734564
      7        7          -0.000807587    0.010219241   -0.019207398
      8        6           0.004360952    0.000130220   -0.015682934
      9        1          -0.004178874    0.016744003    0.003937891
     10        1          -0.013439100   -0.008238024    0.003577183
     11        1           0.014453225   -0.004844656    0.015613436
     12        6          -0.008423996    0.013554968    0.016266112
     13        1          -0.005182277    0.001321370   -0.021286953
     14        1           0.016760040   -0.000985438    0.001756080
     15        1          -0.003958898   -0.016118120    0.004047266
     16        1           0.051721030    0.069491213   -0.029511259
     17        1           0.052374168    0.057191551    0.057530133
 -------------------------------------------------------------------
 Cartesian Forces:  Max     0.085166144 RMS     0.027221106
 FormGI is forming the generalized inverse of G from B-inverse, IUseBI=4.
 Leave Link  716 at Thu Oct 31 05:26:47 2019, MaxMem=   140000000 cpu:               1.6 elap:               0.1
 (Enter /usr/g16/l103.exe)

 GradGradGradGradGradGradGradGradGradGradGradGradGradGradGradGradGradGrad
 Berny optimization.
 Red2BG is reusing G-inverse.
 Internal  Forces:  Max     0.077496732 RMS     0.016579578
 Search for a saddle point.
 Step number   1 out of a maximum of   93
 All quantities printed in internal units (Hartrees-Bohrs-Radians)
 Swapping is turned off.
 Second derivative matrix not updated -- analytic derivatives used.
 ITU=  0
     Eigenvalues ---   -0.02120   0.00395   0.00406   0.00420   0.01089
     Eigenvalues ---    0.01128   0.01540   0.02206   0.02405   0.03545
     Eigenvalues ---    0.04171   0.05366   0.06512   0.06543   0.06628
     Eigenvalues ---    0.06645   0.08447   0.09922   0.10031   0.10729
     Eigenvalues ---    0.11886   0.12214   0.13661   0.13779   0.17301
     Eigenvalues ---    0.17428   0.17817   0.17976   0.18450   0.20058
     Eigenvalues ---    0.22298   0.25000   0.29135   0.29739   0.35207
     Eigenvalues ---    0.35325   0.38966   0.38995   0.39422   0.39437
     Eigenvalues ---    0.40114   0.40241   0.40265   0.40368   0.52889
 Eigenvectors required to have negative eigenvalues:
                          R3        R4        D12       D11       D5
   1                   -0.60948   0.38458   0.26993   0.25679  -0.24481
                          D2        D6        D10       D3        D9
   1                    0.18715  -0.17647   0.16601  -0.16067   0.15287
 RFO step:  Lambda0=8.699710012D-03 Lambda=-1.18584511D-01.
 Linear search not attempted -- option 19 set.
 Maximum step size (   0.300) exceeded in Quadratic search.
    -- Step size scaled by   0.376
 Iteration  1 RMS(Cart)=  0.04048882 RMS(Int)=  0.00727955
 Iteration  2 RMS(Cart)=  0.00708608 RMS(Int)=  0.00070974
 Iteration  3 RMS(Cart)=  0.00003607 RMS(Int)=  0.00070730
 Iteration  4 RMS(Cart)=  0.00000001 RMS(Int)=  0.00070730
 ITry= 1 IFail=0 DXMaxC= 1.98D-01 DCOld= 1.00D+10 DXMaxT= 3.00D-01 DXLimC= 3.00D+00 Rises=F
 Variable       Old X    -DE/DX   Delta X   Delta X   Delta X     New X
                                 (Linear)    (Quad)   (Total)
    R1        2.78790  -0.02722   0.00000  -0.03017  -0.02979   2.75811
    R2        2.78821  -0.02110   0.00000  -0.02066  -0.02025   2.76795
    R3        2.49101  -0.06364   0.00000  -0.00248  -0.00287   2.48814
    R4        2.48615  -0.07750   0.00000  -0.26685  -0.26713   2.21903
    R5        2.54835  -0.00717   0.00000  -0.00543  -0.00592   2.54242
    R6        2.02201   0.00886   0.00000   0.00635   0.00635   2.02836
    R7        2.77372  -0.02562   0.00000  -0.02346  -0.02365   2.75006
    R8        2.02201   0.00869   0.00000   0.00621   0.00621   2.02821
    R9        2.77324  -0.01988   0.00000  -0.01907  -0.01921   2.75403
   R10        2.77790   0.00738   0.00000   0.00265   0.00265   2.78055
   R11        2.77790   0.00057   0.00000  -0.00448  -0.00448   2.77342
   R12        2.02201   0.01769   0.00000   0.01250   0.01250   2.03450
   R13        2.02201   0.01610   0.00000   0.01232   0.01232   2.03432
   R14        2.02201   0.02105   0.00000   0.01561   0.01561   2.03762
   R15        2.02201   0.02141   0.00000   0.01625   0.01625   2.03826
   R16        2.02201   0.01679   0.00000   0.01219   0.01219   2.03419
   R17        2.02201   0.01701   0.00000   0.01225   0.01225   2.03426
   R18        2.29904   0.03693   0.00000   0.08994   0.09060   2.38964
    A1        1.87302   0.01940   0.00000   0.01828   0.01676   1.88979
    A2        2.12413  -0.01304   0.00000  -0.04244  -0.04655   2.07758
    A3        2.12428  -0.01756   0.00000   0.00063   0.00076   2.12504
    A4        2.12413  -0.01888   0.00000  -0.05573  -0.05926   2.06487
    A5        2.12428  -0.01289   0.00000   0.00442   0.00465   2.12894
    A6        2.17675   0.00844   0.00000   0.01335   0.01351   2.19026
    A7        1.92887   0.00439   0.00000   0.00372   0.00340   1.93227
    A8        2.17737  -0.01287   0.00000  -0.01721  -0.01706   2.16031
    A9        2.17691   0.00834   0.00000   0.01258   0.01269   2.18960
   A10        1.92854   0.00186   0.00000  -0.00003  -0.00032   1.92822
   A11        2.17753  -0.01023   0.00000  -0.01281  -0.01271   2.16483
   A12        1.78294  -0.01153   0.00000   0.00213   0.00244   1.78537
   A13        1.93403   0.00735   0.00000   0.00576   0.00577   1.93980
   A14        1.95245   0.00274   0.00000   0.01000   0.00974   1.96219
   A15        1.78258  -0.01200   0.00000  -0.00104  -0.00068   1.78191
   A16        1.97743   0.00683   0.00000   0.01062   0.01005   1.98749
   A17        1.95921   0.00799   0.00000   0.00909   0.00905   1.96826
   A18        1.91063  -0.00175   0.00000  -0.00144  -0.00144   1.90919
   A19        1.91063  -0.00177   0.00000  -0.00070  -0.00071   1.90993
   A20        1.91063   0.00914   0.00000   0.01176   0.01174   1.92238
   A21        1.91063  -0.00083   0.00000  -0.00344  -0.00345   1.90718
   A22        1.91063  -0.00271   0.00000  -0.00380  -0.00381   1.90683
   A23        1.91063  -0.00209   0.00000  -0.00238  -0.00239   1.90824
   A24        1.91063   0.00744   0.00000   0.00702   0.00701   1.91764
   A25        1.91063  -0.00084   0.00000   0.00002   0.00001   1.91064
   A26        1.91063  -0.00133   0.00000   0.00058   0.00058   1.91121
   A27        1.91063  -0.00130   0.00000   0.00021   0.00020   1.91083
   A28        1.91063  -0.00235   0.00000  -0.00396  -0.00397   1.90667
   A29        1.91063  -0.00162   0.00000  -0.00386  -0.00386   1.90677
    D1        0.45765  -0.00159   0.00000  -0.03932  -0.03889   0.41876
    D2       -1.62462  -0.00174   0.00000  -0.05480  -0.05436  -1.67897
    D3       -2.10973   0.02333   0.00000   0.10343   0.10271  -2.00702
    D4        2.09119   0.02317   0.00000   0.08794   0.08724   2.17844
    D5        3.02554  -0.02188   0.00000  -0.00018   0.00000   3.02554
    D6        0.94327  -0.02203   0.00000  -0.01567  -0.01546   0.92781
    D7       -0.45723   0.00165   0.00000   0.03744   0.03694  -0.42029
    D8       -2.56829  -0.00386   0.00000   0.02177   0.02123  -2.54706
    D9        2.11015  -0.02093   0.00000  -0.09999  -0.09865   2.01150
   D10       -0.00091  -0.02644   0.00000  -0.11567  -0.11436  -0.11527
   D11       -3.02512   0.02381   0.00000  -0.00018  -0.00052  -3.02564
   D12        1.14701   0.01830   0.00000  -0.01585  -0.01623   1.13078
   D13        0.00057   0.00021   0.00000   0.00234   0.00240   0.00297
   D14        3.12157  -0.00169   0.00000  -0.01143  -0.01120   3.11037
   D15       -3.12042   0.00227   0.00000   0.00958   0.00937  -3.11105
   D16        0.00058   0.00037   0.00000  -0.00419  -0.00424  -0.00366
   D17        0.28273  -0.00507   0.00000  -0.02344  -0.02270   0.26003
   D18        2.40636  -0.00024   0.00000  -0.00682  -0.00642   2.39994
   D19       -2.83825  -0.00331   0.00000  -0.01663  -0.01631  -2.85457
   D20       -0.71462   0.00151   0.00000  -0.00001  -0.00003  -0.71465
   D21       -0.28368   0.00384   0.00000   0.02877   0.02818  -0.25550
   D22        1.78557   0.00711   0.00000   0.04138   0.04100   1.82658
   D23        2.83731   0.00221   0.00000   0.01535   0.01517   2.85248
   D24       -1.37662   0.00548   0.00000   0.02797   0.02799  -1.34863
   D25        3.08297  -0.00277   0.00000   0.00930   0.00951   3.09248
   D26       -1.10582  -0.00594   0.00000   0.00377   0.00398  -1.10184
   D27        0.98857  -0.00399   0.00000   0.00764   0.00784   0.99642
   D28        1.10582   0.00535   0.00000  -0.00264  -0.00284   1.10298
   D29       -3.08297   0.00218   0.00000  -0.00816  -0.00837  -3.09134
   D30       -0.98857   0.00414   0.00000  -0.00430  -0.00450  -0.99308
   D31        1.00406  -0.00366   0.00000   0.00215   0.00230   1.00636
   D32        3.09845  -0.00121   0.00000   0.00671   0.00687   3.10532
   D33       -1.09034  -0.00453   0.00000   0.00235   0.00251  -1.08783
   D34       -1.00406   0.00178   0.00000  -0.00953  -0.00969  -1.01374
   D35        1.09034   0.00424   0.00000  -0.00497  -0.00512   1.08522
   D36       -3.09845   0.00092   0.00000  -0.00933  -0.00949  -3.10794
         Item               Value     Threshold  Converged?
 Maximum Force            0.077497     0.000450     NO 
 RMS     Force            0.016580     0.000300     NO 
 Maximum Displacement     0.198269     0.001800     NO 
 RMS     Displacement     0.045330     0.001200     NO 
 Predicted change in Energy=-3.944119D-02
 Lowest energy point so far.  Saving SCF results.
 GradGradGradGradGradGradGradGradGradGradGradGradGradGradGradGradGradGrad

 Leave Link  103 at Thu Oct 31 05:26:47 2019, MaxMem=   140000000 cpu:               0.6 elap:               0.1
 (Enter /usr/g16/l202.exe)
                          Input orientation:                          
 ---------------------------------------------------------------------
 Center     Atomic      Atomic             Coordinates (Angstroms)
 Number     Number       Type             X           Y           Z
 ---------------------------------------------------------------------
      1          6           0       -0.275398   -0.274817   -1.475378
      2          6           0        1.553884    1.042361   -1.749926
      3          6           0        0.501584    1.858172   -1.557054
      4          1           0        2.528241    1.349305   -2.079349
      5          1           0        0.501028    2.920437   -1.710453
      6          7           0       -0.669423    1.092240   -1.149602
      7          7           0        1.187806   -0.341081   -1.485560
      8          6           0       -0.960517    1.232885    0.285845
      9          1           0       -1.199511    2.259906    0.503110
     10          1           0       -1.800169    0.610461    0.543650
     11          1           0       -0.103694    0.936125    0.869312
     12          6           0        1.733316   -1.272962   -2.479521
     13          1           0        1.390669   -0.999770   -3.465084
     14          1           0        2.808847   -1.238822   -2.451076
     15          1           0        1.403869   -2.272627   -2.253791
     16          1           0       -0.936383   -0.924820   -2.410366
     17          1           0       -0.937623   -1.196982   -1.175456
 ---------------------------------------------------------------------
                    Distance matrix (angstroms):
                    1          2          3          4          5
     1  C    0.000000
     2  C    2.270817   0.000000
     3  C    2.271567   1.345393   0.000000
     4  H    3.295898   1.073361   2.153851   0.000000
     5  H    3.296626   2.153423   1.073284   2.591164   0.000000
     6  N    1.459531   2.303469   1.457369   3.339994   2.242055
     7  N    1.464739   1.455272   2.304935   2.237578   3.340620
     8  C    2.417532   3.240814   2.434132   4.216530   2.994854
     9  H    3.345628   3.760289   2.701738   4.625410   2.868448
    10  H    2.680507   4.086159   3.356755   5.114796   3.963896
    11  H    2.644510   3.101493   2.665292   3.973965   3.310342
    12  C    2.457545   2.434179   3.488855   2.769174   4.437859
    13  H    2.694488   2.671836   3.549490   2.955078   4.386138
    14  H    3.375479   2.696357   3.964103   2.629700   4.813936
    15  H    2.723437   3.356416   4.285214   3.796450   5.298891
    16  H    1.316665   3.241514   3.246680   4.157503   4.164376
    17  H    1.174258   3.398865   3.398661   4.394634   4.394209
                    6          7          8          9         10
     6  N    0.000000
     7  N    2.369931   0.000000
     8  C    1.471402   3.198520   0.000000
     9  H    2.091864   4.052064   1.076613   0.000000
    10  H    2.092319   3.735119   1.076518   1.755877   0.000000
    11  H    2.102483   2.973995   1.078260   1.757076   1.757879
    12  C    3.624365   1.467632   4.602527   5.475283   5.017207
    13  H    3.739243   2.096078   4.958053   5.751616   5.370683
    14  H    4.384751   2.089482   5.273346   6.085659   5.799246
    15  H    4.103670   2.089912   4.932412   5.909480   5.138456
    16  H    2.393601   2.389182   3.453379   4.324357   3.439393
    17  H    2.305025   2.312180   2.835521   3.851785   2.639349
                   11         12         13         14         15
    11  H    0.000000
    12  C    4.412409   0.000000
    13  H    4.976726   1.078599   0.000000
    14  H    4.923237   1.076448   1.759712   0.000000
    15  H    4.724681   1.076485   1.757148   1.755459   0.000000
    16  H    3.861706   2.693191   2.556016   3.758590   2.705157
    17  H    3.070287   2.973260   3.271427   3.957903   2.793278
                   16         17
    16  H    0.000000
    17  H    1.264545   0.000000
 Stoichiometry    C5H10N2
 Framework group  C1[X(C5H10N2)]
 Deg. of freedom    45
 Full point group                 C1      NOp   1
 RotChk:  IX=2 Diff= 1.73D-02
 Largest Abelian subgroup         C1      NOp   1
 Largest concise Abelian subgroup C1      NOp   1
                         Standard orientation:                         
 ---------------------------------------------------------------------
 Center     Atomic      Atomic             Coordinates (Angstroms)
 Number     Number       Type             X           Y           Z
 ---------------------------------------------------------------------
      1          6           0        0.026670   -0.922353   -0.335084
      2          6           0        0.533648    1.231545    0.175119
      3          6           0       -0.697615    1.230412   -0.367167
      4          1           0        1.130332    2.103411    0.364652
      5          1           0       -1.239965    2.101373   -0.682161
      6          7           0       -1.188255   -0.133866   -0.515296
      7          7           0        0.978689   -0.127601    0.444332
      8          6           0       -2.200014   -0.479371    0.495641
      9          1           0       -3.063028    0.151452    0.367717
     10          1           0       -2.491023   -1.508630    0.373870
     11          1           0       -1.798948   -0.336594    1.486300
     12          6           0        2.381337   -0.349929    0.074070
     13          1           0        2.522861   -0.133514   -0.973075
     14          1           0        3.013866    0.292577    0.662146
     15          1           0        2.644536   -1.376513    0.262934
     16          1           0        0.484876   -1.630384   -1.346194
     17          1           0       -0.000699   -2.094749   -0.274907
 ---------------------------------------------------------------------
 Rotational constants (GHZ):           5.5594047           2.1735662           1.7732353
 Leave Link  202 at Thu Oct 31 05:26:47 2019, MaxMem=   140000000 cpu:               0.1 elap:               0.0
 (Enter /usr/g16/l301.exe)
 Standard basis: 6-31G(d) (6D, 7F)
 Ernie: Thresh=  0.10000D-02 Tol=  0.10000D-05 Strict=F.
 There are   125 symmetry adapted cartesian basis functions of A   symmetry.
 There are   125 symmetry adapted basis functions of A   symmetry.
   125 basis functions,   236 primitive gaussians,   125 cartesian basis functions
    27 alpha electrons       27 beta electrons
       nuclear repulsion energy       315.4866821694 Hartrees.
 IExCor=  402 DFT=T Ex+Corr=B3LYP ExCW=0 ScaHFX=  0.200000
 ScaDFX=  0.800000  0.720000  1.000000  0.810000 ScalE2=  1.000000  1.000000
 IRadAn=      5 IRanWt=     -1 IRanGd=            0 ICorTp=0 IEmpDi=141
 NAtoms=   17 NActive=   17 NUniq=   17 SFac= 1.00D+00 NAtFMM=   60 NAOKFM=F Big=F
 Integral buffers will be    131072 words long.
 Raffenetti 2 integral format.
 Two-electron integral symmetry is turned on.
 R6Disp:  Grimme-D3(BJ) Dispersion energy=       -0.0247438009 Hartrees.
 Nuclear repulsion after empirical dispersion term =      315.4619383685 Hartrees.
 ------------------------------------------------------------------------------
 Polarizable Continuum Model (PCM)
 =================================
 Model                : PCM.
 Atomic radii         : SMD-Coulomb.
 Polarization charges : Total charges.
 Charge compensation  : None.
 Solution method      : Matrix inversion.
 Cavity type          : VdW (van der Waals Surface) (Alpha=1.000).
 Cavity algorithm     : GePol (No added spheres)
                        Default sphere list used, NSphG=   17.
                        Lebedev-Laikov grids with approx.  5.0 points / Ang**2.
                        Smoothing algorithm: York/Karplus (Gamma=1.0000).
                        Polarization charges: spherical gaussians, with
                                              point-specific exponents (IZeta= 3).
                        Self-potential: point-specific (ISelfS= 7).
                        Self-field    : sphere-specific E.n sum rule (ISelfD= 2).
 1st derivatives      : Analytical E(r).r(x)/FMM algorithm (CHGder, D1EAlg=3).
                        Cavity 1st derivative terms included.
 Solvent              : Benzene, Eps=   2.270600 Eps(inf)=   2.253301
 ------------------------------------------------------------------------------
 Spheres list:
 ISph  on   Nord     Re0    Alpha      Xe            Ye            Ze
    1   C      1    1.8500  1.000      0.026670     -0.922353     -0.335084
    2   C      2    1.8500  1.000      0.533648      1.231545      0.175119
    3   C      3    1.8500  1.000     -0.697615      1.230412     -0.367167
    4   H      4    1.2000  1.000      1.130332      2.103411      0.364652
    5   H      5    1.2000  1.000     -1.239965      2.101373     -0.682161
    6   N      6    1.8900  1.000     -1.188255     -0.133866     -0.515296
    7   N      7    1.8900  1.000      0.978689     -0.127601      0.444332
    8   C      8    1.8500  1.000     -2.200014     -0.479371      0.495641
    9   H      9    1.2000  1.000     -3.063028      0.151452      0.367717
   10   H     10    1.2000  1.000     -2.491023     -1.508630      0.373870
   11   H     11    1.2000  1.000     -1.798948     -0.336594      1.486300
   12   C     12    1.8500  1.000      2.381337     -0.349929      0.074070
   13   H     13    1.2000  1.000      2.522861     -0.133514     -0.973075
   14   H     14    1.2000  1.000      3.013866      0.292577      0.662146
   15   H     15    1.2000  1.000      2.644536     -1.376513      0.262934
   16   H     16    1.2000  1.000      0.484876     -1.630384     -1.346194
   17   H     17    1.2000  1.000     -0.000699     -2.094749     -0.274907
 ------------------------------------------------------------------------------
 GePol: Number of generator spheres                  =      17
 GePol: Total number of spheres                      =      17
 GePol: Number of exposed spheres                    =      17 (100.00%)
 GePol: Number of points                             =    1244
 GePol: Average weight of points                     =       0.11
 GePol: Minimum weight of points                     =   0.12D-07
 GePol: Maximum weight of points                     =    0.17992
 GePol: Number of points with low weight             =      62
 GePol: Fraction of low-weight points (<1% of avg)   =       4.98%
 GePol: Cavity surface area                          =    141.477 Ang**2
 GePol: Cavity volume                                =    117.806 Ang**3
 ------------------------------------------------------------------------------
 Atomic radii for non-electrostatic terms: SMD-CDS.
 ------------------------------------------------------------------------------
 PCM non-electrostatic energy =        -0.0044254233 Hartrees.
 Nuclear repulsion after PCM non-electrostatic terms =      315.4575129452 Hartrees.
 Leave Link  301 at Thu Oct 31 05:26:47 2019, MaxMem=   140000000 cpu:               1.9 elap:               0.1
 (Enter /usr/g16/l302.exe)
 NPDir=0 NMtPBC=     1 NCelOv=     1 NCel=       1 NClECP=     1 NCelD=      1
         NCelK=      1 NCelE2=     1 NClLst=     1 CellRange=     0.0.
 One-electron integrals computed using PRISM.
 One-electron integral symmetry used in STVInt
 NBasis=   125 RedAO= T EigKep=  2.00D-03  NBF=   125
 NBsUse=   125 1.00D-06 EigRej= -1.00D+00 NBFU=   125
 Precomputing XC quadrature grid using
 IXCGrd= 4 IRadAn=           5 IRanWt=          -1 IRanGd=           0 AccXCQ= 0.00D+00.
 Generated NRdTot=       0 NPtTot=           0 NUsed=           0 NTot=          32
 NSgBfM=   125   125   125   125   125 MxSgAt=    17 MxSgA2=    17.
 Leave Link  302 at Thu Oct 31 05:26:48 2019, MaxMem=   140000000 cpu:               6.3 elap:               0.3
 (Enter /usr/g16/l303.exe)
 DipDrv:  MaxL=1.
 Leave Link  303 at Thu Oct 31 05:26:48 2019, MaxMem=   140000000 cpu:               0.6 elap:               0.0
 (Enter /usr/g16/l401.exe)
 Initial guess from the checkpoint file:  "carbene.chk"
 B after Tr=    -0.000000    0.000000    0.000000
         Rot=    0.999989   -0.003823    0.001545    0.002164 Ang=  -0.53 deg.
 Guess basis will be translated and rotated to current coordinates.
 JPrj=2 DoOrth=T DoCkMO=T.
 Generating alternative initial guess.
 ExpMin= 1.61D-01 ExpMax= 4.17D+03 ExpMxC= 6.27D+02 IAcc=2 IRadAn=         4 AccDes= 0.00D+00
 Harris functional with IExCor=  402 and IRadAn=       4 diagonalized for initial guess.
 HarFok:  IExCor=  402 AccDes= 0.00D+00 IRadAn=         4 IDoV= 1 UseB2=F ITyADJ=14
 ICtDFT=  3500011 ScaDFX=  1.000000  1.000000  1.000000  1.000000
 FoFCou: FMM=F IPFlag=           0 FMFlag=      100000 FMFlg1=           0
         NFxFlg=           0 DoJE=T BraDBF=F KetDBF=T FulRan=T
         wScrn=  0.000000 ICntrl=       500 IOpCl=  0 I1Cent=   200000004 NGrid=           0
         NMat0=    1 NMatS0=      1 NMatT0=    0 NMatD0=    1 NMtDS0=    0 NMtDT0=    0
 Petite list used in FoFCou.
 Harris En= -305.926962116268    
[...]
   zx         0.222384D+01      0.329539D+00      0.366662D+00
   zy         0.112546D+02      0.166776D+01      0.185563D+01
   zz         0.107036D+03      0.158611D+02      0.176479D+02

 ----------------------------------------------------------------------
 1\1\GINC-LW06\Freq\RB3LYP\6-31G(d)\C5H10N2\WSR\31-Oct-2019\0\\#P Geom=
 AllCheck Guess=TCheck SCRF=Check GenChk RB3LYP/6-31G(d) Freq\\Title Ca
 rd Required\\0,1\C,0.4273951469,-0.1856033076,-0.8457460198\C,1.399847
 3491,1.1529398743,-2.3398579336\C,0.5303981732,1.9045395504,-1.6141786
 363\H,2.0655148453,1.4180823586,-3.1458389027\H,0.288320121,2.95433751
 94,-1.6625743006\N,-0.0511926744,1.0637780035,-0.6737322835\N,1.341847
 229,-0.1403681245,-1.8363594667\C,-1.2220488969,1.3405928086,0.1418037
 537\H,-2.0271127487,0.6723963536,-0.1918205925\H,-1.00685442,1.1572790
 941,1.1974419321\H,-1.5128141407,2.3831506948,0.0067323022\C,1.8816676
 026,-1.3427316352,-2.44918273\H,1.0346935815,-1.974392226,-2.748433343
 \H,2.4745331357,-1.0636546596,-3.3211565816\H,2.5116668349,-1.88550875
 34,-1.740114284\H,-1.3631102242,-1.583935584,-1.5420588786\H,-0.046225
 2542,-1.090889877,-0.4756264651\\Version=ES64L-G16RevA.03\State=1-A\HF
 =-305.9569756\RMSD=1.675e-09\RMSF=6.116e-06\ZeroPoint=0.1423888\Therma
 l=0.1500528\Dipole=2.079014,2.188695,0.2233848\DipoleDeriv=0.5742079,0
 .2542182,-0.3461669,0.3529268,0.850087,0.2083631,-0.4482511,0.0903194,
 0.0127026,0.0295709,0.066957,-0.0298725,-0.2896239,0.2513565,0.0199137
 ,0.1336626,-0.1291838,-0.12226,0.0012926,0.0070552,-0.1662258,0.165744
 6,-0.0693593,-0.2219048,-0.1245977,0.1642614,0.2267902,0.1107602,0.002
 0428,0.0781227,0.0128745,0.0991763,0.0020132,0.0583871,0.0281857,0.115
 7499,0.140719,0.0278823,0.0349029,0.0169735,0.0509194,0.0143293,0.0546
 632,-0.0117606,0.1340598,-0.2376354,0.3377929,0.2975385,-0.3504153,-0.
 8357451,-0.1683681,0.1504499,-0.5032866,-0.4898202,-0.9255483,-0.23638
 05,0.2156843,0.374909,-0.4523512,-0.206746,0.441837,0.220108,-0.185677
 ,0.3255144,-0.3063814,-0.2999149,-0.109457,0.1834752,0.0756866,-0.1337
 493,0.1878636,0.4502492,0.0097724,0.0632313,0.0668256,-0.0792319,0.168
 0441,0.0455208,-0.0316791,0.0154596,0.0533976,0.0239431,0.0590283,-0.0
 208919,0.0334232,0.0907844,0.0313051,0.0175789,-0.0235476,-0.1217446,0
 .0733777,0.0161784,0.0456226,0.0698357,-0.084772,-0.0046745,0.0138291,
 0.0452521,0.0591048,0.3327885,-0.1799508,-0.0627525,-0.4392435,0.35417
 3,0.1408827,-0.1640776,0.1033914,0.2725291,0.1409861,-0.0466429,-0.100
 4014,0.093293,0.0157788,-0.0487653,0.0008079,-0.0156848,0.0742768,0.02
 555,0.0140962,0.0842764,-0.0243275,0.034014,0.0749264,0.1002126,0.0067
 325,-0.0118441,0.0047941,0.0893653,-0.035273,0.1151556,0.0081642,-0.01
 05325,-0.0738845,0.0441802,-0.0199036,-0.9517319,-0.2752632,0.0493869,
 -0.1599843,-0.9204379,-0.0201571,-0.0700396,-0.1582919,-0.6749324,0.32
 16387,0.1067709,0.189139,0.2171475,0.2566924,0.0682074,0.0748509,-0.06
 39985,0.2273219\Polar=91.5889607,11.0096671,102.3784207,-17.7434301,7.
 4848056,67.8687545\Quadrupole=-3.265123,-1.5828624,4.8479854,-11.86760
 84,-6.0925236,-0.0621152\PG=C01 [X(C5H10N2)]\NImag=1\\0.41668954,0.010
 60602,0.80688798,-0.30104350,-0.14067231,0.44381253,-0.01286291,-0.015
 32878,0.02508296,0.49584710,-0.03248161,-0.01449468,0.06617003,-0.0758
 0323,0.56673525,0.03737468,0.02309372,-0.03539728,-0.41114702,-0.05705
 066,0.58020684,0.02054843,-0.01483873,0.01021727,-0.21960103,0.1302134
 1,0.13648990,0.39404787,0.01469889,-0.08066486,0.01553229,0.12836906,-
 0.19943664,-0.09896139,-0.20373159,0.86392608,-0.01490234,0.04377855,-
 0.00262835,0.13659244,-0.10058757,-0.17840016,-0.25158577,-0.01475058,
 0.38477749,0.00098691,0.00247820,0.00131536,-0.16046678,-0.04143252,0.
 16425523,-0.00405330,-0.00814020,0.00619185,0.16128826,0.00128152,-0.0
 0640729,0.00071105,-0.03534479,-0.07387362,0.05572820,0.00705834,0.012
 61662,-0.01201048,0.04491265,0.07127821,0.00030606,0.00264325,0.002042
 16,0.16149834,0.06084677,-0.21707507,0.00207189,0.00522237,-0.00455050
 ,-0.16905610,-0.06594823,0.22383346,0.00008376,-0.00122987,0.00314710,
 0.00166328,0.01447780,-0.00713475,-0.05666948,0.07931676,0.01514873,-0
 .00137664,-0.00079243,-0.00119740,0.05129042,-0.00143923,-0.00017453,0
 .00204966,-0.00139272,-0.00390274,0.00243845,0.07482757,-0.35103766,0.
 01778482,-0.00016885,-0.00020468,-0.00058468,-0.07783489,0.36567505,0.
 00561349,0.00180248,-0.00328770,-0.00231677,-0.01398830,0.00625279,0.0
 1624752,0.01075026,-0.04371062,-0.00133864,0.00005805,-0.00114946,-0.0
 1268089,-0.01932004,0.03943493,-0.13826380,0.08139918,0.03773930,-0.02
 840242,0.00546698,0.04480658,-0.11662310,-0.03171797,0.08270758,0.0009
 8935,0.00444490,0.00346007,0.00293529,0.00396838,-0.00820467,0.5134609
 8,0.06901778,-0.32069816,-0.02456537,-0.01803380,0.00133516,0.02487029
 ,-0.02474476,-0.17505706,0.07940580,0.00114628,-0.00229184,-0.00216376
 ,-0.01641132,-0.01178537,0.02372124,-0.11285767,0.65454252,0.04416981,
 0.00319291,-0.08688613,0.05631788,-0.01100617,-0.04709582,0.07058501,0
 .07574895,-0.15147051,0.00322031,-0.00227156,0.00204376,-0.00215453,-0
 .00197429,-0.00113343,-0.31009444,-0.04360158,0.44106264,-0.18642680,-
 0.00217898,0.13070788,-0.07537302,-0.00446956,0.03860776,-0.00462284,0
 .01616917,0.01457226,0.00129512,-0.02093238,0.00296448,-0.00075565,0.0
 0104592,0.00378750,-0.02579968,0.05175307,0.02758768,0.40213574,-0.019
 60752,-0.13585011,0.00380038,0.00220672,-0.25276055,0.06530237,0.04398
 176,-0.07930265,-0.01791053,0.00180960,-0.00478582,0.00004593,0.002679
 71,0.00062503,-0.00246744,0.02956414,-0.01473508,-0.01374381,-0.106360
 90,0.72656585,0.15518125,0.01176471,-0.22355517,0.03660858,0.05261996,
 -0.11504776,-0.00141385,0.01279663,0.00976044,-0.00553315,0.02291142,-
 0.00649477,0.00575421,-0.00036399,0.00087335,0.03553392,-0.03911406,-0
 .02209852,-0.28718421,0.01149993,0.48036843,-0.01135044,0.01297653,0.0
 0449641,0.00271582,0.00141347,-0.00058803,-0.01257516,-0.00350881,0.00
 720525,0.00127939,0.00000524,0.00067657,0.00060240,0.00058182,-0.00184
 533,-0.16856695,0.02886221,0.08375714,-0.00076135,-0.00157764,0.002083
 54,0.50240508,0.02677506,-0.00446828,-0.02298330,-0.00269434,-0.001457
 76,0.00545230,-0.01390310,0.01197474,0.00357886,0.00010908,0.00117598,
 0.00078407,-0.00103562,0.00017922,0.00011366,0.02547107,-0.10634138,-0
 .00096146,0.00094036,-0.00790824,0.00071133,0.00167367,0.62735109,0.00
 360977,-0.01503002,-0.00247276,0.00093117,0.00436643,0.00105847,0.0154
 2580,-0.00463652,-0.01833077,0.00131016,-0.00008338,0.00090617,-0.0017
 4631,-0.00095235,0.00002913,0.07180938,0.00015221,-0.12040810,0.000396
 16,0.00127716,0.00192919,0.04207398,-0.01940137,0.57065590,-0.00068901
 ,-0.00506297,-0.00067880,-0.00123909,0.00061085,0.00154026,-0.00089910
 ,0.00248683,-0.00425878,0.00026382,0.00024836,0.00030114,-0.00004305,-
 0.00009065,0.00003495,-0.03352061,-0.01276065,0.00549248,0.00044936,-0
 .00079777,0.00013398,-0.18141171,-0.11173909,-0.06181564,0.20984860,0.
 00100862,0.00100934,0.00052889,0.00043250,-0.00117774,-0.00015219,0.00
 029456,-0.00017508,0.00043621,-0.00008508,-0.00007919,-0.00010024,-0.0
 0004124,0.00004948,-0.00016763,0.00491160,0.00538378,0.00266772,0.0012
 2468,0.00088672,-0.00112722,-0.11646106,-0.15216187,-0.04957292,0.1247
 5126,0.15269040,-0.00067900,0.00186208,0.00173529,0.00027715,-0.000987
 90,-0.00105362,0.00139796,-0.00120331,0.00119631,-0.00010726,-0.000201
 48,-0.00023700,0.00011961,0.00002967,0.00018464,0.02317579,0.01262292,
 0.00340315,0.00072829,0.00078637,-0.00098019,-0.06574161,-0.05268283,-
 0.07957452,0.05845103,0.05365279,0.08196548,0.00123737,-0.00206258,-0.
 00002789,-0.00137354,-0.00041313,0.00101023,0.00012507,0.00347538,0.00
 165664,-0.00048271,0.00017364,-0.00018486,0.00006417,-0.00008492,0.000
 06399,-0.00146824,-0.00693788,0.03716708,-0.00022722,-0.00030411,0.000
 05544,-0.06400731,0.01291119,-0.06679455,-0.00327569,0.00602346,-0.022
 07766,0.07063671,0.00032106,0.00073638,-0.00019444,0.00027941,-0.00066
 139,-0.00058914,-0.00105896,-0.00053925,0.00074773,0.00015449,0.000028
 26,0.00013993,0.00019309,0.00019641,0.00002579,0.00000502,0.00119507,-
 0.00791316,0.00036030,0.00037682,-0.00082208,0.01069582,-0.06044363,0.
 04683711,-0.00419039,0.00518566,-0.02021313,-0.01308372,0.05659500,-0.
 00056513,0.00273818,0.00100623,0.00092263,-0.00029243,-0.00052097,-0.0
 0123053,-0.00310391,0.00015222,0.00020659,-0.00014080,0.00008539,-0.00
 011181,-0.00001117,-0.00003050,0.00687765,0.00225917,-0.01842614,0.000
 75283,0.00023455,-0.00041282,-0.05855360,0.04496889,-0.29914314,-0.003
 05907,0.00205704,-0.00786513,0.05656286,-0.04896525,0.32627017,-0.0032
 8441,-0.00306058,0.00271503,-0.00018259,0.00051044,-0.00023937,0.00130
 311,0.00124612,-0.00142617,-0.00003578,-0.00007718,-0.00006617,-0.0001
 0339,-0.00042312,0.00036561,-0.01337263,0.03371721,-0.00210615,-0.0002
 9001,0.00160646,0.00095635,-0.06796959,0.05936380,-0.00699442,0.010174
 11,-0.02148078,0.00503486,-0.00161950,0.00627704,-0.00128179,0.0754305
 9,-0.00015461,0.00188409,-0.00012396,0.00012650,-0.00010963,-0.0003187
 7,-0.00135025,0.00076990,0.00102766,0.00001142,-0.00000157,-0.00000013
 ,0.00037068,0.00032324,-0.00030890,0.00149326,-0.00556864,-0.00064705,
 0.00024603,-0.00004948,0.00018751,0.07076889,-0.30724611,0.03457551,0.
 00584846,-0.01462154,0.00377352,-0.00010295,-0.00269075,0.00060062,-0.
 07725279,0.32746060,0.00250610,0.00154695,-0.00169958,-0.00008672,-0.0
 0044622,0.00006721,-0.00024903,-0.00086687,0.00091161,-0.00006162,0.00
 001666,-0.00002636,0.00016812,0.00031135,0.00013729,0.00841973,-0.0244
 5360,-0.00049908,0.00090301,-0.00108899,-0.00016171,-0.01096986,0.0427
 3008,-0.05606589,0.00386493,-0.00984248,0.00157847,-0.00763283,0.03062
 302,-0.00078842,0.00311957,-0.03836391,0.05707877,-0.01602067,0.019508
 89,0.01239360,-0.00292315,0.00582622,-0.00756569,0.00448079,-0.0023309
 0,0.00008274,-0.00078568,-0.00130865,-0.00109448,0.00165254,0.00038843
 ,0.00092243,-0.00189825,-0.00268646,0.00445318,-0.08902314,0.03857821,
 0.03703911,0.00044366,0.00113218,0.00085123,0.00023570,-0.00025847,-0.
 00023980,-0.00008476,0.00006560,-0.00005132,-0.00009019,0.00004571,0.0
 0011358,0.58893292,0.00865890,0.00903685,-0.01131787,0.01103822,-0.024
 87410,-0.01144635,-0.00072313,-0.00123988,0.00195082,0.00005719,0.0019
 0693,-0.00044443,0.00056131,0.00017437,-0.00007578,-0.00315277,-0.0025
 6688,0.00290385,0.04634327,-0.19226068,-0.03541723,-0.00092493,0.00064
 562,-0.00005589,0.00024403,0.00022431,0.00011027,0.00001206,0.00018341
 ,0.00004068,-0.00028059,0.00019249,0.00020493,0.02652467,0.51975312,0.
 01020358,-0.02281419,-0.01132019,-0.01043765,0.00297324,0.00886118,0.0
 0115978,0.00603000,-0.00092522,-0.00093204,0.00092318,-0.00030997,-0.0
 0000013,0.00045945,0.00153363,0.00401366,-0.00011976,-0.00227375,0.044
 48325,-0.04175736,-0.11402591,0.00000680,-0.00104168,0.00107904,0.0001
 5689,0.00007108,0.00002755,-0.00015751,0.00013005,0.00009030,0.0003213
 8,0.00001120,-0.00018690,-0.00669660,-0.06042435,0.59177358,0.00175859
 ,-0.00034603,0.00007453,0.00007514,0.00030497,0.00112550,-0.00131359,-
 0.00002881,0.00077481,0.00004483,0.00003857,0.00001343,-0.00024201,-0.
 00001313,-0.00004740,-0.00000251,0.00227099,-0.00023557,0.01311120,0.0
 1018803,0.00530041,0.00020839,-0.00016436,-0.00032994,-0.00016461,0.00
 023507,0.00017892,-0.00002807,-0.00002318,0.00004939,-0.00007608,-0.00
 004886,0.00000689,-0.21389599,-0.11754670,-0.05603166,0.22007569,-0.00
 386863,-0.00068144,0.00218336,-0.00097206,0.00207878,-0.00386151,0.001
 36684,-0.00137482,-0.00021627,-0.00016764,-0.00001910,-0.00010745,0.00
 044033,0.00007059,0.00012747,-0.00025686,-0.00015045,0.00075385,-0.014
 64292,-0.03240197,-0.01451138,0.00025892,0.00015055,0.00007972,-0.0000
 1383,-0.00011651,-0.00006711,-0.00002091,-0.00001062,-0.00000550,0.000
 00359,-0.00000567,0.,-0.11107825,-0.12735437,-0.03574614,0.12084192,0.
 15162752,-0.00257250,-0.00220652,0.00098214,-0.00093749,0.00193500,-0.
 00202668,0.00077957,-0.00083523,-0.00078205,0.00009118,-0.00011692,0.0
 0016483,0.00023646,0.00008461,0.00011929,-0.00030571,-0.00055484,0.000
 50613,-0.00496800,-0.01586471,-0.00544298,0.00014877,0.00013526,0.0001
 2867,0.00004535,-0.00015954,-0.00010227,-0.00001817,-0.00000593,-0.000
 01079,0.00002512,0.00002564,0.00000764,-0.05391667,-0.03473615,-0.0719
 1812,0.05984473,0.04846837,0.07281895,0.00096353,0.00186836,-0.0007203
 0,0.00071038,-0.00120232,-0.00024320,-0.00035791,0.00001747,0.00007329
 ,0.00028324,0.00042960,0.00000413,-0.00003054,-0.00001235,-0.00003837,
 -0.00007581,0.00021760,0.00087546,-0.01027745,-0.00184198,0.01104197,0
 .00013436,0.00018977,-0.00009548,0.00000877,-0.00004872,-0.00001590,-0
 .00000772,0.00000112,0.00001372,-0.00006145,0.00001539,0.00003202,-0.1
 3043318,-0.03864012,0.11893873,-0.01009367,-0.00480027,0.02027576,0.13
 696688,-0.00039685,-0.00534334,-0.00001698,0.00051309,0.00172176,-0.00
 112130,0.00017886,0.00040218,-0.00050602,-0.00021879,-0.00019298,0.000
 21649,-0.00006474,0.00000413,0.00003537,0.00170525,-0.00026944,-0.0011
 1611,0.02206583,0.00508961,-0.03140924,0.00004002,-0.00037701,0.000214
 28,0.00000209,-0.00006795,-0.00004270,-0.00001064,-0.00000635,-0.00001
 711,0.00013362,-0.00003444,-0.00008247,-0.04676845,-0.07439970,0.06879
 007,-0.00655527,-0.00318533,0.01554934,0.03960672,0.07960545,-0.001171
 75,-0.00245454,0.00127924,-0.00050734,0.00182818,0.00055367,0.00015001
 ,-0.00011264,-0.00026948,0.00005110,-0.00057788,0.00026731,-0.00008060
 ,-0.00002484,-0.00003729,0.00079726,0.00000812,-0.00015549,0.00915996,
 0.00236791,-0.01425417,-0.00007019,-0.00019080,0.00015816,0.00000404,-
 0.00001520,-0.00001493,-0.00000004,0.00000169,-0.00001169,0.00007265,-
 0.00001890,-0.00005440,0.11950994,0.05670778,-0.22645319,-0.00504754,-
 0.00146006,0.01040795,-0.13425282,-0.06144624,0.24340253,0.00181006,0.
 00050885,-0.00090973,-0.00096919,-0.00238509,0.00043608,-0.00082173,0.
 00046815,0.00057932,0.00010126,0.00009066,-0.00001550,0.00008244,0.000
 02471,0.00019065,-0.00018845,0.00116123,-0.00008954,-0.00619452,0.0103
 2152,-0.00255203,0.00019750,-0.00001459,-0.00004313,-0.00001855,0.0000
 1163,0.00001086,-0.00003923,0.00001505,0.00005720,-0.00001583,0.000003
 15,0.00001374,-0.13996195,0.07333196,-0.10310544,-0.01283143,0.0123979
 3,-0.01768528,0.01300662,-0.00994280,0.01162046,0.14608738,-0.00220147
 ,0.00026783,0.00226017,0.00390012,0.00105846,-0.00154678,0.00001910,-0
 .00161124,-0.00039666,0.00009993,0.00009765,0.00014522,-0.00000605,-0.
 00012622,-0.00045821,-0.00025553,-0.00038749,-0.00021155,0.01825802,-0
 .02599645,0.01459156,-0.00003954,0.00008612,-0.00008483,-0.00002758,-0
 .00004190,-0.00003412,0.00005473,-0.00004811,-0.00004632,0.00000283,-0
 .00001370,-0.00000578,0.07069695,-0.10778213,0.08319924,-0.00965261,0.
 01157041,-0.01253251,0.00408152,-0.00323540,0.00526120,-0.08571732,0.1
 2579755,-0.00003609,-0.00027874,0.00090264,0.00151146,0.00020752,-0.00
 035431,0.00041467,-0.00098783,-0.00012149,-0.00013743,-0.00016220,0.00
 003146,-0.00014846,-0.00011733,-0.00032546,-0.00000468,-0.00036249,0.0
 0031308,0.01230353,-0.01344367,0.01349505,-0.00017932,-0.00003010,-0.0
 0009488,-0.00001373,0.00001511,0.00001105,0.00003548,0.00000559,-0.000
 03148,-0.00001186,-0.00000068,0.00000380,-0.10631945,0.09088876,-0.175
 86563,-0.00328756,0.00385341,-0.00469457,-0.01584599,0.01085815,-0.014
 86822,0.11159738,-0.09062615,0.18162906,-0.00888215,0.00121697,-0.0080
 4429,0.00238765,-0.00292867,0.00079215,-0.00080889,-0.00167304,0.00486
 591,0.00000617,-0.00010425,0.00002956,0.00004645,-0.00008333,0.0002883
 7,0.00137418,-0.00445959,-0.00262777,-0.00697894,0.00260080,0.00187688
 ,-0.00238682,0.00177508,0.00169673,0.00070319,-0.00149898,-0.00111881,
 0.00040743,0.00009108,-0.00044554,0.00059304,0.00016160,-0.00001171,-0
 .00066411,-0.00409147,-0.00183884,0.00205826,0.00068055,-0.00073400,-0
 .00050440,-0.00023757,0.00004391,0.00015648,0.00049230,0.00012245,0.01
 512573,0.00649739,0.00465235,-0.00037514,0.00222958,-0.00240179,0.0016
 4754,-0.00041793,0.00119307,0.00263842,0.00001373,-0.00003108,0.000003
 28,-0.00010288,0.00002136,-0.00015237,0.00063305,-0.00585986,-0.008478
 86,-0.00784789,0.00161797,0.00073523,-0.00422522,-0.00086039,0.0013194
 7,0.00045310,0.00198296,0.00190696,0.00026745,0.00005967,-0.00022789,-
 0.00018492,-0.00034231,-0.00018128,0.00181148,-0.00229338,-0.00190594,
 -0.00045842,-0.00012566,0.00135832,0.00022185,0.00047174,0.00022324,-0
 .00034323,0.00042786,-0.00002803,0.00673094,0.00887734,-0.01351343,-0.
 00670134,-0.01246656,-0.00002683,-0.00272848,0.00178514,-0.00095764,-0
 .00066583,0.00138649,0.00019860,-0.00018857,0.00028877,0.00001725,-0.0
 0007841,0.00019568,0.00169140,-0.00011798,0.00143481,0.00310469,-0.001
 20888,0.00231333,-0.00124311,-0.00100891,-0.00010139,-0.00013898,0.001
 50149,-0.00066829,0.00028850,0.00025024,0.00016194,-0.00030301,-0.0003
 8474,-0.00008039,0.00120006,0.00053472,-0.00038991,-0.00255508,0.00079
 231,0.00008514,0.00021831,0.00029071,0.00020343,0.00007117,0.00028369,
 0.00004427,0.00429161,0.00480688,0.00589529,-0.06629800,-0.08645448,0.
 08353508,-0.00000567,0.00229198,0.00047969,-0.00215914,0.00488350,0.00
 172223,0.00066251,-0.00012381,0.00028884,0.00080000,0.00070637,-0.0010
 4245,0.00942266,0.01074577,-0.01631804,-0.01026082,-0.01304704,0.00511
 760,0.00104273,-0.00079016,-0.00028493,-0.00042212,0.00098097,0.000605
 58,0.00014324,-0.00010282,-0.00014410,-0.00039942,-0.00018161,-0.00013
 591,0.00003546,-0.00141192,-0.00008421,0.00131587,-0.00016872,-0.00030
 912,-0.00023166,-0.00005038,-0.00027905,-0.00040087,0.00029461,-0.0000
 0039,-0.00263328,-0.00527807,0.00765650,0.06938850,-0.07871533,-0.2556
 9213,0.10701352,0.00047452,0.00222124,-0.00348477,0.00282801,-0.000443
 46,-0.00497074,-0.00057949,0.00078353,-0.00069841,-0.00052063,-0.00008
 767,0.00030434,-0.01082203,-0.01674489,0.00665832,-0.00197403,0.010889
 01,-0.00505309,-0.00053939,-0.00029864,0.00099539,0.00003795,0.0010291
 3,0.00068801,0.00010293,-0.00015659,-0.00008874,-0.00010114,0.00005353
 ,-0.00010138,-0.00014716,0.00065403,0.00122189,0.00095784,-0.00007192,
 -0.00054420,-0.00010363,-0.00018292,-0.00009702,0.00006819,-0.00006326
 ,0.00020868,0.00132757,-0.00738986,0.00462311,0.08770582,0.26550086,0.
 07551900,0.09773483,-0.07204651,0.00571722,-0.00385941,-0.00181365,0.0
 0049744,0.00004360,0.00300459,0.00032585,0.00135295,0.00017980,0.00066
 340,0.00026909,0.00091373,-0.00242282,-0.00798629,0.00168343,0.0020929
 2,0.02217078,-0.00626580,-0.00125742,-0.00017399,0.00024671,-0.0000600
 3,0.00020708,0.00039399,0.00005326,-0.00005801,-0.00052516,-0.00018161
 ,-0.00003463,-0.00022206,-0.00068186,0.00057624,0.00030351,0.00016613,
 -0.00028306,-0.00024330,-0.00026134,-0.00019624,-0.00015345,-0.0001762
 1,0.00020183,-0.00007438,0.00081340,-0.00328983,-0.00008776,-0.0808073
 2,-0.10667493,0.07470630\\-0.00000214,-0.00001947,-0.00000539,-0.00000
 315,-0.00001010,-0.00000031,0.00000038,0.00001162,-0.00000417,-0.00000
 479,-0.00000072,-0.00000446,-0.00000671,-0.00000082,-0.00000746,-0.000
 01418,-0.00000243,0.00000022,0.00001452,0.00001066,-0.00000407,0.00000
 471,0.00001144,0.00000556,0.00000268,-0.00000534,0.00000024,0.00000374
 ,0.00000385,-0.00000003,-0.00000274,0.00000139,0.00000055,-0.00000255,
 0.00000149,0.00000353,-0.00000097,-0.00000091,0.00000234,-0.00000150,0
 .00000015,-0.00000059,0.00000437,0.00000365,0.00000061,0.00000011,0.00
 000217,0.00000455,0.00000822,-0.00000660,0.00000889\\\@


 SCIENCE IS A VERY HUMAN FORM OF KNOWLEDGE.
 WE ARE ALWAYS AT THE BRINK OF THE KNOWN,
 WE ALWAYS FEEL FORWARD FOR WHAT IS HOPED.
 EVERY JUDGEMENT IN SCIENCE STANDS ON THE EDGE OF ERROR, AND IS PERSONAL.
 SCIENCE IS A TRIBUTE TO WHAT WE CAN KNOW ALTHOUGH WE ARE FALLIBLE.

                     -- J. BRONOWSKI
 Job cpu time:       0 days  0 hours 15 minutes  7.0 seconds.
 Elapsed time:       0 days  0 hours  0 minutes 38.3 seconds.
 File lengths (MBytes):  RWF=     71 Int=      0 D2E=      0 Chk=     10 Scr=      1
 Normal termination of Gaussian 16 at Thu Oct 31 05:41:27 2019.
