 Entering Gaussian System, Link 0=g16
 Input=carbene_irc2.gjf
 Output=carbene_irc2.log
 Initial command:
 /usr/g16/l1.exe "/scratch/wsr/gaussian/Gau-142434.inp" -scrdir="/scratch/wsr/gaussian/"
 Entering Link 1 = /usr/g16/l1.exe PID=    142435.
  
 Copyright (c) 1988,1990,1992,1993,1995,1998,2003,2009,2016,
            Gaussian, Inc.  All Rights Reserved.
  
 This is part of the Gaussian(R) 16 program.  It is based on
 the Gaussian(R) 09 system (copyright 2009, Gaussian, Inc.),
 the Gaussian(R) 03 system (copyright 2003, Gaussian, Inc.),
 the Gaussian(R) 98 system (copyright 1998, Gaussian, Inc.),
 the Gaussian(R) 94 system (copyright 1995, Gaussian, Inc.),
 the Gaussian 92(TM) system (copyright 1992, Gaussian, Inc.),
 the Gaussian 90(TM) system (copyright 1990, Gaussian, Inc.),
 the Gaussian 88(TM) system (copyright 1988, Gaussian, Inc.),
 the Gaussian 86(TM) system (copyright 1986, Carnegie Mellon
 University), and the Gaussian 82(TM) system (copyright 1983,
 Carnegie Mellon University). Gaussian is a federally registered
 trademark of Gaussian, Inc.
  
 This software contains proprietary and confidential information,
 including trade secrets, belonging to Gaussian, Inc.
  
 This software is provided under written license and may be
 used, copied, transmitted, or stored only in accord with that
 written license.
  
 The following legend is applicable only to US Government
 contracts under FAR:
  
                    RESTRICTED RIGHTS LEGEND
  
 Use, reproduction and disclosure by the US Government is
 subject to restrictions as set forth in subparagraphs (a)
 and (c) of the Commercial Computer Software - Restricted
 Rights clause in FAR 52.227-19.
  
 Gaussian, Inc.
 340 Quinnipiac St., Bldg. 40, Wallingford CT 06492
  
  
 ---------------------------------------------------------------
 Warning -- This program may not be used in any manner that
 competes with the business of Gaussian, Inc. or will provide
 assistance to any competitor of Gaussian, Inc.  The licensee
 of this program is prohibited from giving any competitor of
 Gaussian, Inc. access to this program.  By using this program,
 the user acknowledges that Gaussian, Inc. is engaged in the
 business of creating and licensing software in the field of
 computational chemistry and represents and warrants to the
 licensee that it is not a competitor of Gaussian, Inc. and that
 it will not use this program in any manner prohibited above.
 ---------------------------------------------------------------
  

 Cite this work as:
 Gaussian 16, Revision A.03,
 M. J. Frisch, G. W. Trucks, H. B. Schlegel, G. E. Scuseria, 
 M. A. Robb, J. R. Cheeseman, G. Scalmani, V. Barone, 
 G. A. Petersson, H. Nakatsuji, X. Li, M. Caricato, A. V. Marenich, 
 J. Bloino, B. G. Janesko, R. Gomperts, B. Mennucci, H. P. Hratchian, 
 J. V. Ortiz, A. F. Izmaylov, J. L. Sonnenberg, D. Williams-Young, 
 F. Ding, F. Lipparini, F. Egidi, J. Goings, B. Peng, A. Petrone, 
 T. Henderson, D. Ranasinghe, V. G. Zakrzewski, J. Gao, N. Rega, 
 G. Zheng, W. Liang, M. Hada, M. Ehara, K. Toyota, R. Fukuda, 
 J. Hasegawa, M. Ishida, T. Nakajima, Y. Honda, O. Kitao, H. Nakai, 
 T. Vreven, K. Throssell, J. A. Montgomery, Jr., J. E. Peralta, 
 F. Ogliaro, M. J. Bearpark, J. J. Heyd, E. N. Brothers, K. N. Kudin, 
 V. N. Staroverov, T. A. Keith, R. Kobayashi, J. Normand, 
 K. Raghavachari, A. P. Rendell, J. C. Burant, S. S. Iyengar, 
 J. Tomasi, M. Cossi, J. M. Millam, M. Klene, C. Adamo, R. Cammi, 
 J. W. Ochterski, R. L. Martin, K. Morokuma, O. Farkas, 
 J. B. Foresman, and D. J. Fox, Gaussian, Inc., Wallingford CT, 2016.
 
 ******************************************
 Gaussian 16:  ES64L-G16RevA.03 25-Dec-2016
                31-Oct-2019 
 ******************************************
 %chk=carbene_irc2.chk
 %nprocshared=24
 Will use up to   24 processors via shared memory.
 ----------------------------------------------------------------------
 #p irc=(calcfc,lqa,stepsize=15,maxpoint=40) b3lyp/6-31g(d) scrf=(smd,s
 olvent=benzene) em=gd3bj
 ----------------------------------------------------------------------
 1/10=4,18=10,26=3,38=1,39=15,42=40,44=3,45=2,172=1/1,23;
 2/12=2,17=6,18=5,29=1,40=1/2;
 3/5=1,6=6,7=1,11=2,25=1,30=1,70=32201,71=2,72=12,74=-5,124=41,140=1/1,2,3;
 4//1;
 5/5=2,38=5,53=12/2;
 8/6=4,10=90,11=11/1;
 11/6=1,8=1,9=11,15=111,16=1/1,2,10;
 10/6=1,13=1/2;
 6/7=2,8=2,9=2,10=2,28=1/1;
 7/10=1,18=20,25=1/1,2,3,16;
 1/10=4,18=10,26=3,39=15,42=40,44=3,45=2/23(2);
 2/29=1/2;
 99/5=20/99;
 2/29=1/2;
 3/5=1,6=6,7=1,11=2,25=1,30=1,70=32205,71=2,72=12,74=-5,124=41,140=1/1,2,3;
 4/5=5,16=3,69=1/1;
 5/5=2,38=5,53=12/2;
 8/6=4,10=90,11=11/1;
 11/6=1,8=1,9=11,15=111,16=1/1,2,10;
 10/6=1,13=1/2;
 7/10=1,18=20,25=1/1,2,3,16;
 1/18=10,26=3,39=15,42=40,44=3,45=2/23(-8);
 2/29=1/2;
 6/7=2,8=2,9=2,10=2,19=2,28=1/1;
 99/5=20,9=1/99;
 Leave Link    1 at Thu Oct 31 06:04:02 2019, MaxMem=           0 cpu:               2.7 elap:               0.1
 (Enter /usr/g16/l101.exe)
 -------------------
 Title Card Required
 -------------------
 Symbolic Z-matrix:
 Charge =  0 Multiplicity = 1
 C                     0.00002  -0.79514   0.25874 
 C                     0.67962   1.29865  -0.09327 
 C                    -0.67959   1.29865  -0.09335 
 H                     1.38914   2.10094  -0.21956 
 H                    -1.3891    2.10092  -0.21977 
 N                    -1.08882  -0.0065    0.14889 
 N                     1.08885  -0.00646   0.14907 
 C                    -2.42626  -0.54972  -0.02083 
 H                    -2.39357  -1.26353  -0.8547 
 H                    -2.75089  -1.06205   0.88824 
 H                    -3.11662   0.26463  -0.24433 
 C                     2.42622  -0.54977  -0.02093 
 H                     2.39354  -1.26307  -0.85522 
 H                     3.11669   0.26464  -0.24386 
 H                     2.75072  -1.06269   0.88786 
 H                    -0.00022  -2.32884  -1.55616 
 H                     0.00005  -1.87632   0.14965 
 
 ITRead=  0  0  0  0  0  0  0  0  0  0  0  0  0  0  0  0  0
 MicOpt= -1 -1 -1 -1 -1 -1 -1 -1 -1 -1 -1 -1 -1 -1 -1 -1 -1
 NAtoms=     17 NQM=       17 NQMF=       0 NMMI=      0 NMMIF=      0
                NMic=       0 NMicF=      0.
                    Isotopes and Nuclear Properties:
 (Nuclear quadrupole moments (NQMom) in fm**2, nuclear magnetic moments (NMagM)
  in nuclear magnetons)

  Atom         1           2           3           4           5           6           7           8           9          10
 IAtWgt=          12          12          12           1           1          14          14          12           1           1
 AtmWgt=  12.0000000  12.0000000  12.0000000   1.0078250   1.0078250  14.0030740  14.0030740  12.0000000   1.0078250   1.0078250
 NucSpn=           0           0           0           1           1           2           2           0           1           1
 AtZEff=  -0.0000000  -0.0000000  -0.0000000  -0.0000000  -0.0000000  -0.0000000  -0.0000000  -0.0000000  -0.0000000  -0.0000000
 NQMom=    0.0000000   0.0000000   0.0000000   0.0000000   0.0000000   2.0440000   2.0440000   0.0000000   0.0000000   0.0000000
 NMagM=    0.0000000   0.0000000   0.0000000   2.7928460   2.7928460   0.4037610   0.4037610   0.0000000   2.7928460   2.7928460
 AtZNuc=   6.0000000   6.0000000   6.0000000   1.0000000   1.0000000   7.0000000   7.0000000   6.0000000   1.0000000   1.0000000

  Atom        11          12          13          14          15          16          17
 IAtWgt=           1          12           1           1           1           1           1
 AtmWgt=   1.0078250  12.0000000   1.0078250   1.0078250   1.0078250   1.0078250   1.0078250
 NucSpn=           1           0           1           1           1           1           1
 AtZEff=  -0.0000000  -0.0000000  -0.0000000  -0.0000000  -0.0000000  -0.0000000  -0.0000000
 NQMom=    0.0000000   0.0000000   0.0000000   0.0000000   0.0000000   0.0000000   0.0000000
 NMagM=    2.7928460   0.0000000   2.7928460   2.7928460   2.7928460   2.7928460   2.7928460
 AtZNuc=   1.0000000   6.0000000   1.0000000   1.0000000   1.0000000   1.0000000   1.0000000
 Leave Link  101 at Thu Oct 31 06:04:02 2019, MaxMem=   140000000 cpu:               9.6 elap:               0.4
 (Enter /usr/g16/l123.exe)
 IRC-IRC-IRC-IRC-IRC-IRC-IRC-IRC-IRC-IRC-IRC-IRC-IRC-IRC-IRC-IRC-IRC-IRC
 ------------------------------------------------------------------------
 INPUT DATA FOR L123
 ------------------------------------------------------------------------
 GENERAL PARAMETERS:
 Follow reaction path in both directions.
 Maximum points per path      =  40
 Step size                    =   0.150 bohr
 Integration scheme           = LQA                                 
 Initial Hessian              = CalcFC
 Hessian evaluation           = All updating
 Hessian updating method      = Bofill                              
 ------------------------------------------------------------------------
 IRC-IRC-IRC-IRC-IRC-IRC-IRC-IRC-IRC-IRC-IRC-IRC-IRC-IRC-IRC-IRC-IRC-IRC
 Leave Link  123 at Thu Oct 31 06:04:02 2019, MaxMem=   140000000 cpu:               0.1 elap:               0.0
 (Enter /usr/g16/l202.exe)
                          Input orientation:                          
 ---------------------------------------------------------------------
 Center     Atomic      Atomic             Coordinates (Angstroms)
 Number     Number       Type             X           Y           Z
 ---------------------------------------------------------------------
      1          6           0        0.000018   -0.795139    0.258738
      2          6           0        0.679622    1.298652   -0.093271
      3          6           0       -0.679589    1.298653   -0.093351
      4          1           0        1.389135    2.100937   -0.219562
      5          1           0       -1.389098    2.100922   -0.219773
      6          7           0       -1.088820   -0.006498    0.148888
      7          7           0        1.088847   -0.006464    0.149069
      8          6           0       -2.426256   -0.549718   -0.020831
      9          1           0       -2.393572   -1.263526   -0.854695
     10          1           0       -2.750892   -1.062054    0.888239
     11          1           0       -3.116623    0.264627   -0.244326
     12          6           0        2.426217   -0.549766   -0.020926
     13          1           0        2.393538   -1.263067   -0.855220
     14          1           0        3.116695    0.264637   -0.243862
     15          1           0        2.750724   -1.062687    0.887859
     16          1           0       -0.000219   -2.328835   -1.556164
     17          1           0        0.000050   -1.876317    0.149646
 ---------------------------------------------------------------------
                    Distance matrix (angstroms):
                    1          2          3          4          5
     1  C    0.000000
     2  C    2.229290   0.000000
     3  C    2.229304   1.359211   0.000000
     4  H    3.247410   1.078434   2.222433   0.000000
     5  H    3.247427   2.222441   1.078435   2.778233   0.000000
     6  N    1.348922   2.211209   1.389089   3.273729   2.160393
     7  N    1.348920   1.389072   2.211213   2.160370   3.273734
     8  C    2.454627   3.614996   2.544127   4.650019   2.853273
     9  H    2.681118   4.072965   3.175239   5.102144   3.568137
    10  H    2.834611   4.278402   3.290403   5.326496   3.617539
    11  H    3.330109   3.937449   2.651629   4.865645   2.521294
    12  C    2.454559   2.544106   3.614959   2.853283   4.649980
    13  H    2.681193   3.174977   4.072710   3.567830   5.101818
    14  H    3.330076   2.651639   3.937463   2.521319   4.865665
    15  H    2.834389   3.290593   4.278522   3.617848   5.326668
    16  H    2.376151   3.970000   3.969891   4.831117   4.830908
    17  H    1.086668   3.255957   3.255978   4.228998   4.229023
                    6          7          8          9         10
     6  N    0.000000
     7  N    2.177667   0.000000
     8  C    1.453488   3.560890   0.000000
     9  H    2.071153   3.836012   1.098144   0.000000
    10  H    2.103169   4.050215   1.092833   1.790555   0.000000
    11  H    2.083293   4.232520   1.090740   1.797388   1.782286
    12  C    3.560823   1.453490   4.852473   4.943176   5.281238
    13  H    3.835885   2.071199   4.943226   4.787110   5.435551
    14  H    4.232508   2.083281   5.606891   5.750777   6.121302
    15  H    4.050150   2.103153   5.281096   5.435128   5.501616
    16  H    3.079854   3.080145   3.377597   2.712025   3.891792
    17  H    2.163761   2.163754   2.770539   2.667141   2.962470
                   11         12         13         14         15
    11  H    0.000000
    12  C    5.606801   0.000000
    13  H    5.750558   1.098141   0.000000
    14  H    6.233318   1.090739   1.797385   0.000000
    15  H    6.121223   1.092833   1.790547   1.782278   0.000000
    16  H    4.261331   3.377815   2.712426   4.261852   3.891538
    17  H    3.801645   2.770400   2.667324   3.801580   2.961952
                   16         17
    16  H    0.000000
    17  H    1.764812   0.000000
 Symmetry turned off by external request.
 Stoichiometry    C5H10N2
 Framework group  C1[X(C5H10N2)]
 Deg. of freedom    45
 Full point group                 C1      NOp   1
 Rotational constants (GHZ):           5.8746930           2.0791142           1.6062996
 Leave Link  202 at Thu Oct 31 06:04:02 2019, MaxMem=   140000000 cpu:               0.1 elap:               0.0
 (Enter /usr/g16/l301.exe)
 Standard basis: 6-31G(d) (6D, 7F)
 Ernie: Thresh=  0.10000D-02 Tol=  0.10000D-05 Strict=F.
   125 basis functions,   236 primitive gaussians,   125 cartesian basis functions
    27 alpha electrons       27 beta electrons
       nuclear repulsion energy       315.7422147285 Hartrees.
 IExCor=  402 DFT=T Ex+Corr=B3LYP ExCW=0 ScaHFX=  0.200000
 ScaDFX=  0.800000  0.720000  1.000000  0.810000 ScalE2=  1.000000  1.000000
 IRadAn=      5 IRanWt=     -1 IRanGd=            0 ICorTp=0 IEmpDi=141
 NAtoms=   17 NActive=   17 NUniq=   17 SFac= 1.00D+00 NAtFMM=   60 NAOKFM=F Big=F
 Integral buffers will be    131072 words long.
 Raffenetti 2 integral format.
 Two-electron integral symmetry is turned off.
 R6Disp:  Grimme-D3(BJ) Dispersion energy=       -0.0246743548 Hartrees.
 Nuclear repulsion after empirical dispersion term =      315.7175403737 Hartrees.
 Force inversion solution in PCM.
 ------------------------------------------------------------------------------
 Polarizable Continuum Model (PCM)
 =================================
 Model                : PCM.
 Atomic radii         : SMD-Coulomb.
 Polarization charges : Total charges.
 Charge compensation  : None.
 Solution method      : Matrix inversion.
 Cavity type          : VdW (van der Waals Surface) (Alpha=1.000).
 Cavity algorithm     : GePol (No added spheres)
                        Default sphere list used, NSphG=   17.
                        Lebedev-Laikov grids with approx.  5.0 points / Ang**2.
                        Smoothing algorithm: York/Karplus (Gamma=1.0000).
                        Polarization charges: spherical gaussians, with
                                              point-specific exponents (IZeta= 3).
                        Self-potential: point-specific (ISelfS= 7).
                        Self-field    : sphere-specific E.n sum rule (ISelfD= 2).
 1st derivatives      : Analytical E(r).r(x)/FMM algorithm (CHGder, D1EAlg=3).
                        Cavity 1st derivative terms included.
 2nd derivatives      : Analytical E(r).r(xy)/FMM algorithm (CHGder, D2EAlg=3).
                        Cavity 2nd derivative terms included.
 Solvent              : Benzene, Eps=   2.270600 Eps(inf)=   2.253301
 ------------------------------------------------------------------------------
 Spheres list:
 ISph  on   Nord     Re0    Alpha      Xe            Ye            Ze
    1   C      1    1.8500  1.000      0.000018     -0.795139      0.258738
    2   C      2    1.8500  1.000      0.679622      1.298652     -0.093271
    3   C      3    1.8500  1.000     -0.679589      1.298653     -0.093351
    4   H      4    1.2000  1.000      1.389135      2.100937     -0.219562
    5   H      5    1.2000  1.000     -1.389098      2.100922     -0.219773
    6   N      6    1.8900  1.000     -1.088820     -0.006498      0.148888
    7   N      7    1.8900  1.000      1.088847     -0.006464      0.149069
    8   C      8    1.8500  1.000     -2.426256     -0.549718     -0.020831
    9   H      9    1.2000  1.000     -2.393572     -1.263526     -0.854695
   10   H     10    1.2000  1.000     -2.750892     -1.062054      0.888239
   11   H     11    1.2000  1.000     -3.116623      0.264627     -0.244326
   12   C     12    1.8500  1.000      2.426217     -0.549766     -0.020926
   13   H     13    1.2000  1.000      2.393538     -1.263067     -0.855220
   14   H     14    1.2000  1.000      3.116695      0.264637     -0.243862
   15   H     15    1.2000  1.000      2.750724     -1.062687      0.887859
   16   H     16    1.2000  1.000     -0.000219     -2.328835     -1.556164
   17   H     17    1.2000  1.000      0.000050     -1.876317      0.149646
 ------------------------------------------------------------------------------
 GePol: Number of generator spheres                  =      17
 GePol: Total number of spheres                      =      17
 GePol: Number of exposed spheres                    =      17 (100.00%)
 GePol: Number of points                             =    1315
 GePol: Average weight of points                     =       0.11
 GePol: Minimum weight of points                     =   0.59D-09
 GePol: Maximum weight of points                     =    0.17992
 GePol: Number of points with low weight             =      58
 GePol: Fraction of low-weight points (<1% of avg)   =       4.41%
 GePol: Cavity surface area                          =    148.814 Ang**2
 GePol: Cavity volume                                =    119.232 Ang**3
 ------------------------------------------------------------------------------
 Atomic radii for non-electrostatic terms: SMD-CDS.
 ------------------------------------------------------------------------------
 PCM non-electrostatic energy =        -0.0058682182 Hartrees.
 Nuclear repulsion after PCM non-electrostatic terms =      315.7116721555 Hartrees.
 Leave Link  301 at Thu Oct 31 06:04:02 2019, MaxMem=   140000000 cpu:               2.1 elap:               0.1
 (Enter /usr/g16/l302.exe)
 NPDir=0 NMtPBC=     1 NCelOv=     1 NCel=       1 NClECP=     1 NCelD=      1
         NCelK=      1 NCelE2=     1 NClLst=     1 CellRange=     0.0.
 One-electron integrals computed using PRISM.
 NBasis=   125 RedAO= T EigKep=  1.43D-03  NBF=   125
 NBsUse=   125 1.00D-06 EigRej= -1.00D+00 NBFU=   125
 Precomputing XC quadrature grid using
 IXCGrd= 4 IRadAn=           5 IRanWt=          -1 IRanGd=           0 AccXCQ= 0.00D+00.
 Generated NRdTot=       0 NPtTot=           0 NUsed=           0 NTot=          32
 NSgBfM=   125   125   125   125   125 MxSgAt=    17 MxSgA2=    17.
 Leave Link  302 at Thu Oct 31 06:04:03 2019, MaxMem=   140000000 cpu:               6.1 elap:               0.3
 (Enter /usr/g16/l303.exe)
 DipDrv:  MaxL=1.
 Leave Link  303 at Thu Oct 31 06:04:03 2019, MaxMem=   140000000 cpu:               0.6 elap:               0.0
 (Enter /usr/g16/l401.exe)
 ExpMin= 1.61D-01 ExpMax= 4.17D+03 ExpMxC= 6.27D+02 IAcc=3 IRadAn=         5 AccDes= 0.00D+00
 Harris functional with IExCor=  402 and IRadAn=       5 diagonalized for initial guess.
 HarFok:  IExCor=  402 AccDes= 0.00D+00 IRadAn=         5 IDoV= 1 UseB2=F ITyADJ=14
 ICtDFT=  3500011 ScaDFX=  1.000000  1.000000  1.000000  1.000000
 FoFCou: FMM=F IPFlag=           0 FMFlag=      100000 FMFlg1=           0
         NFxFlg=           0 DoJE=T BraDBF=F KetDBF=T FulRan=T
         wScrn=  0.000000 ICntrl=       500 IOpCl=  0 I1Cent=   200000004 NGrid=           0
         NMat0=    1 NMatS0=      1 NMatT0=    0 NMatD0=    1 NMtDS0=    0 NMtDT0=    0
 Symmetry not used in FoFCou.
 Harris En= -305.927622194411    
 JPrj=0 DoOrth=F DoCkMO=F.
 Leave Link  401 at Thu Oct 31 06:04:03 2019, MaxMem=   140000000 cpu:              11.5 elap:               0.5
 (Enter /usr/g16/l502.exe)
 Two-electron integral symmetry not used.
 Closed shell SCF:
 Using DIIS extrapolation, IDIIS=  1040.
 NGot=   140000000 LenX=   139964426 LenY=   139948360
 Requested convergence on RMS density matrix=1.00D-08 within 128 cycles.
 Requested convergence on MAX density matrix=1.00D-06.
 Requested convergence on             energy=1.00D-06.
 No special actions if energy rises.
 Fock matrices will be formed incrementally for  20 cycles.

 Cycle   1  Pass 1  IDiag  1:
 FoFJK:  IHMeth= 1 ICntrl=       0 DoSepK=F KAlg= 0 I1Cent=           0 FoldK=F
 IRaf= 980000000 NMat=       1 IRICut=       1 DoRegI=T DoRafI=F ISym2E= 0 IDoP0=0 IntGTp=1.
 FoFCou: FMM=F IPFlag=           0 FMFlag=      100000 FMFlg1=           0
         NFxFlg=           0 DoJE=F BraDBF=F KetDBF=F FulRan=T
         wScrn=  0.000000 ICntrl=         0 IOpCl=  0 I1Cent=           0 NGrid=           0
         NMat0=    1 NMatS0=      1 NMatT0=    0 NMatD0=    1 NMtDS0=    0 NMtDT0=    0
 Symmetry not used in FoFCou.
 Inv3:  Mode=1 IEnd=     5187675.
 Iteration    1 A*A^-1 deviation from unit magnitude is 4.44D-15 for   1297.
 Iteration    1 A*A^-1 deviation from orthogonality  is 1.72D-15 for   1280    836.
 Iteration    1 A^-1*A deviation from unit magnitude is 4.22D-15 for   1297.
 Iteration    1 A^-1*A deviation from orthogonality  is 1.05D-15 for   1289   1266.
 E= -305.828040584297    
 DIIS: error= 3.66D-02 at cycle   1 NSaved=   1.
 NSaved= 1 IEnMin= 1 EnMin= -305.828040584297     IErMin= 1 ErrMin= 3.66D-02
 ErrMax= 3.66D-02  0.00D+00 EMaxC= 1.00D-01 BMatC= 1.16D-01 BMatP= 1.16D-01
 IDIUse=3 WtCom= 6.34D-01 WtEn= 3.66D-01
 Coeff-Com:  0.100D+01
 Coeff-En:   0.100D+01
 Coeff:      0.100D+01
 Gap=     0.086 Goal=   None    Shift=    0.000
 GapD=    0.086 DampG=0.500 DampE=0.500 DampFc=0.2500 IDamp=-1.
 Damping current iteration by 2.50D-01
 RMSDP=5.94D-03 MaxDP=9.70D-02              OVMax= 2.47D-01

 Cycle   2  Pass 1  IDiag  1:
 RMSU=  1.47D-03    CP:  9.93D-01
 E= -305.872114628484     Delta-E=       -0.044074044187 Rises=F Damp=T
 DIIS: error= 2.04D-02 at cycle   2 NSaved=   2.
 NSaved= 2 IEnMin= 2 EnMin= -305.872114628484     IErMin= 2 ErrMin= 2.04D-02
 ErrMax= 2.04D-02  0.00D+00 EMaxC= 1.00D-01 BMatC= 3.91D-02 BMatP= 1.16D-01
 IDIUse=3 WtCom= 7.96D-01 WtEn= 2.04D-01
 Coeff-Com: -0.110D+01 0.210D+01
 Coeff-En:   0.000D+00 0.100D+01
 Coeff:     -0.878D+00 0.188D+01
 Gap=     0.136 Goal=   None    Shift=    0.000
 RMSDP=2.63D-03 MaxDP=5.15D-02 DE=-4.41D-02 OVMax= 1.07D-01

 Cycle   3  Pass 1  IDiag  1:
 RMSU=  1.25D-03    CP:  9.80D-01  2.55D+00
 E= -305.953426187064     Delta-E=       -0.081311558580 Rises=F Damp=F
 DIIS: error= 3.95D-03 at cycle   3 NSaved=   3.
 NSaved= 3 IEnMin= 3 EnMin= -305.953426187064     IErMin= 3 ErrMin= 3.95D-03
 ErrMax= 3.95D-03  0.00D+00 EMaxC= 1.00D-01 BMatC= 3.72D-03 BMatP= 3.91D-02
 IDIUse=3 WtCom= 9.60D-01 WtEn= 3.95D-02
 Coeff-Com: -0.371D+00 0.719D+00 0.652D+00
 Coeff-En:   0.000D+00 0.000D+00 0.100D+01
 Coeff:     -0.356D+00 0.690D+00 0.666D+00
 Gap=     0.131 Goal=   None    Shift=    0.000
 RMSDP=7.66D-04 MaxDP=1.98D-02 DE=-8.13D-02 OVMax= 2.54D-02

 Cycle   4  Pass 1  IDiag  1:
 RMSU=  5.97D-04    CP:  9.83D-01  2.50D+00  6.28D-01
 E= -305.955619084550     Delta-E=       -0.002192897486 Rises=F Damp=F
 DIIS: error= 2.28D-03 at cycle   4 NSaved=   4.
 NSaved= 4 IEnMin= 4 EnMin= -305.955619084550     IErMin= 4 ErrMin= 2.28D-03
 ErrMax= 2.28D-03  0.00D+00 EMaxC= 1.00D-01 BMatC= 1.27D-03 BMatP= 3.72D-03
 IDIUse=3 WtCom= 9.77D-01 WtEn= 2.28D-02
 Coeff-Com: -0.407D-01 0.910D-01 0.373D+00 0.577D+00
 Coeff-En:   0.000D+00 0.000D+00 0.286D+00 0.714D+00
 Coeff:     -0.397D-01 0.889D-01 0.371D+00 0.580D+00
 Gap=     0.141 Goal=   None    Shift=    0.000
 RMSDP=4.04D-04 MaxDP=1.11D-02 DE=-2.19D-03 OVMax= 2.50D-02

 Cycle   5  Pass 1  IDiag  1:
 RMSU=  1.81D-04    CP:  9.82D-01  2.41D+00  7.60D-01  5.20D-01
 E= -305.956919418839     Delta-E=       -0.001300334289 Rises=F Damp=F
 DIIS: error= 6.28D-04 at cycle   5 NSaved=   5.
 NSaved= 5 IEnMin= 5 EnMin= -305.956919418839     IErMin= 5 ErrMin= 6.28D-04
 ErrMax= 6.28D-04  0.00D+00 EMaxC= 1.00D-01 BMatC= 4.00D-05 BMatP= 1.27D-03
 IDIUse=3 WtCom= 9.94D-01 WtEn= 6.28D-03
 Coeff-Com:  0.363D-02-0.184D-02 0.102D+00 0.250D+00 0.646D+00
 Coeff-En:   0.000D+00 0.000D+00 0.000D+00 0.000D+00 0.100D+01
 Coeff:      0.361D-02-0.182D-02 0.101D+00 0.249D+00 0.649D+00
 Gap=     0.138 Goal=   None    Shift=    0.000
 RMSDP=9.77D-05 MaxDP=2.00D-03 DE=-1.30D-03 OVMax= 6.23D-03

 Cycle   6  Pass 1  IDiag  1:
 RMSU=  3.06D-05    CP:  9.82D-01  2.45D+00  7.56D-01  5.92D-01  6.55D-01
 E= -305.956974102510     Delta-E=       -0.000054683672 Rises=F Damp=F
 DIIS: error= 9.00D-05 at cycle   6 NSaved=   6.
 NSaved= 6 IEnMin= 6 EnMin= -305.956974102510     IErMin= 6 ErrMin= 9.00D-05
 ErrMax= 9.00D-05  0.00D+00 EMaxC= 1.00D-01 BMatC= 1.67D-06 BMatP= 4.00D-05
 IDIUse=1 WtCom= 1.00D+00 WtEn= 0.00D+00
 Coeff-Com:  0.327D-02-0.490D-02 0.290D-01 0.869D-01 0.284D+00 0.601D+00
 Coeff:      0.327D-02-0.490D-02 0.290D-01 0.869D-01 0.284D+00 0.601D+00
 Gap=     0.138 Goal=   None    Shift=    0.000
 RMSDP=1.10D-05 MaxDP=2.94D-04 DE=-5.47D-05 OVMax= 3.80D-04

 Cycle   7  Pass 1  IDiag  1:
 RMSU=  8.96D-06    CP:  9.82D-01  2.45D+00  7.56D-01  5.98D-01  6.73D-01
                    CP:  8.66D-01
 E= -305.956975376823     Delta-E=       -0.000001274313 Rises=F Damp=F
 DIIS: error= 3.14D-05 at cycle   7 NSaved=   7.
 NSaved= 7 IEnMin= 7 EnMin= -305.956975376823     IErMin= 7 ErrMin= 3.14D-05
 ErrMax= 3.14D-05  0.00D+00 EMaxC= 1.00D-01 BMatC= 1.76D-07 BMatP= 1.67D-06
 IDIUse=1 WtCom= 1.00D+00 WtEn= 0.00D+00
 Coeff-Com:  0.661D-03-0.112D-02 0.767D-02 0.240D-01 0.857D-01 0.282D+00
 Coeff-Com:  0.602D+00
 Coeff:      0.661D-03-0.112D-02 0.767D-02 0.240D-01 0.857D-01 0.282D+00
 Coeff:      0.602D+00
 Gap=     0.139 Goal=   None    Shift=    0.000
 RMSDP=5.00D-06 MaxDP=1.77D-04 DE=-1.27D-06 OVMax= 2.80D-04

 Cycle   8  Pass 1  IDiag  1:
 RMSU=  2.79D-06    CP:  9.82D-01  2.44D+00  7.57D-01  5.97D-01  6.85D-01
                    CP:  8.63D-01  7.19D-01
 E= -305.956975554426     Delta-E=       -0.000000177603 Rises=F Damp=F
 DIIS: error= 1.21D-05 at cycle   8 NSaved=   8.
 NSaved= 8 IEnMin= 8 EnMin= -305.956975554426     IErMin= 8 ErrMin= 1.21D-05
 ErrMax= 1.21D-05  0.00D+00 EMaxC= 1.00D-01 BMatC= 2.02D-08 BMatP= 1.76D-07
 IDIUse=1 WtCom= 1.00D+00 WtEn= 0.00D+00
 Coeff-Com: -0.839D-04 0.246D-04 0.122D-03 0.108D-02 0.459D-02 0.457D-01
 Coeff-Com:  0.290D+00 0.658D+00
 Coeff:     -0.839D-04 0.246D-04 0.122D-03 0.108D-02 0.459D-02 0.457D-01
 Coeff:      0.290D+00 0.658D+00
 Gap=     0.139 Goal=   None    Shift=    0.000
 RMSDP=1.33D-06 MaxDP=3.78D-05 DE=-1.78D-07 OVMax= 4.31D-05

 Cycle   9  Pass 1  IDiag  1:
 RMSU=  7.78D-07    CP:  9.82D-01  2.44D+00  7.57D-01  5.97D-01  6.86D-01
                    CP:  8.83D-01  7.89D-01  8.43D-01
 E= -305.956975572291     Delta-E=       -0.000000017865 Rises=F Damp=F
 DIIS: error= 3.11D-06 at cycle   9 NSaved=   9.
 NSaved= 9 IEnMin= 9 EnMin= -305.956975572291     IErMin= 9 ErrMin= 3.11D-06
 ErrMax= 3.11D-06  0.00D+00 EMaxC= 1.00D-01 BMatC= 1.44D-09 BMatP= 2.02D-08
 IDIUse=1 WtCom= 1.00D+00 WtEn= 0.00D+00
 Coeff-Com: -0.106D-03 0.112D-03-0.743D-03-0.171D-02-0.578D-02-0.254D-02
 Coeff-Com:  0.110D+00 0.314D+00 0.587D+00
 Coeff:     -0.106D-03 0.112D-03-0.743D-03-0.171D-02-0.578D-02-0.254D-02
 Coeff:      0.110D+00 0.314D+00 0.587D+00
 Gap=     0.139 Goal=   None    Shift=    0.000
 RMSDP=5.83D-07 MaxDP=1.24D-05 DE=-1.79D-08 OVMax= 3.24D-05

 Cycle  10  Pass 1  IDiag  1:
 RMSU=  2.62D-07    CP:  9.82D-01  2.44D+00  7.57D-01  5.97D-01  6.84D-01
                    CP:  8.88D-01  8.09D-01  8.64D-01  7.29D-01
 E= -305.956975574201     Delta-E=       -0.000000001911 Rises=F Damp=F
 DIIS: error= 7.45D-07 at cycle  10 NSaved=  10.
 NSaved=10 IEnMin=10 EnMin= -305.956975574201     IErMin=10 ErrMin= 7.45D-07
 ErrMax= 7.45D-07  0.00D+00 EMaxC= 1.00D-01 BMatC= 8.76D-11 BMatP= 1.44D-09
 IDIUse=1 WtCom= 1.00D+00 WtEn= 0.00D+00
 Coeff-Com: -0.391D-04 0.506D-04-0.267D-03-0.727D-03-0.284D-02-0.575D-02
 Coeff-Com:  0.201D-01 0.486D-01 0.221D+00 0.720D+00
 Coeff:     -0.391D-04 0.506D-04-0.267D-03-0.727D-03-0.284D-02-0.575D-02
 Coeff:      0.201D-01 0.486D-01 0.221D+00 0.720D+00
 Gap=     0.139 Goal=   None    Shift=    0.000
 RMSDP=1.18D-07 MaxDP=3.51D-06 DE=-1.91D-09 OVMax= 3.81D-06

 Cycle  11  Pass 1  IDiag  1:
 RMSU=  5.64D-08    CP:  9.82D-01  2.44D+00  7.57D-01  5.97D-01  6.84D-01
                    CP:  8.89D-01  8.16D-01  8.73D-01  7.89D-01  8.44D-01
 E= -305.956975574293     Delta-E=       -0.000000000092 Rises=F Damp=F
 DIIS: error= 1.13D-07 at cycle  11 NSaved=  11.
 NSaved=11 IEnMin=11 EnMin= -305.956975574293     IErMin=11 ErrMin= 1.13D-07
 ErrMax= 1.13D-07  0.00D+00 EMaxC= 1.00D-01 BMatC= 1.69D-12 BMatP= 8.76D-11
 IDIUse=1 WtCom= 1.00D+00 WtEn= 0.00D+00
 Coeff-Com: -0.170D-05 0.382D-05-0.102D-04-0.438D-04-0.239D-03-0.107D-02
 Coeff-Com: -0.164D-02-0.103D-01 0.821D-02 0.130D+00 0.875D+00
 Coeff:     -0.170D-05 0.382D-05-0.102D-04-0.438D-04-0.239D-03-0.107D-02
 Coeff:     -0.164D-02-0.103D-01 0.821D-02 0.130D+00 0.875D+00
 Gap=     0.139 Goal=   None    Shift=    0.000
 RMSDP=2.64D-08 MaxDP=1.01D-06 DE=-9.17D-11 OVMax= 7.62D-07

 Cycle  12  Pass 1  IDiag  1:
 RMSU=  1.00D-08    CP:  9.82D-01  2.44D+00  7.57D-01  5.97D-01  6.84D-01
                    CP:  8.89D-01  8.17D-01  8.74D-01  8.03D-01  8.96D-01
                    CP:  1.00D+00
 E= -305.956975574297     Delta-E=       -0.000000000004 Rises=F Damp=F
 DIIS: error= 2.85D-08 at cycle  12 NSaved=  12.
 NSaved=12 IEnMin=12 EnMin= -305.956975574297     IErMin=12 ErrMin= 2.85D-08
 ErrMax= 2.85D-08  0.00D+00 EMaxC= 1.00D-01 BMatC= 1.67D-13 BMatP= 1.69D-12
 IDIUse=1 WtCom= 1.00D+00 WtEn= 0.00D+00
 Coeff-Com:  0.626D-08 0.730D-06 0.641D-06-0.478D-05-0.495D-04-0.382D-03
 Coeff-Com: -0.114D-02-0.573D-02-0.115D-02 0.447D-01 0.398D+00 0.566D+00
 Coeff:      0.626D-08 0.730D-06 0.641D-06-0.478D-05-0.495D-04-0.382D-03
 Coeff:     -0.114D-02-0.573D-02-0.115D-02 0.447D-01 0.398D+00 0.566D+00
 Gap=     0.139 Goal=   None    Shift=    0.000
 RMSDP=4.94D-09 MaxDP=1.29D-07 DE=-3.87D-12 OVMax= 2.12D-07

 Error on total polarization charges =  0.02884
 SCF Done:  E(RB3LYP) =  -305.956975574     A.U. after   12 cycles
            NFock= 12  Conv=0.49D-08     -V/T= 2.0098
 KE= 3.029929799600D+02 PE=-1.338717165474D+03 EE= 4.140555377843D+02
 SMD-CDS (non-electrostatic) energy       (kcal/mol) =      -3.68
 (included in total energy above)
 Leave Link  502 at Thu Oct 31 06:04:11 2019, MaxMem=   140000000 cpu:             189.1 elap:               8.2
 (Enter /usr/g16/l801.exe)
 DoSCS=F DFT=T ScalE2(SS,OS)=  1.000000  1.000000
 Range of M.O.s used for correlation:     1   125
 NBasis=   125 NAE=    27 NBE=    27 NFC=     0 NFV=     0
 NROrb=    125 NOA=    27 NOB=    27 NVA=    98 NVB=    98
 Leave Link  801 at Thu Oct 31 06:04:11 2019, MaxMem=   140000000 cpu:               1.5 elap:               0.1
 (Enter /usr/g16/l1101.exe)
 Using compressed storage, NAtomX=    17.
 Will process     18 centers per pass.
 R6Disp: Adding Grimme-D3(BJ) dispersion energy 1st derivatives to the gradient.
 Leave Link 1101 at Thu Oct 31 06:04:12 2019, MaxMem=   140000000 cpu:               3.9 elap:               0.2
 (Enter /usr/g16/l1102.exe)
 Symmetrizing basis deriv contribution to polar:
 IMax=3 JMax=2 DiffMx= 0.00D+00
 Leave Link 1102 at Thu Oct 31 06:04:12 2019, MaxMem=   140000000 cpu:               1.5 elap:               0.1
 (Enter /usr/g16/l1110.exe)
 Forming Gx(P) for the SCF density, NAtomX=    17.
 Integral derivatives from FoFJK, PRISM(SPDF).
 Do as many integral derivatives as possible in FoFJK.
 G2DrvN: MDV=     139998640.
 G2DrvN: will do    18 centers at a time, making    1 passes.
 Calling FoFCou, ICntrl=  3107 FMM=F I1Cent=   0 AccDes= 0.00D+00.
 FoFJK:  IHMeth= 1 ICntrl=    3107 DoSepK=F KAlg= 0 I1Cent=           0 FoldK=F
 IRaf=         0 NMat=       1 IRICut=       1 DoRegI=T DoRafI=F ISym2E= 0 IDoP0=0 IntGTp=1.
 FoFCou: FMM=F IPFlag=           0 FMFlag=      100000 FMFlg1=           0
         NFxFlg=           0 DoJE=F BraDBF=F KetDBF=F FulRan=T
         wScrn=  0.000000 ICntrl=      3107 IOpCl=  0 I1Cent=           0 NGrid=           0
         NMat0=    1 NMatS0=      1 NMatT0=    0 NMatD0=    1 NMtDS0=    0 NMtDT0=    0
 Symmetry not used in FoFCou.
 NEqPCM:  Using equilibrium solvation (IEInf=0, Eps=   2.2706, EpsInf=   2.2533)
 G2PCM: DoFxE=T DoFxN=T DoGrad=T DoDP/DQ/DG/TGxP=FFFF NFrqRd=   0 IEInf=0 SqF1=F DoCFld=F IF1Alg=4.
 GePol: Maximum number of non-zero 1st derivatives   =     245
 End of G2Drv F.D. properties file   721 does not exist.
 End of G2Drv F.D. properties file   722 does not exist.
 End of G2Drv F.D. properties file   788 does not exist.
 Leave Link 1110 at Thu Oct 31 06:04:21 2019, MaxMem=   140000000 cpu:             218.5 elap:               9.1
 (Enter /usr/g16/l1002.exe)
 Minotr:  Closed shell wavefunction.
          IDoAtm=11111111111111111
 NEqPCM:  Using equilibrium solvation (IEInf=0, Eps=   2.2706, EpsInf=   2.2533)
          Direct CPHF calculation.
          Differentiating once with respect to nuclear coordinates.
          Requested convergence is 1.0D-08 RMS, and 1.0D-07 maximum.
          Secondary convergence is 1.0D-12 RMS, and 1.0D-12 maximum.
          NewPWx=T KeepS1=F KeepF1=F KeepIn=T MapXYZ=F SortEE=F KeepMc=T.
         5032 words used for storage of precomputed grid.
 Keep R1 ints in memory in canonical form, NReq=53753287.
 FoFCou: FMM=F IPFlag=           0 FMFlag=           0 FMFlg1=           0
         NFxFlg=           0 DoJE=F BraDBF=F KetDBF=F FulRan=T
         wScrn=  0.000000 ICntrl=       600 IOpCl=  0 I1Cent=           0 NGrid=           0
         NMat0=    1 NMatS0=   7875 NMatT0=    0 NMatD0=    1 NMtDS0=    0 NMtDT0=    0
 Symmetry not used in FoFCou.
 Two-electron integral symmetry not used.
          MDV=     140000000 using IRadAn=       1.
          Solving linear equations simultaneously, MaxMat=       0.
          There are    54 degrees of freedom in the 1st order CPHF.  IDoFFX=6 NUNeed=     0.
     48 vectors produced by pass  0 Test12= 4.90D-15 1.85D-09 XBig12= 1.30D-01 1.77D-01.
 AX will form    48 AO Fock derivatives at one time.
     48 vectors produced by pass  1 Test12= 4.90D-15 1.85D-09 XBig12= 3.67D-02 9.13D-02.
     48 vectors produced by pass  2 Test12= 4.90D-15 1.85D-09 XBig12= 1.58D-04 2.43D-03.
     48 vectors produced by pass  3 Test12= 4.90D-15 1.85D-09 XBig12= 2.69D-07 9.09D-05.
     48 vectors produced by pass  4 Test12= 4.90D-15 1.85D-09 XBig12= 3.29D-10 3.61D-06.
     28 vectors produced by pass  5 Test12= 4.90D-15 1.85D-09 XBig12= 1.99D-13 5.65D-08.
      1 vectors produced by pass  6 Test12= 4.90D-15 1.85D-09 XBig12= 7.73D-17 2.31D-09.
 InvSVY:  IOpt=1 It=  1 EMax= 6.66D-16
 Solved reduced A of dimension   269 with    54 vectors.
 End of Minotr F.D. properties file   721 does not exist.
 End of Minotr F.D. properties file   722 does not exist.
 End of Minotr F.D. properties file   788 does not exist.
 Leave Link 1002 at Thu Oct 31 06:04:29 2019, MaxMem=   140000000 cpu:             205.1 elap:               8.6
 (Enter /usr/g16/l601.exe)
 Copying SCF densities to generalized density rwf, IOpCl= 0 IROHF=0.

 **********************************************************************

            Population analysis using the SCF density.

 **********************************************************************

 Alpha  occ. eigenvalues --  -14.40757 -14.40756 -10.25807 -10.23412 -10.23339
 Alpha  occ. eigenvalues --  -10.22652 -10.22652  -1.05194  -0.94075  -0.79315
 Alpha  occ. eigenvalues --   -0.75048  -0.70100  -0.62683  -0.60003  -0.54914
 Alpha  occ. eigenvalues --   -0.49249  -0.47374  -0.45798  -0.45591  -0.45045
 Alpha  occ. eigenvalues --   -0.44320  -0.40563  -0.40213  -0.38854  -0.29313
 Alpha  occ. eigenvalues --   -0.25517  -0.13408
 Alpha virt. eigenvalues --    0.00446   0.02820   0.09349   0.10562   0.12647
 Alpha virt. eigenvalues --    0.14057   0.14375   0.15246   0.15260   0.17290
 Alpha virt. eigenvalues --    0.17919   0.18848   0.19592   0.24239   0.25293
 Alpha virt. eigenvalues --    0.32152   0.34914   0.42650   0.46369   0.47610
 Alpha virt. eigenvalues --    0.48786   0.50770   0.51503   0.53402   0.55321
 Alpha virt. eigenvalues --    0.57681   0.60283   0.62955   0.67063   0.68987
 Alpha virt. eigenvalues --    0.71976   0.73272   0.77801   0.80286   0.80477
 Alpha virt. eigenvalues --    0.81476   0.82323   0.84512   0.86229   0.89003
 Alpha virt. eigenvalues --    0.89319   0.90305   0.92467   0.93977   0.94609
 Alpha virt. eigenvalues --    0.97474   1.03161   1.04681   1.14969   1.17436
 Alpha virt. eigenvalues --    1.19610   1.22387   1.23045   1.33531   1.34510
 Alpha virt. eigenvalues --    1.37306   1.38992   1.48775   1.50646   1.57914
 Alpha virt. eigenvalues --    1.65805   1.81558   1.83494   1.88500   1.90934
 Alpha virt. eigenvalues --    1.91787   1.96211   1.97025   2.00658   2.05014
 Alpha virt. eigenvalues --    2.05663   2.14470   2.14629   2.16969   2.20872
 Alpha virt. eigenvalues --    2.23805   2.25778   2.29014   2.32048   2.33445
 Alpha virt. eigenvalues --    2.35335   2.47182   2.50251   2.57591   2.63058
 Alpha virt. eigenvalues --    2.70503   2.75707   2.77965   2.99703   3.07391
 Alpha virt. eigenvalues --    3.10385   3.93135   4.01518   4.09649   4.23121
 Alpha virt. eigenvalues --    4.25539   4.40151   4.42203
          Condensed to atoms (all electrons):
               1          2          3          4          5          6
     1  C    4.877135  -0.089503  -0.089469   0.005942   0.005943   0.402903
     2  C   -0.089503   4.838117   0.608442   0.373075  -0.033404  -0.051330
     3  C   -0.089469   0.608442   4.838080  -0.033404   0.373073   0.373936
     4  H    0.005942   0.373075  -0.033404   0.495222  -0.000241   0.002722
     5  H    0.005943  -0.033404   0.373073  -0.000241   0.495218  -0.039501
     6  N    0.402903  -0.051330   0.373936   0.002722  -0.039501   6.612323
     7  N    0.402908   0.373938  -0.051342  -0.039501   0.002722  -0.039050
     8  C   -0.042512   0.006362  -0.037662  -0.000091  -0.002770   0.293070
     9  H   -0.005973  -0.000022   0.001429   0.000005   0.000103  -0.043934
    10  H   -0.001113  -0.000195   0.001933   0.000003   0.000027  -0.035537
    11  H    0.003822   0.000051  -0.002774  -0.000006   0.003469  -0.030665
    12  C   -0.042524  -0.037662   0.006361  -0.002770  -0.000091   0.003809
    13  H   -0.005970   0.001426  -0.000021   0.000103   0.000005  -0.000446
    14  H    0.003823  -0.002775   0.000052   0.003468  -0.000006  -0.000184
    15  H   -0.001111   0.001936  -0.000196   0.000027   0.000003   0.000049
    16  H   -0.036245   0.000546   0.000549   0.000018   0.000018  -0.016213
    17  H    0.303633   0.002960   0.002963  -0.000069  -0.000069  -0.040340
               7          8          9         10         11         12
     1  C    0.402908  -0.042512  -0.005973  -0.001113   0.003822  -0.042524
     2  C    0.373938   0.006362  -0.000022  -0.000195   0.000051  -0.037662
     3  C   -0.051342  -0.037662   0.001429   0.001933  -0.002774   0.006361
     4  H   -0.039501  -0.000091   0.000005   0.000003  -0.000006  -0.002770
     5  H    0.002722  -0.002770   0.000103   0.000027   0.003469  -0.000091
     6  N   -0.039050   0.293070  -0.043934  -0.035537  -0.030665   0.003809
     7  N    6.612327   0.003810  -0.000445   0.000049  -0.000184   0.293071
     8  C    0.003810   5.026374   0.340124   0.382071   0.372982  -0.000109
     9  H   -0.000445   0.340124   0.517904  -0.032229  -0.018814  -0.000020
    10  H    0.000049   0.382071  -0.032229   0.523929  -0.027732  -0.000000
    11  H   -0.000184   0.372982  -0.018814  -0.027732   0.518294   0.000004
    12  C    0.293071  -0.000109  -0.000020  -0.000000   0.000004   5.026341
    13  H   -0.043936  -0.000020   0.000049   0.000001   0.000001   0.340152
    14  H   -0.030667   0.000004   0.000001  -0.000000  -0.000000   0.372979
    15  H   -0.035534  -0.000000   0.000001  -0.000002  -0.000000   0.382072
    16  H   -0.016202  -0.009870   0.027623  -0.000460   0.000197  -0.009857
    17  H   -0.040340  -0.003709   0.007061  -0.000181   0.000124  -0.003705
              13         14         15         16         17
     1  C   -0.005970   0.003823  -0.001111  -0.036245   0.303633
     2  C    0.001426  -0.002775   0.001936   0.000546   0.002960
     3  C   -0.000021   0.000052  -0.000196   0.000549   0.002963
     4  H    0.000103   0.003468   0.000027   0.000018  -0.000069
     5  H    0.000005  -0.000006   0.000003   0.000018  -0.000069
     6  N   -0.000446  -0.000184   0.000049  -0.016213  -0.040340
     7  N   -0.043936  -0.030667  -0.035534  -0.016202  -0.040340
     8  C   -0.000020   0.000004  -0.000000  -0.009870  -0.003709
     9  H    0.000049   0.000001   0.000001   0.027623   0.007061
    10  H    0.000001  -0.000000  -0.000002  -0.000460  -0.000181
    11  H    0.000001  -0.000000  -0.000000   0.000197   0.000124
    12  C    0.340152   0.372979   0.382072  -0.009857  -0.003705
    13  H    0.517907  -0.018821  -0.032230   0.027600   0.007057
    14  H   -0.018821   0.518307  -0.027728   0.000197   0.000124
    15  H   -0.032230  -0.027728   0.523912  -0.000460  -0.000181
    16  H    0.027600   0.000197  -0.000460   1.584730   0.100025
    17  H    0.007057   0.000124  -0.000181   0.100025   0.444127
 Mulliken charges:
               1
     1  C    0.308311
     2  C    0.008039
     3  C    0.008048
     4  H    0.195497
     5  H    0.195502
     6  N   -0.391613
     7  N   -0.391625
     8  C   -0.328053
     9  H    0.207139
    10  H    0.189437
    11  H    0.181231
    12  C   -0.328051
    13  H    0.207145
    14  H    0.181226
    15  H    0.189443
    16  H   -0.652196
    17  H    0.220521
 Sum of Mulliken charges =  -0.00000
 Mulliken charges with hydrogens summed into heavy atoms:
               1
     1  C   -0.123364
     2  C    0.203535
     3  C    0.203550
     6  N   -0.391613
     7  N   -0.391625
     8  C    0.249754
    12  C    0.249763
 APT charges:
               1
     1  C   -0.035421
     2  C   -0.423046
     3  C   -0.423023
     4  H    0.617380
     5  H    0.617381
     6  N   -0.284968
     7  N   -0.284945
     8  C   -1.210705
     9  H    0.385336
    10  H    0.515115
    11  H    0.544702
    12  C   -1.210749
    13  H    0.385347
    14  H    0.544708
    15  H    0.515120
    16  H   -0.635708
    17  H    0.383476
 Sum of APT charges =  -0.00000
 APT charges with hydrogens summed into heavy atoms:
               1
     1  C   -0.287653
     2  C    0.194335
     3  C    0.194358
     6  N   -0.284968
     7  N   -0.284945
     8  C    0.234447
    12  C    0.234426
 Electronic spatial extent (au):  <R**2>=            815.8457
 Charge=             -0.0000 electrons
 Dipole moment (field-independent basis, Debye):
    X=              0.0006    Y=              6.3385    Z=              4.3609  Tot=              7.6938
 Quadrupole moment (field-independent basis, Debye-Ang):
   XX=            -28.9972   YY=            -53.4122   ZZ=            -53.3352
   XY=             -0.0021   XZ=             -0.0011   YZ=            -12.5321
 Traceless Quadrupole moment (field-independent basis, Debye-Ang):
   XX=             16.2510   YY=             -8.1640   ZZ=             -8.0870
   XY=             -0.0021   XZ=             -0.0011   YZ=            -12.5321
 Octapole moment (field-independent basis, Debye-Ang**2):
  XXX=              0.0006  YYY=             54.6222  ZZZ=             20.2916  XYY=              0.0052
  XXY=              2.9135  XXZ=              1.2284  XZZ=              0.0014  YZZ=             18.6628
  YYZ=             27.9989  XYZ=              0.0035
 Hexadecapole moment (field-independent basis, Debye-Ang**3):
 XXXX=           -610.1911 YYYY=           -400.5962 ZZZZ=           -117.7617 XXXY=             -0.0040
 XXXZ=              0.0001 YYYX=             -0.0130 YYYZ=            -86.3019 ZZZX=             -0.0077
 ZZZY=            -45.7778 XXYY=           -151.6972 XXZZ=           -130.7441 YYZZ=           -115.3925
 XXYZ=            -11.1326 YYXZ=             -0.0028 ZZXY=             -0.0066
 N-N= 3.157116721555D+02 E-N=-1.338717166336D+03  KE= 3.029929799600D+02
  Exact polarizability:   0.000   0.000   0.000   0.000   0.000   0.000
 Approx polarizability: 117.575   0.006 136.217   0.007  30.260  91.851
 No NMR shielding tensors so no spin-rotation constants.
 Leave Link  601 at Thu Oct 31 06:04:30 2019, MaxMem=   140000000 cpu:               3.6 elap:               0.2
 (Enter /usr/g16/l701.exe)
 ... and contract with generalized density number  0.
 Compute integral second derivatives.
 R6Disp: Adding Grimme-D3(BJ) dispersion energy 2nd derivatives to the Hessian.
 D2PCM: PCM CHGder 2nd derivatives, FixD1E=F FixD2E=F DoIter=F DoCFld=F I1PDM=0
 GePol: Maximum number of non-zero 2nd derivatives   =     245
 Leave Link  701 at Thu Oct 31 06:04:33 2019, MaxMem=   140000000 cpu:              85.6 elap:               3.6
 (Enter /usr/g16/l702.exe)
 L702 exits ... SP integral derivatives will be done elsewhere.
 Leave Link  702 at Thu Oct 31 06:04:33 2019, MaxMem=   140000000 cpu:               1.5 elap:               0.1
 (Enter /usr/g16/l703.exe)
 Integral derivatives from FoFJK, PRISM(SPDF).
 Compute integral second derivatives, UseDBF=F ICtDFT=           0.
 Calling FoFJK, ICntrl=    100147 FMM=F ISym2X=0 I1Cent= 0 IOpClX= 0 NMat=1 NMatS=1 NMatT=0.
 FoFJK:  IHMeth= 1 ICntrl=  100147 DoSepK=F KAlg= 0 I1Cent=           0 FoldK=F
 IRaf=         0 NMat=       1 IRICut=       1 DoRegI=T DoRafI=F ISym2E= 0 IDoP0=0 IntGTp=1.
 FoFCou: FMM=F IPFlag=           0 FMFlag=      100000 FMFlg1=         800
         NFxFlg=           0 DoJE=F BraDBF=F KetDBF=F FulRan=T
         wScrn=  0.000000 ICntrl=    100147 IOpCl=  0 I1Cent=           0 NGrid=           0
         NMat0=    1 NMatS0=      1 NMatT0=    0 NMatD0=    1 NMtDS0=    0 NMtDT0=    0
 Symmetry not used in FoFCou.
 Leave Link  703 at Thu Oct 31 06:04:44 2019, MaxMem=   140000000 cpu:             265.5 elap:              11.1
 (Enter /usr/g16/l716.exe)
 Dipole        = 2.42714480D-04 2.49376644D+00 1.71572466D+00
 Polarizability= 0.00000000D+00 0.00000000D+00 0.00000000D+00
                 0.00000000D+00 0.00000000D+00 0.00000000D+00
 -------------------------------------------------------------------
 Center     Atomic                   Forces (Hartrees/Bohr)
 Number     Number              X              Y              Z
 -------------------------------------------------------------------
      1        6          -0.000012658    0.000015276    0.000006594
      2        6          -0.000003773    0.000009313    0.000003157
      3        6           0.000003640   -0.000011661    0.000001899
      4        1           0.000000232    0.000000449    0.000006558
      5        1           0.000000180   -0.000000288    0.000010141
      6        7           0.000008861    0.000007939    0.000009645
      7        7          -0.000006278   -0.000015464   -0.000007470
      8        6           0.000006223   -0.000009494   -0.000007818
      9        1          -0.000004554    0.000003498   -0.000001705
     10        1          -0.000000316   -0.000004527   -0.000002855
     11        1           0.000002590    0.000000392    0.000001285
     12        6           0.000004844    0.000000945   -0.000001757
     13        1           0.000001368    0.000002348   -0.000000641
     14        1           0.000000546    0.000000101    0.000001481
     15        1          -0.000000357   -0.000004590   -0.000003348
     16        1           0.000003554    0.000000083   -0.000003570
     17        1          -0.000004102    0.000005679   -0.000011595
 -------------------------------------------------------------------
 Cartesian Forces:  Max     0.000015464 RMS     0.000006196
 Z-matrix is all fixed cartesians, so copy forces.
 Leave Link  716 at Thu Oct 31 06:04:45 2019, MaxMem=   140000000 cpu:               1.4 elap:               0.1
 (Enter /usr/g16/l123.exe)
 IRC-IRC-IRC-IRC-IRC-IRC-IRC-IRC-IRC-IRC-IRC-IRC-IRC-IRC-IRC-IRC-IRC-IRC
          ******** Start new reaction path calculation ********
 Current Structure is TS -> form Hessian eigenvectors.
                            Diagonalizing Hessian.
 Supplied step size of   0.1500 bohr.
    Integration on MW PES will use step size of   0.1537 sqrt(amu)*bohr.
 Point Number:   0          Path Number:   1
 Calculating another point on the path.
 Point Number  1 in FORWARD path direction.
 Using LQA Reaction Path Following.
 IRC-IRC-IRC-IRC-IRC-IRC-IRC-IRC-IRC-IRC-IRC-IRC-IRC-IRC-IRC-IRC-IRC-IRC
 Leave Link  123 at Thu Oct 31 06:04:45 2019, MaxMem=   140000000 cpu:               0.3 elap:               0.0
 (Enter /usr/g16/l202.exe)
                          Input orientation:                          
 ---------------------------------------------------------------------
 Center     Atomic      Atomic             Coordinates (Angstroms)
 Number     Number       Type             X           Y           Z
 ---------------------------------------------------------------------
      1          6           0        0.000015   -0.836929    0.240117
      2          6           0        0.679846    1.257478   -0.115764
      3          6           0       -0.679818    1.257479   -0.115844
      4          1           0        1.389065    2.060244   -0.241062
      5          1           0       -1.389033    2.060230   -0.241273
      6          7           0       -1.087990   -0.047699    0.125066
      7          7           0        1.088012   -0.047666    0.125247
      8          6           0       -2.426055   -0.591252   -0.043558
      9          1           0       -2.394746   -1.306147   -0.876224
     10          1           0       -2.750010   -1.102591    0.866180
     11          1           0       -3.116421    0.222865   -0.267880
     12          6           0        2.426011   -0.591300   -0.043653
     13          1           0        2.394707   -1.305687   -0.876752
     14          1           0        3.116487    0.222877   -0.267416
     15          1           0        2.749837   -1.103226    0.865800
     16          1           0       -0.000214   -2.403783   -1.559800
     17          1           0        0.000040   -1.919296    0.057577
 ---------------------------------------------------------------------
                    Distance matrix (angstroms):
                    1          2          3          4          5
     1  C    0.000000
     2  C    2.230552   0.000000
     3  C    2.230566   1.359664   0.000000
     4  H    3.248785   1.078483   2.222698   0.000000
     5  H    3.248803   2.222706   1.078484   2.778098   0.000000
     6  N    1.349027   2.210595   1.388572   3.273114   2.160601
     7  N    1.349025   1.388555   2.210599   2.160578   3.273119
     8  C    2.454922   3.615195   2.544086   4.650224   2.853920
     9  H    2.683517   4.074750   3.176686   5.104238   3.570310
    10  H    2.832873   4.277622   3.289376   5.325547   3.616925
    11  H    3.330675   3.937665   2.651523   4.865807   2.522000
    12  C    2.454855   2.544066   3.615158   2.853929   4.650185
    13  H    2.683595   3.176423   4.074494   3.570001   5.103912
    14  H    3.330642   2.651531   3.937678   2.522023   4.865826
    15  H    2.832651   3.289567   4.277743   3.617234   5.325721
    16  H    2.386364   3.994064   3.993959   4.857644   4.857442
    17  H    1.097652   3.253318   3.253334   4.225555   4.225572
                    6          7          8          9         10
     6  N    0.000000
     7  N    2.176001   0.000000
     8  C    1.454064   3.559866   0.000000
     9  H    2.072169   3.836186   1.097902   0.000000
    10  H    2.103415   4.048735   1.092720   1.789866   0.000000
    11  H    2.083781   4.231429   1.090740   1.796879   1.782466
    12  C    3.559799   1.454066   4.852066   4.944075   5.280189
    13  H    3.836059   2.072214   4.944125   4.789453   5.435731
    14  H    4.231416   2.083768   5.606486   5.751717   6.120269
    15  H    4.048671   2.103399   5.280047   5.435306   5.499846
    16  H    3.094053   3.094335   3.386586   2.721372   3.890997
    17  H    2.165927   2.165932   2.767646   2.642525   2.980540
                   11         12         13         14         15
    11  H    0.000000
    12  C    5.606397   0.000000
    13  H    5.751498   1.097899   0.000000
    14  H    6.232908   1.090739   1.796876   0.000000
    15  H    6.120190   1.092719   1.789859   1.782458   0.000000
    16  H    4.275404   3.386792   2.721767   4.275912   3.890728
    17  H    3.795670   2.767518   2.642710   3.795625   2.980030
                   16         17
    16  H    0.000000
    17  H    1.688383   0.000000
 Symmetry turned off by external request.
 Stoichiometry    C5H10N2
 Framework group  C1[X(C5H10N2)]
 Deg. of freedom    45
 Full point group                 C1      NOp   1
 Rotational constants (GHZ):           5.8651909           2.0801519           1.6056694
 Leave Link  202 at Thu Oct 31 06:04:45 2019, MaxMem=   140000000 cpu:               0.1 elap:               0.0
 (Enter /usr/g16/l301.exe)
 Standard basis: 6-31G(d) (6D, 7F)
 Ernie: Thresh=  0.10000D-02 Tol=  0.10000D-05 Strict=F.
   125 basis functions,   236 primitive gaussians,   125 cartesian basis functions
    27 alpha electrons       27 beta electrons
       nuclear repulsion energy       315.6902236685 Hartrees.
 IExCor=  402 DFT=T Ex+Corr=B3LYP ExCW=0 ScaHFX=  0.200000
 ScaDFX=  0.800000  0.720000  1.000000  0.810000 ScalE2=  1.000000  1.000000
 IRadAn=      5 IRanWt=     -1 IRanGd=            0 ICorTp=0 IEmpDi=141
 NAtoms=   17 NActive=   17 NUniq=   17 SFac= 1.00D+00 NAtFMM=   60 NAOKFM=F Big=F
 Integral buffers will be    131072 words long.
 Raffenetti 2 integral format.
 Two-electron integral symmetry is turned off.
 R6Disp:  Grimme-D3(BJ) Dispersion energy=       -0.0246648293 Hartrees.
 Nuclear repulsion after empirical dispersion term =      315.6655588392 Hartrees.
 Force inversion solution in PCM.
 ------------------------------------------------------------------------------
 Polarizable Continuum Model (PCM)
 =================================
 Model                : PCM.
 Atomic radii         : SMD-Coulomb.
 Polarization charges : Total charges.
 Charge compensation  : None.
 Solution method      : Matrix inversion.
 Cavity type          : VdW (van der Waals Surface) (Alpha=1.000).
 Cavity algorithm     : GePol (No added spheres)
                        Default sphere list used, NSphG=   17.
                        Lebedev-Laikov grids with approx.  5.0 points / Ang**2.
                        Smoothing algorithm: York/Karplus (Gamma=1.0000).
                        Polarization charges: spherical gaussians, with
                                              point-specific exponents (IZeta= 3).
                        Self-potential: point-specific (ISelfS= 7).
                        Self-field    : sphere-specific E.n sum rule (ISelfD= 2).
 1st derivatives      : Analytical E(r).r(x)/FMM algorithm (CHGder, D1EAlg=3).
                        Cavity 1st derivative terms included.
 Solvent              : Benzene, Eps=   2.270600 Eps(inf)=   2.253301
 ------------------------------------------------------------------------------
 Spheres list:
 ISph  on   Nord     Re0    Alpha      Xe            Ye            Ze
    1   C      1    1.8500  1.000      0.000015     -0.836929      0.240117
    2   C      2    1.8500  1.000      0.679846      1.257478     -0.115764
    3   C      3    1.8500  1.000     -0.679818      1.257479     -0.115844
    4   H      4    1.2000  1.000      1.389065      2.060244     -0.241062
    5   H      5    1.2000  1.000     -1.389033      2.060230     -0.241273
    6   N      6    1.8900  1.000     -1.087990     -0.047699      0.125066
    7   N      7    1.8900  1.000      1.088012     -0.047666      0.125247
    8   C      8    1.8500  1.000     -2.426055     -0.591252     -0.043558
    9   H      9    1.2000  1.000     -2.394746     -1.306147     -0.876224
   10   H     10    1.2000  1.000     -2.750010     -1.102591      0.866180
   11   H     11    1.2000  1.000     -3.116421      0.222865     -0.267880
   12   C     12    1.8500  1.000      2.426011     -0.591300     -0.043653
   13   H     13    1.2000  1.000      2.394707     -1.305687     -0.876752
   14   H     14    1.2000  1.000      3.116487      0.222877     -0.267416
   15   H     15    1.2000  1.000      2.749837     -1.103226      0.865800
   16   H     16    1.2000  1.000     -0.000214     -2.403783     -1.559800
   17   H     17    1.2000  1.000      0.000040     -1.919296      0.057577
 ------------------------------------------------------------------------------
 GePol: Number of generator spheres                  =      17
 GePol: Total number of spheres                      =      17
 GePol: Number of exposed spheres                    =      17 (100.00%)
 GePol: Number of points                             =    1316
 GePol: Average weight of points                     =       0.11
 GePol: Minimum weight of points                     =   0.37D-07
 GePol: Maximum weight of points                     =    0.17992
 GePol: Number of points with low weight             =      55
 GePol: Fraction of low-weight points (<1% of avg)   =       4.18%
 GePol: Cavity surface area                          =    148.568 Ang**2
 GePol: Cavity volume                                =    119.098 Ang**3
 ------------------------------------------------------------------------------
 Atomic radii for non-electrostatic terms: SMD-CDS.
 ------------------------------------------------------------------------------
 PCM non-electrostatic energy =        -0.0059700992 Hartrees.
 Nuclear repulsion after PCM non-electrostatic terms =      315.6595887400 Hartrees.
 Leave Link  301 at Thu Oct 31 06:04:45 2019, MaxMem=   140000000 cpu:               2.1 elap:               0.1
 (Enter /usr/g16/l302.exe)
 NPDir=0 NMtPBC=     1 NCelOv=     1 NCel=       1 NClECP=     1 NCelD=      1
         NCelK=      1 NCelE2=     1 NClLst=     1 CellRange=     0.0.
 One-electron integrals computed using PRISM.
 NBasis=   125 RedAO= T EigKep=  1.43D-03  NBF=   125
 NBsUse=   125 1.00D-06 EigRej= -1.00D+00 NBFU=   125
 Precomputing XC quadrature grid using
 IXCGrd= 4 IRadAn=           5 IRanWt=          -1 IRanGd=           0 AccXCQ= 0.00D+00.
 Generated NRdTot=       0 NPtTot=           0 NUsed=           0 NTot=          32
 NSgBfM=   125   125   125   125   125 MxSgAt=    17 MxSgA2=    17.
 Leave Link  302 at Thu Oct 31 06:04:45 2019, MaxMem=   140000000 cpu:               5.7 elap:               0.2
 (Enter /usr/g16/l303.exe)
 DipDrv:  MaxL=1.
 Leave Link  303 at Thu Oct 31 06:04:45 2019, MaxMem=   140000000 cpu:               0.6 elap:               0.0
 (Enter /usr/g16/l401.exe)
 Initial guess from the checkpoint file:  "carbene_irc2.chk"
 B after Tr=    -0.000005   -0.079411   -0.044124
         Rot=    1.000000   -0.000130    0.000000   -0.000000 Ang=  -0.01 deg.
 Guess basis will be translated and rotated to current coordinates.
 JPrj=2 DoOrth=T DoCkMO=T.
 Generating alternative initial guess.
 ExpMin= 1.61D-01 ExpMax= 4.17D+03 ExpMxC= 6.27D+02 IAcc=2 IRadAn=         4 AccDes= 0.00D+00
 Harris functional with IExCor=  402 and IRadAn=       4 diagonalized for initial guess.
 HarFok:  IExCor=  402 AccDes= 0.00D+00 IRadAn=         4 IDoV= 1 UseB2=F ITyADJ=14
 ICtDFT=  3500011 ScaDFX=  1.000000  1.000000  1.000000  1.000000
 FoFCou: FMM=F IPFlag=           0 FMFlag=      100000 FMFlg1=           0
         NFxFlg=           0 DoJE=T BraDBF=F KetDBF=T FulRan=T
         wScrn=  0.000000 ICntrl=       500 IOpCl=  0 I1Cent=   200000004 NGrid=           0
         NMat0=    1 NMatS0=      1 NMatT0=    0 NMatD0=    1 NMtDS0=    0 NMtDT0=    0
 Symmetry not used in FoFCou.
 Harris En= -305.926728208700    
 Leave Link  401 at Thu Oct 31 06:04:45 2019, MaxMem=   140000000 cpu:               8.7 elap:               0.4
 (Enter /usr/g16/l502.exe)
 Two-electron integral symmetry not used.
 Closed shell SCF:
 Using DIIS extrapolation, IDIIS=  1040.
 NGot=   140000000 LenX=   139964426 LenY=   139948360
 Requested convergence on RMS density matrix=1.00D-08 within 128 cycles.
 Requested convergence on MAX density matrix=1.00D-06.
 Requested convergence on             energy=1.00D-06.
 No special actions if energy rises.
 Fock matrices will be formed incrementally for  20 cycles.

 Cycle   1  Pass 1  IDiag  1:
 FoFJK:  IHMeth= 1 ICntrl=       0 DoSepK=F KAlg= 0 I1Cent=           0 FoldK=F
 IRaf= 980000000 NMat=       1 IRICut=       1 DoRegI=T DoRafI=F ISym2E= 0 IDoP0=0 IntGTp=1.
 FoFCou: FMM=F IPFlag=           0 FMFlag=      100000 FMFlg1=           0
         NFxFlg=           0 DoJE=F BraDBF=F KetDBF=F FulRan=T
         wScrn=  0.000000 ICntrl=         0 IOpCl=  0 I1Cent=           0 NGrid=           0
         NMat0=    1 NMatS0=      1 NMatT0=    0 NMatD0=    1 NMtDS0=    0 NMtDT0=    0
 Symmetry not used in FoFCou.
 Inv3:  Mode=1 IEnd=     5195568.
 Iteration    1 A*A^-1 deviation from unit magnitude is 5.77D-15 for    456.
 Iteration    1 A*A^-1 deviation from orthogonality  is 1.51D-15 for   1302    601.
 Iteration    1 A^-1*A deviation from unit magnitude is 6.22D-15 for    456.
 Iteration    1 A^-1*A deviation from orthogonality  is 1.89D-15 for   1016    476.
 E= -305.956443341798    
 DIIS: error= 1.79D-03 at cycle   1 NSaved=   1.
 NSaved= 1 IEnMin= 1 EnMin= -305.956443341798     IErMin= 1 ErrMin= 1.79D-03
 ErrMax= 1.79D-03  0.00D+00 EMaxC= 1.00D-01 BMatC= 3.37D-04 BMatP= 3.37D-04
 IDIUse=3 WtCom= 9.82D-01 WtEn= 1.79D-02
 Coeff-Com:  0.100D+01
 Coeff-En:   0.100D+01
 Coeff:      0.100D+01
 Gap=     1.490 Goal=   None    Shift=    0.000
 GapD=    1.490 DampG=2.000 DampE=1.000 DampFc=2.0000 IDamp=-1.
 RMSDP=4.10D-04 MaxDP=1.26D-02              OVMax= 1.88D-02

 Cycle   2  Pass 1  IDiag  1:
 RMSU=  4.10D-04    CP:  1.00D+00
 E= -305.957103472374     Delta-E=       -0.000660130576 Rises=F Damp=F
 DIIS: error= 4.97D-04 at cycle   2 NSaved=   2.
 NSaved= 2 IEnMin= 2 EnMin= -305.957103472374     IErMin= 2 ErrMin= 4.97D-04
 ErrMax= 4.97D-04  0.00D+00 EMaxC= 1.00D-01 BMatC= 2.14D-05 BMatP= 3.37D-04
 IDIUse=3 WtCom= 9.95D-01 WtEn= 4.97D-03
 Coeff-Com:  0.625D-01 0.937D+00
 Coeff-En:   0.000D+00 0.100D+01
 Coeff:      0.622D-01 0.938D+00
 Gap=     0.137 Goal=   None    Shift=    0.000
 RMSDP=1.65D-04 MaxDP=4.64D-03 DE=-6.60D-04 OVMax= 8.47D-03

 Cycle   3  Pass 1  IDiag  1:
 RMSU=  1.61D-04    CP:  1.00D+00  1.08D+00
 E= -305.957091929997     Delta-E=        0.000011542376 Rises=F Damp=F
 DIIS: error= 5.96D-04 at cycle   3 NSaved=   3.
 NSaved= 3 IEnMin= 2 EnMin= -305.957103472374     IErMin= 2 ErrMin= 4.97D-04
 ErrMax= 5.96D-04  0.00D+00 EMaxC= 1.00D-01 BMatC= 3.85D-05 BMatP= 2.14D-05
 IDIUse=3 WtCom= 2.91D-01 WtEn= 7.09D-01
 Coeff-Com: -0.276D-01 0.587D+00 0.441D+00
 Coeff-En:   0.000D+00 0.569D+00 0.431D+00
 Coeff:     -0.801D-02 0.574D+00 0.434D+00
 Gap=     0.139 Goal=   None    Shift=    0.000
 RMSDP=7.08D-05 MaxDP=1.89D-03 DE= 1.15D-05 OVMax= 4.36D-03

 Cycle   4  Pass 1  IDiag  1:
 RMSU=  3.20D-05    CP:  1.00D+00  1.14D+00  6.40D-01
 E= -305.957138693122     Delta-E=       -0.000046763125 Rises=F Damp=F
 DIIS: error= 7.07D-05 at cycle   4 NSaved=   4.
 NSaved= 4 IEnMin= 4 EnMin= -305.957138693122     IErMin= 4 ErrMin= 7.07D-05
 ErrMax= 7.07D-05  0.00D+00 EMaxC= 1.00D-01 BMatC= 8.52D-07 BMatP= 2.14D-05
 IDIUse=1 WtCom= 1.00D+00 WtEn= 0.00D+00
 Coeff-Com: -0.186D-01 0.199D+00 0.197D+00 0.623D+00
 Coeff:     -0.186D-01 0.199D+00 0.197D+00 0.623D+00
 Gap=     0.139 Goal=   None    Shift=    0.000
 RMSDP=1.07D-05 MaxDP=1.61D-04 DE=-4.68D-05 OVMax= 4.35D-04

 Cycle   5  Pass 1  IDiag  1:
 RMSU=  8.30D-06    CP:  1.00D+00  1.15D+00  6.37D-01  8.86D-01
 E= -305.957139501249     Delta-E=       -0.000000808127 Rises=F Damp=F
 DIIS: error= 1.49D-05 at cycle   5 NSaved=   5.
 NSaved= 5 IEnMin= 5 EnMin= -305.957139501249     IErMin= 5 ErrMin= 1.49D-05
 ErrMax= 1.49D-05  0.00D+00 EMaxC= 1.00D-01 BMatC= 6.81D-08 BMatP= 8.52D-07
 IDIUse=1 WtCom= 1.00D+00 WtEn= 0.00D+00
 Coeff-Com: -0.611D-02 0.444D-01 0.597D-01 0.276D+00 0.626D+00
 Coeff:     -0.611D-02 0.444D-01 0.597D-01 0.276D+00 0.626D+00
 Gap=     0.139 Goal=   None    Shift=    0.000
 RMSDP=3.12D-06 MaxDP=1.01D-04 DE=-8.08D-07 OVMax= 8.77D-05

 Cycle   6  Pass 1  IDiag  1:
 RMSU=  2.02D-06    CP:  1.00D+00  1.15D+00  6.47D-01  9.18D-01  9.50D-01
 E= -305.957139564500     Delta-E=       -0.000000063251 Rises=F Damp=F
 DIIS: error= 5.93D-06 at cycle   6 NSaved=   6.
 NSaved= 6 IEnMin= 6 EnMin= -305.957139564500     IErMin= 6 ErrMin= 5.93D-06
 ErrMax= 5.93D-06  0.00D+00 EMaxC= 1.00D-01 BMatC= 8.91D-09 BMatP= 6.81D-08
 IDIUse=1 WtCom= 1.00D+00 WtEn= 0.00D+00
 Coeff-Com:  0.772D-06-0.115D-01-0.688D-03 0.354D-01 0.285D+00 0.691D+00
 Coeff:      0.772D-06-0.115D-01-0.688D-03 0.354D-01 0.285D+00 0.691D+00
 Gap=     0.139 Goal=   None    Shift=    0.000
 RMSDP=1.60D-06 MaxDP=6.00D-05 DE=-6.33D-08 OVMax= 4.68D-05

 Cycle   7  Pass 1  IDiag  1:
 RMSU=  6.91D-07    CP:  1.00D+00  1.16D+00  6.54D-01  9.35D-01  9.72D-01
                    CP:  8.81D-01
 E= -305.957139572513     Delta-E=       -0.000000008013 Rises=F Damp=F
 DIIS: error= 2.12D-06 at cycle   7 NSaved=   7.
 NSaved= 7 IEnMin= 7 EnMin= -305.957139572513     IErMin= 7 ErrMin= 2.12D-06
 ErrMax= 2.12D-06  0.00D+00 EMaxC= 1.00D-01 BMatC= 9.12D-10 BMatP= 8.91D-09
 IDIUse=1 WtCom= 1.00D+00 WtEn= 0.00D+00
 Coeff-Com:  0.373D-03-0.741D-02-0.270D-02 0.292D-02 0.957D-01 0.332D+00
 Coeff-Com:  0.579D+00
 Coeff:      0.373D-03-0.741D-02-0.270D-02 0.292D-02 0.957D-01 0.332D+00
 Coeff:      0.579D+00
 Gap=     0.139 Goal=   None    Shift=    0.000
 RMSDP=3.84D-07 MaxDP=9.31D-06 DE=-8.01D-09 OVMax= 1.84D-05

 Cycle   8  Pass 1  IDiag  1:
 RMSU=  2.78D-07    CP:  1.00D+00  1.16D+00  6.54D-01  9.38D-01  9.90D-01
                    CP:  9.03D-01  7.78D-01
 E= -305.957139573383     Delta-E=       -0.000000000870 Rises=F Damp=F
 DIIS: error= 7.43D-07 at cycle   8 NSaved=   8.
 NSaved= 8 IEnMin= 8 EnMin= -305.957139573383     IErMin= 8 ErrMin= 7.43D-07
 ErrMax= 7.43D-07  0.00D+00 EMaxC= 1.00D-01 BMatC= 1.02D-10 BMatP= 9.12D-10
 IDIUse=1 WtCom= 1.00D+00 WtEn= 0.00D+00
 Coeff-Com:  0.223D-03-0.288D-02-0.159D-02-0.393D-02 0.151D-01 0.862D-01
 Coeff-Com:  0.292D+00 0.615D+00
 Coeff:      0.223D-03-0.288D-02-0.159D-02-0.393D-02 0.151D-01 0.862D-01
 Coeff:      0.292D+00 0.615D+00
 Gap=     0.139 Goal=   None    Shift=    0.000
 RMSDP=1.14D-07 MaxDP=3.09D-06 DE=-8.70D-10 OVMax= 3.21D-06

 Cycle   9  Pass 1  IDiag  1:
 RMSU=  6.38D-08    CP:  1.00D+00  1.16D+00  6.54D-01  9.38D-01  9.91D-01
                    CP:  9.17D-01  8.31D-01  8.73D-01
 E= -305.957139573486     Delta-E=       -0.000000000103 Rises=F Damp=F
 DIIS: error= 1.96D-07 at cycle   9 NSaved=   9.
 NSaved= 9 IEnMin= 9 EnMin= -305.957139573486     IErMin= 9 ErrMin= 1.96D-07
 ErrMax= 1.96D-07  0.00D+00 EMaxC= 1.00D-01 BMatC= 2.88D-12 BMatP= 1.02D-10
 IDIUse=1 WtCom= 1.00D+00 WtEn= 0.00D+00
 Coeff-Com:  0.515D-04-0.563D-03-0.282D-03-0.108D-02 0.101D-02 0.119D-01
 Coeff-Com:  0.753D-01 0.208D+00 0.706D+00
 Coeff:      0.515D-04-0.563D-03-0.282D-03-0.108D-02 0.101D-02 0.119D-01
 Coeff:      0.753D-01 0.208D+00 0.706D+00
 Gap=     0.139 Goal=   None    Shift=    0.000
 RMSDP=2.21D-08 MaxDP=5.13D-07 DE=-1.03D-10 OVMax= 9.08D-07

 Cycle  10  Pass 1  IDiag  1:
 RMSU=  1.44D-08    CP:  1.00D+00  1.16D+00  6.54D-01  9.39D-01  9.92D-01
                    CP:  9.19D-01  8.40D-01  9.19D-01  9.50D-01
 E= -305.957139573488     Delta-E=       -0.000000000002 Rises=F Damp=F
 DIIS: error= 7.67D-08 at cycle  10 NSaved=  10.
 NSaved=10 IEnMin=10 EnMin= -305.957139573488     IErMin=10 ErrMin= 7.67D-08
 ErrMax= 7.67D-08  0.00D+00 EMaxC= 1.00D-01 BMatC= 6.12D-13 BMatP= 2.88D-12
 IDIUse=1 WtCom= 1.00D+00 WtEn= 0.00D+00
 Coeff-Com: -0.136D-05 0.562D-04 0.621D-04-0.521D-04-0.134D-02-0.507D-02
 Coeff-Com:  0.245D-02 0.203D-01 0.339D+00 0.645D+00
 Coeff:     -0.136D-05 0.562D-04 0.621D-04-0.521D-04-0.134D-02-0.507D-02
 Coeff:      0.245D-02 0.203D-01 0.339D+00 0.645D+00
 Gap=     0.139 Goal=   None    Shift=    0.000
 RMSDP=7.39D-09 MaxDP=2.06D-07 DE=-1.71D-12 OVMax= 1.76D-07

 Error on total polarization charges =  0.02885
 SCF Done:  E(RB3LYP) =  -305.957139573     A.U. after   10 cycles
            NFock= 10  Conv=0.74D-08     -V/T= 2.0098
 KE= 3.029946432929D+02 PE=-1.338630628687D+03 EE= 4.140192570807D+02
 SMD-CDS (non-electrostatic) energy       (kcal/mol) =      -3.75
 (included in total energy above)
 Leave Link  502 at Thu Oct 31 06:04:53 2019, MaxMem=   140000000 cpu:             163.7 elap:               7.1
 (Enter /usr/g16/l801.exe)
 DoSCS=F DFT=T ScalE2(SS,OS)=  1.000000  1.000000
 Range of M.O.s used for correlation:     1   125
 NBasis=   125 NAE=    27 NBE=    27 NFC=     0 NFV=     0
 NROrb=    125 NOA=    27 NOB=    27 NVA=    98 NVB=    98
 Leave Link  801 at Thu Oct 31 06:04:53 2019, MaxMem=   140000000 cpu:               1.4 elap:               0.1
 (Enter /usr/g16/l1101.exe)
 Leave Link 1101 at Thu Oct 31 06:04:53 2019, MaxMem=   140000000 cpu:               0.4 elap:               0.0
 (Enter /usr/g16/l1102.exe)
 Symmetrizing basis deriv contribution to polar:
 IMax=3 JMax=2 DiffMx= 0.00D+00
 Leave Link 1102 at Thu Oct 31 06:04:53 2019, MaxMem=   140000000 cpu:               1.6 elap:               0.1
 (Enter /usr/g16/l1110.exe)
 Leave Link 1110 at Thu Oct 31 06:04:53 2019, MaxMem=   140000000 cpu:               0.5 elap:               0.0
 (Enter /usr/g16/l1002.exe)
 Minotr:  Closed shell wavefunction.
 Leave Link 1002 at Thu Oct 31 06:04:53 2019, MaxMem=   140000000 cpu:               1.5 elap:               0.1
 (Enter /usr/g16/l701.exe)
 ... and contract with generalized density number  0.
 Compute integral first derivatives.
 R6Disp: Adding Grimme-D3(BJ) dispersion energy 1st derivatives to the gradient.
 D1PCM: PCM CHGder 1st derivatives, ID1Alg=3 FixD1E=F DoIter=F DoCFld=F I1PDM=0.
 GePol: Maximum number of non-zero 1st derivatives   =     245
 Leave Link  701 at Thu Oct 31 06:04:53 2019, MaxMem=   140000000 cpu:              13.4 elap:               0.6
 (Enter /usr/g16/l702.exe)
 L702 exits ... SP integral derivatives will be done elsewhere.
 Leave Link  702 at Thu Oct 31 06:04:54 2019, MaxMem=   140000000 cpu:               1.4 elap:               0.1
 (Enter /usr/g16/l703.exe)
 Integral derivatives from FoFJK, PRISM(SPDF).
 Compute integral first derivatives, UseDBF=F ICtDFT=           0.
 Calling FoFJK, ICntrl=      2147 FMM=F ISym2X=0 I1Cent= 0 IOpClX= 0 NMat=1 NMatS=1 NMatT=0.
 FoFJK:  IHMeth= 1 ICntrl=    2147 DoSepK=F KAlg= 0 I1Cent=           0 FoldK=F
 IRaf=         0 NMat=       1 IRICut=       1 DoRegI=T DoRafI=F ISym2E= 0 IDoP0=0 IntGTp=1.
 FoFCou: FMM=F IPFlag=           0 FMFlag=      100000 FMFlg1=         800
         NFxFlg=           0 DoJE=F BraDBF=F KetDBF=F FulRan=T
         wScrn=  0.000000 ICntrl=      2147 IOpCl=  0 I1Cent=           0 NGrid=           0
         NMat0=    1 NMatS0=      1 NMatT0=    0 NMatD0=    1 NMtDS0=    0 NMtDT0=    0
 Symmetry not used in FoFCou.
 Leave Link  703 at Thu Oct 31 06:04:55 2019, MaxMem=   140000000 cpu:              28.3 elap:               1.2
 (Enter /usr/g16/l716.exe)
 Dipole        = 2.29237199D-04 2.53602644D+00 1.63619888D+00
 Polarizability= 0.00000000D+00 0.00000000D+00 0.00000000D+00
                 0.00000000D+00 0.00000000D+00 0.00000000D+00
 -------------------------------------------------------------------
 Center     Atomic                   Forces (Hartrees/Bohr)
 Number     Number              X              Y              Z
 -------------------------------------------------------------------
      1        6          -0.000012702   -0.001120459    0.001190021
      2        6           0.000105920    0.000233045    0.000154613
      3        6          -0.000105984    0.000212291    0.000153214
      4        1          -0.000006294    0.000042001    0.000041021
      5        1           0.000006698    0.000041291    0.000044588
      6        7           0.000365906    0.000355121   -0.000306952
      7        7          -0.000363353    0.000331526   -0.000324123
      8        6           0.000105977    0.000060155    0.000061497
      9        1          -0.000061604   -0.000010401    0.000046786
     10        1           0.000024463    0.000026665    0.000023487
     11        1           0.000003889   -0.000001837   -0.000019635
     12        6          -0.000094932    0.000070603    0.000067710
     13        1           0.000058408   -0.000011540    0.000047757
     14        1          -0.000000761   -0.000002107   -0.000019404
     15        1          -0.000025129    0.000026548    0.000022988
     16        1           0.000004013   -0.000924254    0.000396499
     17        1          -0.000004513    0.000671352   -0.001580067
 -------------------------------------------------------------------
 Cartesian Forces:  Max     0.001580067 RMS     0.000385060
 Z-matrix is all fixed cartesians, so copy forces.
 Leave Link  716 at Thu Oct 31 06:04:55 2019, MaxMem=   140000000 cpu:               1.5 elap:               0.1
 (Enter /usr/g16/l123.exe)
 IRC-IRC-IRC-IRC-IRC-IRC-IRC-IRC-IRC-IRC-IRC-IRC-IRC-IRC-IRC-IRC-IRC-IRC
 Pt  1 Step number   1 out of a maximum of  20
 Point Number:   1          Path Number:   1
                    CURRENT STRUCTURE
                Cartesian Coordinates (Ang):                
 ---------------------------------------------------------------------
 Center     Atomic                     Coordinates (Angstroms)
 Number     Number                        X           Y           Z
 ---------------------------------------------------------------------
      1          6                    0.000015   -0.836929    0.240117
      2          6                    0.679846    1.257478   -0.115764
      3          6                   -0.679818    1.257479   -0.115844
      4          1                    1.389065    2.060244   -0.241062
      5          1                   -1.389033    2.060230   -0.241273
      6          7                   -1.087990   -0.047699    0.125066
      7          7                    1.088012   -0.047666    0.125247
      8          6                   -2.426055   -0.591252   -0.043558
      9          1                   -2.394746   -1.306147   -0.876224
     10          1                   -2.750010   -1.102591    0.866180
     11          1                   -3.116421    0.222865   -0.267880
     12          6                    2.426011   -0.591300   -0.043653
     13          1                    2.394707   -1.305687   -0.876752
     14          1                    3.116487    0.222877   -0.267416
     15          1                    2.749837   -1.103226    0.865800
     16          1                   -0.000214   -2.403783   -1.559800
     17          1                    0.000040   -1.919296    0.057577
 ---------------------------------------------------------------------
   CHANGE IN THE REACTION COORDINATE =    0.15371
   NET REACTION COORDINATE UP TO THIS POINT =    0.15371
  # OF POINTS ALONG THE PATH =   1
  # OF STEPS =   1

 Calculating another point on the path.
 Point Number  2 in FORWARD path direction.
 Using LQA Reaction Path Following.
   LQA: T_Est iteration completed in    3 iterations.
 IRC-IRC-IRC-IRC-IRC-IRC-IRC-IRC-IRC-IRC-IRC-IRC-IRC-IRC-IRC-IRC-IRC-IRC
 Leave Link  123 at Thu Oct 31 06:04:55 2019, MaxMem=   140000000 cpu:               0.9 elap:               0.1
 (Enter /usr/g16/l202.exe)
                          Input orientation:                          
 ---------------------------------------------------------------------
 Center     Atomic      Atomic             Coordinates (Angstroms)
 Number     Number       Type             X           Y           Z
 ---------------------------------------------------------------------
      1          6           0        0.000000   -0.837606    0.244160
      2          6           0        0.680096    1.258168   -0.115167
      3          6           0       -0.680068    1.258159   -0.115248
      4          1           0        1.388974    2.061506   -0.239266
      5          1           0       -1.388941    2.061491   -0.239418
      6          7           0       -1.086986   -0.047062    0.124108
      7          7           0        1.087003   -0.047051    0.124259
      8          6           0       -2.425770   -0.590945   -0.043289
      9          1           0       -2.396340   -1.306951   -0.874682
     10          1           0       -2.748934   -1.101240    0.867192
     11          1           0       -3.116195    0.222910   -0.268412
     12          6           0        2.425740   -0.590985   -0.043375
     13          1           0        2.396299   -1.306505   -0.875186
     14          1           0        3.116284    0.222924   -0.267943
     15          1           0        2.748760   -1.101866    0.866826
     16          1           0       -0.000115   -2.440661   -1.541964
     17          1           0       -0.000018   -1.919187   -0.009834
 ---------------------------------------------------------------------
                    Distance matrix (angstroms):
                    1          2          3          4          5
     1  C    0.000000
     2  C    2.232469   0.000000
     3  C    2.232465   1.360164   0.000000
     4  H    3.250816   1.078546   2.222989   0.000000
     5  H    3.250811   2.222990   1.078546   2.777916   0.000000
     6  N    1.349412   2.209855   1.387975   3.272381   2.160861
     7  N    1.349418   1.387982   2.209859   2.160868   3.272386
     8  C    2.455164   3.615355   2.543982   4.650395   2.854627
     9  H    2.685989   4.076906   3.178384   5.106747   3.572788
    10  H    2.830956   4.276691   3.288186   5.324425   3.616218
    11  H    3.331381   3.937903   2.651399   4.865988   2.522821
    12  C    2.455140   2.543971   3.615320   2.854639   4.650360
    13  H    2.686085   3.178133   4.076646   3.572477   5.106431
    14  H    3.331396   2.651430   3.937933   2.522857   4.866025
    15  H    2.830765   3.288379   4.276804   3.616542   5.324582
    16  H    2.400005   4.022409   4.022328   4.888364   4.888234
    17  H    1.111004   3.251036   3.251017   4.222305   4.222275
                    6          7          8          9         10
     6  N    0.000000
     7  N    2.173990   0.000000
     8  C    1.454707   3.558577   0.000000
     9  H    2.073478   3.836524   1.097609   0.000000
    10  H    2.103696   4.046935   1.092617   1.789068   0.000000
    11  H    2.084382   4.230124   1.090747   1.796171   1.782653
    12  C    3.558531   1.454710   4.851509   4.945314   5.278896
    13  H    3.836413   2.073493   4.945344   4.792639   5.436124
    14  H    4.230139   2.084392   5.605998   5.753058   6.119047
    15  H    4.046875   2.103682   5.278741   5.435712   5.497695
    16  H    3.112298   3.112474   3.398716   2.733579   3.892825
    17  H    2.168938   2.168984   2.765794   2.620143   2.999125
                   11         12         13         14         15
    11  H    0.000000
    12  C    5.605900   0.000000
    13  H    5.752815   1.097609   0.000000
    14  H    6.232480   1.090747   1.796183   0.000000
    15  H    6.118946   1.092615   1.789053   1.782650   0.000000
    16  H    4.292610   3.398800   2.733808   4.292989   3.892423
    17  H    3.790251   2.765782   2.620411   3.790330   2.998722
[...]
      1          6                    0.000056   -0.938059    0.171066
      2          6                    0.671089    1.203501   -0.200157
      3          6                   -0.671140    1.203361   -0.200408
      4          1                    1.358186    2.017364   -0.385968
      5          1                   -1.358289    2.017115   -0.386477
      6          7                   -1.142834   -0.036062    0.305398
      7          7                    1.142934   -0.035859    0.305933
      8          6                   -2.415887   -0.555491   -0.148189
      9          1                   -2.387309   -0.926615   -1.189211
     10          1                   -2.731944   -1.379252    0.499824
     11          1                   -3.172244    0.231835   -0.083416
     12          6                    2.415766   -0.555223   -0.148326
     13          1                    2.387235   -0.919463   -1.192687
     14          1                    3.174090    0.228960   -0.078279
     15          1                    2.729960   -1.387062    0.494255
     16          1                    0.000137   -1.422883   -0.841921
     17          1                    0.000178   -1.724390    0.933006
 ---------------------------------------------------------------------
   CHANGE IN THE REACTION COORDINATE =    0.14447
   NET REACTION COORDINATE UP TO THIS POINT =    6.08890
  # OF POINTS ALONG THE PATH =  80
  # OF STEPS =   1

 Maximum number of steps reached.
 Calculation of REVERSE path complete.
 Reaction path calculation complete.
 
 Energies reported relative to the TS energy of        -305.956976
 --------------------------------------------------------------------------
    Summary of reaction path following
 --------------------------------------------------------------------------
                        Energy    RxCoord
   1                   -0.07875  -6.08890
   2                   -0.07857  -5.94443
   3                   -0.07837  -5.80203
   4                   -0.07828  -5.65069
   5                   -0.07806  -5.49797
   6                   -0.07779  -5.34482
   7                   -0.07748  -5.19302
   8                   -0.07712  -5.04370
   9                   -0.07684  -4.89069
  10                   -0.07646  -4.73764
  11                   -0.07602  -4.58450
  12                   -0.07554  -4.43151
  13                   -0.07503  -4.27869
  14                   -0.07448  -4.12576
  15                   -0.07390  -3.97375
  16                   -0.07331  -3.82110
  17                   -0.07271  -3.66918
  18                   -0.07207  -3.51727
  19                   -0.07130  -3.37030
  20                   -0.07058  -3.22228
  21                   -0.06947  -3.07125
  22                   -0.06672  -2.91806
  23                   -0.06139  -2.76439
  24                   -0.05466  -2.61071
  25                   -0.04775  -2.45703
  26                   -0.04116  -2.30336
  27                   -0.03491  -2.14968
  28                   -0.02912  -1.99600
  29                   -0.02390  -1.84234
  30                   -0.01939  -1.68867
  31                   -0.01554  -1.53500
  32                   -0.01220  -1.38133
  33                   -0.00937  -1.22767
  34                   -0.00698  -1.07404
  35                   -0.00499  -0.92043
  36                   -0.00340  -0.76694
  37                   -0.00217  -0.61340
  38                   -0.00124  -0.46004
  39                   -0.00058  -0.30704
  40                   -0.00016  -0.15371
  41                    0.00000   0.00000
  42                   -0.00016   0.15371
  43                   -0.00057   0.30719
  44                   -0.00130   0.46072
  45                   -0.00229   0.61436
  46                   -0.00360   0.76801
  47                   -0.00539   0.92153
  48                   -0.00789   1.07489
  49                   -0.01129   1.22825
  50                   -0.01556   1.38174
  51                   -0.01978   1.53529
  52                   -0.02340   1.68859
  53                   -0.02668   1.84205
  54                   -0.02955   1.99566
  55                   -0.03199   2.14926
  56                   -0.03388   2.30285
  57                   -0.03542   2.45424
  58                   -0.03726   2.60246
  59                   -0.03869   2.75557
  60                   -0.03990   2.90922
  61                   -0.04093   3.06280
  62                   -0.04181   3.21644
  63                   -0.04254   3.37000
  64                   -0.04317   3.52358
  65                   -0.04372   3.67714
  66                   -0.04421   3.83067
  67                   -0.04465   3.98402
  68                   -0.04503   4.13715
  69                   -0.04537   4.28969
  70                   -0.04566   4.44122
  71                   -0.04591   4.59112
  72                   -0.04614   4.73929
  73                   -0.04636   4.88617
  74                   -0.04656   5.03338
  75                   -0.04675   5.18203
  76                   -0.04692   5.33258
  77                   -0.04706   5.48394
  78                   -0.04719   5.63631
  79                   -0.04729   5.78743
  80                   -0.04735   5.93986
  81                   -0.04746   6.08333
 --------------------------------------------------------------------------
 
 Total number of points:                   80
 Total number of gradient calculations:    81
 Total number of Hessian calculations:      1
 IRC-IRC-IRC-IRC-IRC-IRC-IRC-IRC-IRC-IRC-IRC-IRC-IRC-IRC-IRC-IRC-IRC-IRC
 Leave Link  123 at Thu Oct 31 06:18:10 2019, MaxMem=   140000000 cpu:               0.3 elap:               0.0
 (Enter /usr/g16/l202.exe)
                          Input orientation:                          
 ---------------------------------------------------------------------
 Center     Atomic      Atomic             Coordinates (Angstroms)
 Number     Number       Type             X           Y           Z
 ---------------------------------------------------------------------
      1          6           0        0.000056   -0.938059    0.171066
      2          6           0        0.671089    1.203501   -0.200157
      3          6           0       -0.671140    1.203361   -0.200408
      4          1           0        1.358186    2.017364   -0.385968
      5          1           0       -1.358289    2.017115   -0.386477
      6          7           0       -1.142834   -0.036062    0.305398
      7          7           0        1.142934   -0.035859    0.305933
      8          6           0       -2.415887   -0.555491   -0.148189
      9          1           0       -2.387309   -0.926615   -1.189211
     10          1           0       -2.731944   -1.379252    0.499824
     11          1           0       -3.172244    0.231835   -0.083416
     12          6           0        2.415766   -0.555223   -0.148326
     13          1           0        2.387235   -0.919463   -1.192687
     14          1           0        3.174090    0.228960   -0.078279
     15          1           0        2.729960   -1.387062    0.494255
     16          1           0        0.000137   -1.422883   -0.841921
     17          1           0        0.000178   -1.724390    0.933006
 ---------------------------------------------------------------------
                    Distance matrix (angstroms):
                    1          2          3          4          5
     1  C    0.000000
     2  C    2.274724   0.000000
     3  C    2.274681   1.342229   0.000000
     4  H    3.299898   1.081203   2.194356   0.000000
     5  H    3.299850   2.194324   1.081199   2.716475   0.000000
     6  N    1.462136   2.254422   1.419332   3.309025   2.177303
     7  N    1.462301   1.419429   2.254532   2.177335   3.309116
     8  C    2.466792   3.553333   2.477989   4.573811   2.791702
     9  H    2.747725   3.856088   2.908567   4.831246   3.220063
    10  H    2.786854   4.329113   3.377444   5.389878   3.769319
    11  H    3.390708   3.965977   2.685716   4.878980   2.563104
    12  C    2.466623   2.477841   3.553072   2.791622   4.573525
    13  H    2.749326   2.904694   3.852877   3.214762   4.827258
    14  H    3.390959   2.688791   3.968648   2.567211   4.882104
    15  H    2.785396   3.381150   4.331319   3.774476   5.392391
    16  H    1.123031   2.785665   2.785554   3.726593   3.726438
    17  H    1.094929   3.210409   3.210455   4.193400   4.193486
                    6          7          8          9         10
     6  N    0.000000
     7  N    2.285769   0.000000
     8  C    1.447830   3.625115   0.000000
     9  H    2.139078   3.935926   1.105566   0.000000
    10  H    2.089792   4.105725   1.094712   1.782271   0.000000
    11  H    2.083615   4.340970   1.093688   1.783512   1.769078
    12  C    3.624780   1.447823   4.831653   4.928580   5.253384
    13  H    3.935231   2.138902   4.928838   4.774551   5.411284
    14  H    4.342037   2.084069   5.645184   5.787805   6.148316
    15  H    4.106020   2.092812   5.252046   5.406709   5.461912
    16  H    2.132134   2.132461   2.659099   2.463085   3.044084
    17  H    2.133265   2.133131   2.893559   3.292468   2.787698
                   11         12         13         14         15
    11  H    0.000000
    12  C    5.643539   0.000000
    13  H    5.784789   1.106424   0.000000
    14  H    6.346338   1.093118   1.783234   0.000000
    15  H    6.147402   1.097080   1.783782   1.771038   0.000000
    16  H    3.657516   2.658792   2.464692   3.658650   3.039504
    17  H    3.863185   2.893319   3.296137   3.861605   2.785319
                   16         17
    16  H    0.000000
    17  H    1.800354   0.000000
 Symmetry turned off by external request.
 Stoichiometry    C5H10N2
 Framework group  C1[X(C5H10N2)]
 Deg. of freedom    45
 Full point group                 C1      NOp   1
 Rotational constants (GHZ):           6.2088779           2.0470529           1.6276120
 Leave Link  202 at Thu Oct 31 06:18:10 2019, MaxMem=   140000000 cpu:               0.1 elap:               0.0
 (Enter /usr/g16/l601.exe)
 Copying SCF densities to generalized density rwf, IOpCl= 0 IROHF=0.

 **********************************************************************

            Population analysis using the SCF density.

 **********************************************************************

 Alpha  occ. eigenvalues --  -14.33138 -14.33136 -10.23165 -10.20148 -10.20124
 Alpha  occ. eigenvalues --  -10.18936 -10.18854  -0.97179  -0.88006  -0.74674
 Alpha  occ. eigenvalues --   -0.70732  -0.65916  -0.58169  -0.56299  -0.50640
 Alpha  occ. eigenvalues --   -0.47502  -0.43454  -0.43207  -0.42249  -0.39755
 Alpha  occ. eigenvalues --   -0.39684  -0.37872  -0.37121  -0.35341  -0.30301
 Alpha  occ. eigenvalues --   -0.24952  -0.15417
 Alpha virt. eigenvalues --    0.05222   0.10225   0.11223   0.13380   0.15401
 Alpha virt. eigenvalues --    0.15651   0.16281   0.17560   0.18117   0.18302
 Alpha virt. eigenvalues --    0.18690   0.20273   0.21504   0.24618   0.25626
 Alpha virt. eigenvalues --    0.28965   0.34996   0.43718   0.49800   0.51737
 Alpha virt. eigenvalues --    0.53917   0.55206   0.55535   0.55969   0.57600
 Alpha virt. eigenvalues --    0.59305   0.61859   0.65347   0.66715   0.71832
 Alpha virt. eigenvalues --    0.72813   0.78504   0.78890   0.80708   0.83212
 Alpha virt. eigenvalues --    0.83914   0.84909   0.84942   0.89897   0.91594
 Alpha virt. eigenvalues --    0.92041   0.92593   0.95742   0.96203   0.96680
 Alpha virt. eigenvalues --    0.99752   1.02446   1.06850   1.08797   1.15041
 Alpha virt. eigenvalues --    1.20303   1.23824   1.33575   1.36668   1.41679
 Alpha virt. eigenvalues --    1.43354   1.47973   1.51440   1.59908   1.67367
 Alpha virt. eigenvalues --    1.78248   1.83781   1.89720   1.90250   1.94154
 Alpha virt. eigenvalues --    1.95625   1.97392   1.98949   2.01727   2.05326
 Alpha virt. eigenvalues --    2.06192   2.12690   2.14218   2.19851   2.19889
 Alpha virt. eigenvalues --    2.21608   2.24769   2.26688   2.31251   2.34914
 Alpha virt. eigenvalues --    2.45772   2.53737   2.58920   2.59060   2.62997
 Alpha virt. eigenvalues --    2.71347   2.77241   2.80577   2.86347   2.98866
 Alpha virt. eigenvalues --    3.06347   4.02950   4.07616   4.18235   4.26380
 Alpha virt. eigenvalues --    4.29257   4.42341   4.44933
          Condensed to atoms (all electrons):
               1          2          3          4          5          6
     1  C    4.832539  -0.072098  -0.072049   0.005913   0.005912   0.329136
     2  C   -0.072098   4.874030   0.661156   0.370282  -0.038679  -0.062787
     3  C   -0.072049   0.661156   4.873721  -0.038688   0.370274   0.316137
     4  H    0.005913   0.370282  -0.038688   0.551051  -0.000764   0.003721
     5  H    0.005912  -0.038679   0.370274  -0.000764   0.550988  -0.043572
     6  N    0.329136  -0.062787   0.316137   0.003721  -0.043572   6.822120
     7  N    0.329164   0.315969  -0.062729  -0.043594   0.003720  -0.036216
     8  C   -0.049895   0.004948  -0.050722  -0.000105  -0.002079   0.322565
     9  H   -0.007460   0.000884   0.003636  -0.000016  -0.000049  -0.052963
    10  H   -0.001550  -0.000133   0.004028   0.000005  -0.000062  -0.041017
    11  H    0.004861  -0.000066  -0.004326  -0.000004   0.003721  -0.033749
    12  C   -0.049889  -0.050742   0.004914  -0.002041  -0.000105   0.004054
    13  H   -0.007443   0.003649   0.000897  -0.000046  -0.000017  -0.000318
    14  H    0.004857  -0.004281  -0.000069   0.003685  -0.000004  -0.000133
    15  H   -0.001593   0.004016  -0.000131  -0.000063   0.000005  -0.000042
    16  H    0.321937   0.010263   0.010294  -0.000355  -0.000354  -0.071885
    17  H    0.376393   0.005171   0.005155  -0.000124  -0.000124  -0.035864
               7          8          9         10         11         12
     1  C    0.329164  -0.049895  -0.007460  -0.001550   0.004861  -0.049889
     2  C    0.315969   0.004948   0.000884  -0.000133  -0.000066  -0.050742
     3  C   -0.062729  -0.050722   0.003636   0.004028  -0.004326   0.004914
     4  H   -0.043594  -0.000105  -0.000016   0.000005  -0.000004  -0.002041
     5  H    0.003720  -0.002079  -0.000049  -0.000062   0.003721  -0.000105
     6  N   -0.036216   0.322565  -0.052963  -0.041017  -0.033749   0.004054
     7  N    6.822002   0.004052  -0.000314  -0.000044  -0.000133   0.322441
     8  C    0.004052   4.978444   0.346392   0.382628   0.380998  -0.000163
     9  H   -0.000314   0.346392   0.638147  -0.043642  -0.034777  -0.000015
    10  H   -0.000044   0.382628  -0.043642   0.565955  -0.026646  -0.000003
    11  H   -0.000133   0.380998  -0.034777  -0.026646   0.548018   0.000004
    12  C    0.322441  -0.000163  -0.000015  -0.000003   0.000004   4.978950
    13  H   -0.053146  -0.000015   0.000034   0.000000  -0.000000   0.346273
    14  H   -0.033770   0.000004  -0.000000  -0.000000  -0.000000   0.381054
    15  H   -0.040712  -0.000003   0.000000  -0.000000  -0.000000   0.382289
    16  H   -0.071832  -0.008900   0.019952  -0.001811  -0.000190  -0.008852
    17  H   -0.035867   0.001123  -0.001516   0.003094  -0.000136   0.001092
              13         14         15         16         17
     1  C   -0.007443   0.004857  -0.001593   0.321937   0.376393
     2  C    0.003649  -0.004281   0.004016   0.010263   0.005171
     3  C    0.000897  -0.000069  -0.000131   0.010294   0.005155
     4  H   -0.000046   0.003685  -0.000063  -0.000355  -0.000124
     5  H   -0.000017  -0.000004   0.000005  -0.000354  -0.000124
     6  N   -0.000318  -0.000133  -0.000042  -0.071885  -0.035864
     7  N   -0.053146  -0.033770  -0.040712  -0.071832  -0.035867
     8  C   -0.000015   0.000004  -0.000003  -0.008900   0.001123
     9  H    0.000034  -0.000000   0.000000   0.019952  -0.001516
    10  H    0.000000  -0.000000  -0.000000  -0.001811   0.003094
    11  H   -0.000000  -0.000000  -0.000000  -0.000190  -0.000136
    12  C    0.346273   0.381054   0.382289  -0.008852   0.001092
    13  H    0.638870  -0.034982  -0.043565   0.019918  -0.001505
    14  H   -0.034982   0.547852  -0.026556  -0.000194  -0.000135
    15  H   -0.043565  -0.026556   0.566311  -0.001816   0.003107
    16  H    0.019918  -0.000194  -0.001816   0.762573  -0.065625
    17  H   -0.001505  -0.000135   0.003107  -0.065625   0.592593
 Mulliken charges:
               1
     1  C    0.051263
     2  C   -0.021580
     3  C   -0.021497
     4  H    0.151145
     5  H    0.151189
     6  N   -0.419187
     7  N   -0.418990
     8  C   -0.309272
     9  H    0.131706
    10  H    0.159199
    11  H    0.162426
    12  C   -0.309264
    13  H    0.131394
    14  H    0.162672
    15  H    0.158753
    16  H    0.086877
    17  H    0.153168
 Sum of Mulliken charges =  -0.00000
 Mulliken charges with hydrogens summed into heavy atoms:
               1
     1  C    0.291307
     2  C    0.129564
     3  C    0.129692
     6  N   -0.419187
     7  N   -0.418990
     8  C    0.144058
    12  C    0.143554
 APT charges:
               1
     1  C   -0.503711
     2  C   -0.453581
     3  C   -0.453282
     4  H    0.551986
     5  H    0.552016
     6  N   -0.320431
     7  N   -0.320490
     8  C   -1.211590
     9  H    0.330318
    10  H    0.484416
    11  H    0.526891
    12  C   -1.212695
    13  H    0.329470
    14  H    0.528173
    15  H    0.484901
    16  H    0.235962
    17  H    0.451647
 Sum of APT charges =  -0.00000
 APT charges with hydrogens summed into heavy atoms:
               1
     1  C    0.183898
     2  C    0.098405
     3  C    0.098734
     6  N   -0.320431
     7  N   -0.320490
     8  C    0.130035
    12  C    0.129849
 Electronic spatial extent (au):  <R**2>=            794.4021
 Charge=             -0.0000 electrons
 Dipole moment (field-independent basis, Debye):
    X=             -0.0041    Y=             -0.5460    Z=             -1.0149  Tot=              1.1525
 Quadrupole moment (field-independent basis, Debye-Ang):
   XX=            -37.5648   YY=            -40.2135   ZZ=            -47.0382
   XY=             -0.0003   XZ=              0.0008   YZ=             -1.7788
 Traceless Quadrupole moment (field-independent basis, Debye-Ang):
   XX=              4.0407   YY=              1.3920   ZZ=             -5.4327
   XY=             -0.0003   XZ=              0.0008   YZ=             -1.7788
 Octapole moment (field-independent basis, Debye-Ang**2):
  XXX=             -0.0226  YYY=              7.0523  ZZZ=              3.6162  XYY=             -0.0002
  XXY=              3.3844  XXZ=             -0.4183  XZZ=             -0.0262  YZZ=             -1.3869
  YYZ=              1.7028  XYZ=              0.0014
 Hexadecapole moment (field-independent basis, Debye-Ang**3):
 XXXX=           -686.0567 YYYY=           -249.7133 ZZZZ=            -84.4475 XXXY=              0.0326
 XXXZ=              0.0275 YYYX=             -0.0138 YYYZ=              0.1422 ZZZX=             -0.0031
 ZZZY=              9.7500 XXYY=           -152.1984 XXZZ=           -141.0900 YYZZ=            -57.7817
 XXYZ=             -1.7469 YYXZ=              0.0249 ZZXY=              0.0349
 N-N= 3.155263202177D+02 E-N=-1.340857883538D+03  KE= 3.030761419652D+02
  Exact polarizability:   0.000   0.000   0.000   0.000   0.000   0.000
 Approx polarizability: 118.900  -0.005  90.886   0.003  -2.799  69.038
 No NMR shielding tensors so no spin-rotation constants.
 Leave Link  601 at Thu Oct 31 06:18:10 2019, MaxMem=   140000000 cpu:               3.6 elap:               0.2
 (Enter /usr/g16/l9999.exe)

 This type of calculation cannot be archived.


 SOME PEOPLE TRY TO PULL THE WOOL OVER YOUR EYES
 USING THE WRONG YARN.
 Job cpu time:       0 days  5 hours 18 minutes 30.4 seconds.
 Elapsed time:       0 days  0 hours 13 minutes 55.7 seconds.
 File lengths (MBytes):  RWF=     78 Int=      0 D2E=      0 Chk=      9 Scr=      1
 Normal termination of Gaussian 16 at Thu Oct 31 06:18:10 2019.
