 Entering Gaussian System, Link 0=g16
 Input=irc3.gjf
 Output=irc3.log
 Initial command:
 /home/soft/g16/l1.exe "/tmp/gaussian/Gau-53222.inp" -scrdir="/tmp/gaussian/"
 Entering Link 1 = /home/soft/g16/l1.exe PID=     53223.
  
 Copyright (c) 1988,1990,1992,1993,1995,1998,2003,2009,2016,
            Gaussian, Inc.  All Rights Reserved.
  
 This is part of the Gaussian(R) 16 program.  It is based on
 the Gaussian(R) 09 system (copyright 2009, Gaussian, Inc.),
 the Gaussian(R) 03 system (copyright 2003, Gaussian, Inc.),
 the Gaussian(R) 98 system (copyright 1998, Gaussian, Inc.),
 the Gaussian(R) 94 system (copyright 1995, Gaussian, Inc.),
 the Gaussian 92(TM) system (copyright 1992, Gaussian, Inc.),
 the Gaussian 90(TM) system (copyright 1990, Gaussian, Inc.),
 the Gaussian 88(TM) system (copyright 1988, Gaussian, Inc.),
 the Gaussian 86(TM) system (copyright 1986, Carnegie Mellon
 University), and the Gaussian 82(TM) system (copyright 1983,
 Carnegie Mellon University). Gaussian is a federally registered
 trademark of Gaussian, Inc.
  
 This software contains proprietary and confidential information,
 including trade secrets, belonging to Gaussian, Inc.
  
 This software is provided under written license and may be
 used, copied, transmitted, or stored only in accord with that
 written license.
  
 The following legend is applicable only to US Government
 contracts under FAR:
  
                    RESTRICTED RIGHTS LEGEND
  
 Use, reproduction and disclosure by the US Government is
 subject to restrictions as set forth in subparagraphs (a)
 and (c) of the Commercial Computer Software - Restricted
 Rights clause in FAR 52.227-19.
  
 Gaussian, Inc.
 340 Quinnipiac St., Bldg. 40, Wallingford CT 06492
  
  
 ---------------------------------------------------------------
 Warning -- This program may not be used in any manner that
 competes with the business of Gaussian, Inc. or will provide
 assistance to any competitor of Gaussian, Inc.  The licensee
 of this program is prohibited from giving any competitor of
 Gaussian, Inc. access to this program.  By using this program,
 the user acknowledges that Gaussian, Inc. is engaged in the
 business of creating and licensing software in the field of
 computational chemistry and represents and warrants to the
 licensee that it is not a competitor of Gaussian, Inc. and that
 it will not use this program in any manner prohibited above.
 ---------------------------------------------------------------
  

 Cite this work as:
 Gaussian 16, Revision A.03,
 M. J. Frisch, G. W. Trucks, H. B. Schlegel, G. E. Scuseria, 
 M. A. Robb, J. R. Cheeseman, G. Scalmani, V. Barone, 
 G. A. Petersson, H. Nakatsuji, X. Li, M. Caricato, A. V. Marenich, 
 J. Bloino, B. G. Janesko, R. Gomperts, B. Mennucci, H. P. Hratchian, 
 J. V. Ortiz, A. F. Izmaylov, J. L. Sonnenberg, D. Williams-Young, 
 F. Ding, F. Lipparini, F. Egidi, J. Goings, B. Peng, A. Petrone, 
 T. Henderson, D. Ranasinghe, V. G. Zakrzewski, J. Gao, N. Rega, 
 G. Zheng, W. Liang, M. Hada, M. Ehara, K. Toyota, R. Fukuda, 
 J. Hasegawa, M. Ishida, T. Nakajima, Y. Honda, O. Kitao, H. Nakai, 
 T. Vreven, K. Throssell, J. A. Montgomery, Jr., J. E. Peralta, 
 F. Ogliaro, M. J. Bearpark, J. J. Heyd, E. N. Brothers, K. N. Kudin, 
 V. N. Staroverov, T. A. Keith, R. Kobayashi, J. Normand, 
 K. Raghavachari, A. P. Rendell, J. C. Burant, S. S. Iyengar, 
 J. Tomasi, M. Cossi, J. M. Millam, M. Klene, C. Adamo, R. Cammi, 
 J. W. Ochterski, R. L. Martin, K. Morokuma, O. Farkas, 
 J. B. Foresman, and D. J. Fox, Gaussian, Inc., Wallingford CT, 2016.
 
 ******************************************
 Gaussian 16:  ES64L-G16RevA.03 25-Dec-2016
                15-Oct-2019 
 ******************************************
 %chk=irc3.chk
 %nprocshared=24
 Will use up to   24 processors via shared memory.
 --------------------------------------------
 #p irc=(calcfc,maxpoint=30) b3lyp/6-311+g(d)
 --------------------------------------------
 1/10=4,18=10,26=3,38=1,42=30,44=3,172=1/1,23;
 2/12=2,17=6,18=5,29=1,40=1/2;
 3/5=4,6=6,7=11,11=2,25=1,30=1,71=2,74=-5,140=1/1,2,3;
 4//1;
 5/5=2,38=5/2;
 8/6=4,10=90,11=11/1;
 11/6=1,8=1,9=11,15=111,16=1/1,2,10;
 10/6=1,13=1/2;
 6/7=2,8=2,9=2,10=2,28=1/1;
 7/10=1,18=20,25=1/1,2,3,16;
 1/10=4,18=10,26=3,42=30,44=3/23(2);
 2/29=1/2;
 99/5=20/99;
 2/29=1/2;
 3/5=4,6=6,7=11,11=2,25=1,30=1,71=2,74=-5,140=1/1,2,3;
 4/5=5,16=3,69=1/1;
 5/5=2,38=5/2;
 8/6=4,10=90,11=11/1;
 11/6=1,8=1,9=11,15=111,16=1/1,2,10;
 10/6=1,13=1/2;
 7/10=1,18=20,25=1/1,2,3,16;
 1/18=10,26=3,42=30,44=3/23(-8);
 2/29=1/2;
 6/7=2,8=2,9=2,10=2,19=2,28=1/1;
 99/5=20,9=1/99;
 Leave Link    1 at Tue Oct 15 20:35:11 2019, MaxMem=           0 cpu:               2.2 elap:               0.1
 (Enter /home/soft/g16/l101.exe)
 -------------------
 Title Card Required
 -------------------
 Symbolic Z-matrix:
 Charge =  0 Multiplicity = 1
 C                    -1.2314    0.20073   0.23178 
 H                    -1.8926    0.4152    1.07594 
 O                    -1.09721  -1.04336  -0.07763 
 C                    -0.42065   1.18302  -0.3319 
 H                    -0.13308   1.06849  -1.37039 
 H                    -0.54778   2.20605   0.00728 
 C                     1.2911    0.39193   0.29304 
 H                     1.89269   1.14152  -0.2357 
 H                     1.23766   0.56771   1.37787 
 O                     1.30066  -0.81446  -0.1425 
 H                    -0.01879  -1.19049  -0.25151 
 
 ITRead=  0  0  0  0  0  0  0  0  0  0  0
 MicOpt= -1 -1 -1 -1 -1 -1 -1 -1 -1 -1 -1
 NAtoms=     11 NQM=       11 NQMF=       0 NMMI=      0 NMMIF=      0
                NMic=       0 NMicF=      0.
                    Isotopes and Nuclear Properties:
 (Nuclear quadrupole moments (NQMom) in fm**2, nuclear magnetic moments (NMagM)
  in nuclear magnetons)

  Atom         1           2           3           4           5           6           7           8           9          10
 IAtWgt=          12           1          16          12           1           1          12           1           1          16
 AtmWgt=  12.0000000   1.0078250  15.9949146  12.0000000   1.0078250   1.0078250  12.0000000   1.0078250   1.0078250  15.9949146
 NucSpn=           0           1           0           0           1           1           0           1           1           0
 AtZEff=  -0.0000000  -0.0000000  -0.0000000  -0.0000000  -0.0000000  -0.0000000  -0.0000000  -0.0000000  -0.0000000  -0.0000000
 NQMom=    0.0000000   0.0000000   0.0000000   0.0000000   0.0000000   0.0000000   0.0000000   0.0000000   0.0000000   0.0000000
 NMagM=    0.0000000   2.7928460   0.0000000   0.0000000   2.7928460   2.7928460   0.0000000   2.7928460   2.7928460   0.0000000
 AtZNuc=   6.0000000   1.0000000   8.0000000   6.0000000   1.0000000   1.0000000   6.0000000   1.0000000   1.0000000   8.0000000

  Atom        11
 IAtWgt=           1
 AtmWgt=   1.0078250
 NucSpn=           1
 AtZEff=  -0.0000000
 NQMom=    0.0000000
 NMagM=    2.7928460
 AtZNuc=   1.0000000
 Leave Link  101 at Tue Oct 15 20:35:11 2019, MaxMem=   280000000 cpu:               3.2 elap:               0.2
 (Enter /home/soft/g16/l123.exe)
 IRC-IRC-IRC-IRC-IRC-IRC-IRC-IRC-IRC-IRC-IRC-IRC-IRC-IRC-IRC-IRC-IRC-IRC
 ------------------------------------------------------------------------
 INPUT DATA FOR L123
 ------------------------------------------------------------------------
 GENERAL PARAMETERS:
 Follow reaction path in both directions.
 Maximum points per path      =  30
 Step size                    =   0.100 bohr
 Integration scheme           = HPC                                 
    Redo corrector integration= Yes                                 
    DWI Weight Power          =  2
    DWI will use Hessian update vectors when possible.
    Max correction cycles     =  20
 Initial Hessian              = CalcFC
 Hessian evaluation           = All updating
 Hessian updating method      = Bofill                              
 ------------------------------------------------------------------------
 IRC-IRC-IRC-IRC-IRC-IRC-IRC-IRC-IRC-IRC-IRC-IRC-IRC-IRC-IRC-IRC-IRC-IRC
 Leave Link  123 at Tue Oct 15 20:35:11 2019, MaxMem=   280000000 cpu:               0.4 elap:               0.0
 (Enter /home/soft/g16/l202.exe)
                          Input orientation:                          
 ---------------------------------------------------------------------
 Center     Atomic      Atomic             Coordinates (Angstroms)
 Number     Number       Type             X           Y           Z
 ---------------------------------------------------------------------
      1          6           0       -1.231399    0.200731    0.231782
      2          1           0       -1.892598    0.415195    1.075944
      3          8           0       -1.097210   -1.043364   -0.077634
      4          6           0       -0.420652    1.183024   -0.331899
      5          1           0       -0.133078    1.068486   -1.370393
      6          1           0       -0.547777    2.206046    0.007279
      7          6           0        1.291100    0.391933    0.293044
      8          1           0        1.892694    1.141520   -0.235700
      9          1           0        1.237659    0.567706    1.377868
     10          8           0        1.300659   -0.814459   -0.142498
     11          1           0       -0.018790   -1.190492   -0.251507
 ---------------------------------------------------------------------
                    Distance matrix (angstroms):
                    1          2          3          4          5
     1  C    0.000000
     2  H    1.093521   0.000000
     3  O    1.288999   2.022567   0.000000
     4  C    1.392820   2.176743   2.340766   0.000000
     5  H    2.127504   3.083385   2.657195   1.083645   0.000000
     6  H    2.130500   2.481479   3.296627   1.085254   1.834121
     7  C    2.530477   3.278629   2.810961   1.986573   2.291949
     8  H    3.295995   4.071412   3.706512   2.315717   2.323061
     9  H    2.746713   3.148480   3.188361   2.460064   3.111694
    10  O    2.753546   3.632291   2.409643   2.643619   2.666235
    11  H    1.907745   2.802055   1.102211   2.408637   2.523480
                    6          7          8          9         10
     6  H    0.000000
     7  C    2.598872   0.000000
     8  H    2.673603   1.096981   0.000000
     9  H    2.783964   1.100271   1.833558   0.000000
    10  O    3.544376   1.282642   2.045738   2.055690   0.000000
    11  H    3.447212   2.125186   3.015344   2.706434   1.376310
                   11
    11  H    0.000000
 Symmetry turned off by external request.
 Stoichiometry    C3H6O2
 Framework group  C1[X(C3H6O2)]
 Deg. of freedom    27
 Full point group                 C1      NOp   1
 Rotational constants (GHZ):           7.8121119           4.8482834           3.3264499
 Leave Link  202 at Tue Oct 15 20:35:11 2019, MaxMem=   280000000 cpu:               0.6 elap:               0.1
 (Enter /home/soft/g16/l301.exe)
 Standard basis: 6-311+G(d) (5D, 7F)
 Ernie: Thresh=  0.10000D-02 Tol=  0.10000D-05 Strict=F.
   128 basis functions,   210 primitive gaussians,   133 cartesian basis functions
    20 alpha electrons       20 beta electrons
       nuclear repulsion energy       180.2958426922 Hartrees.
 IExCor=  402 DFT=T Ex+Corr=B3LYP ExCW=0 ScaHFX=  0.200000
 ScaDFX=  0.800000  0.720000  1.000000  0.810000 ScalE2=  1.000000  1.000000
 IRadAn=      5 IRanWt=     -1 IRanGd=            0 ICorTp=0 IEmpDi=  4
 NAtoms=   11 NActive=   11 NUniq=   11 SFac= 1.00D+00 NAtFMM=   60 NAOKFM=F Big=F
 Integral buffers will be    131072 words long.
 Raffenetti 2 integral format.
 Two-electron integral symmetry is turned off.
 Leave Link  301 at Tue Oct 15 20:35:11 2019, MaxMem=   280000000 cpu:               1.7 elap:               0.1
 (Enter /home/soft/g16/l302.exe)
 NPDir=0 NMtPBC=     1 NCelOv=     1 NCel=       1 NClECP=     1 NCelD=      1
         NCelK=      1 NCelE2=     1 NClLst=     1 CellRange=     0.0.
 One-electron integrals computed using PRISM.
 NBasis=   128 RedAO= T EigKep=  8.85D-05  NBF=   128
 NBsUse=   128 1.00D-06 EigRej= -1.00D+00 NBFU=   128
 Precomputing XC quadrature grid using
 IXCGrd= 4 IRadAn=           5 IRanWt=          -1 IRanGd=           0 AccXCQ= 0.00D+00.
 Generated NRdTot=       0 NPtTot=           0 NUsed=           0 NTot=          32
 NSgBfM=   133   133   133   133   133 MxSgAt=    11 MxSgA2=    11.
 Leave Link  302 at Tue Oct 15 20:35:11 2019, MaxMem=   280000000 cpu:               4.3 elap:               0.3
 (Enter /home/soft/g16/l303.exe)
 DipDrv:  MaxL=1.
 Leave Link  303 at Tue Oct 15 20:35:12 2019, MaxMem=   280000000 cpu:               1.9 elap:               0.1
 (Enter /home/soft/g16/l401.exe)
 ExpMin= 4.38D-02 ExpMax= 8.59D+03 ExpMxC= 1.30D+03 IAcc=3 IRadAn=         5 AccDes= 0.00D+00
 Harris functional with IExCor=  402 and IRadAn=       5 diagonalized for initial guess.
 HarFok:  IExCor=  402 AccDes= 0.00D+00 IRadAn=         5 IDoV= 1 UseB2=F ITyADJ=14
 ICtDFT=  3500011 ScaDFX=  1.000000  1.000000  1.000000  1.000000
 FoFCou: FMM=F IPFlag=           0 FMFlag=      100000 FMFlg1=           0
         NFxFlg=           0 DoJE=T BraDBF=F KetDBF=T FulRan=T
         wScrn=  0.000000 ICntrl=       500 IOpCl=  0 I1Cent=   200000004 NGrid=           0
         NMat0=    1 NMatS0=      1 NMatT0=    0 NMatD0=    1 NMtDS0=    0 NMtDT0=    0
 Symmetry not used in FoFCou.
 Harris En= -268.404006294945    
 JPrj=0 DoOrth=F DoCkMO=F.
 Leave Link  401 at Tue Oct 15 20:35:12 2019, MaxMem=   280000000 cpu:               8.0 elap:               0.4
 (Enter /home/soft/g16/l502.exe)
 Keep R1 ints in memory in canonical form, NReq=57089522.
 FoFCou: FMM=F IPFlag=           0 FMFlag=           0 FMFlg1=           0
         NFxFlg=           0 DoJE=F BraDBF=F KetDBF=F FulRan=T
         wScrn=  0.000000 ICntrl=       600 IOpCl=  0 I1Cent=           0 NGrid=           0
         NMat0=    1 NMatS0=   8256 NMatT0=    0 NMatD0=    1 NMtDS0=    0 NMtDT0=    0
 Symmetry not used in FoFCou.
 Two-electron integral symmetry not used.
 Closed shell SCF:
 Using DIIS extrapolation, IDIIS=  1040.
 NGot=   280000000 LenX=   245875378 LenY=   245857248
 Requested convergence on RMS density matrix=1.00D-08 within 128 cycles.
 Requested convergence on MAX density matrix=1.00D-06.
 Requested convergence on             energy=1.00D-06.
 No special actions if energy rises.

 Cycle   1  Pass 1  IDiag  1:
 E= -268.224717032011    
 DIIS: error= 3.15D-02 at cycle   1 NSaved=   1.
 NSaved= 1 IEnMin= 1 EnMin= -268.224717032011     IErMin= 1 ErrMin= 3.15D-02
 ErrMax= 3.15D-02  0.00D+00 EMaxC= 1.00D-01 BMatC= 2.01D-01 BMatP= 2.01D-01
 IDIUse=3 WtCom= 6.85D-01 WtEn= 3.15D-01
 Coeff-Com:  0.100D+01
 Coeff-En:   0.100D+01
 Coeff:      0.100D+01
 Gap=     0.122 Goal=   None    Shift=    0.000
 GapD=    0.122 DampG=1.000 DampE=0.500 DampFc=0.5000 IDamp=-1.
 Damping current iteration by 5.00D-01
 RMSDP=1.57D-02 MaxDP=6.60D-01              OVMax= 3.44D-01

 Cycle   2  Pass 1  IDiag  1:
 E= -268.243194242759     Delta-E=       -0.018477210748 Rises=F Damp=T
 DIIS: error= 2.05D-02 at cycle   2 NSaved=   2.
 NSaved= 2 IEnMin= 2 EnMin= -268.243194242759     IErMin= 2 ErrMin= 2.05D-02
 ErrMax= 2.05D-02  0.00D+00 EMaxC= 1.00D-01 BMatC= 3.99D-02 BMatP= 2.01D-01
 IDIUse=3 WtCom= 7.95D-01 WtEn= 2.05D-01
 Coeff-Com:  0.255D+00 0.745D+00
 Coeff-En:   0.443D+00 0.557D+00
 Coeff:      0.293D+00 0.707D+00
 Gap=     0.217 Goal=   None    Shift=    0.000
 RMSDP=6.42D-03 MaxDP=2.77D-01 DE=-1.85D-02 OVMax= 2.26D-01

 Cycle   3  Pass 1  IDiag  1:
 E= -268.346287629553     Delta-E=       -0.103093386794 Rises=F Damp=F
 DIIS: error= 1.54D-02 at cycle   3 NSaved=   3.
 NSaved= 3 IEnMin= 3 EnMin= -268.346287629553     IErMin= 3 ErrMin= 1.54D-02
 ErrMax= 1.54D-02  0.00D+00 EMaxC= 1.00D-01 BMatC= 2.90D-02 BMatP= 3.99D-02
 IDIUse=3 WtCom= 8.46D-01 WtEn= 1.54D-01
 Coeff-Com:  0.848D-01 0.456D+00 0.459D+00
 Coeff-En:   0.000D+00 0.000D+00 0.100D+01
 Coeff:      0.717D-01 0.386D+00 0.543D+00
 Gap=     0.191 Goal=   None    Shift=    0.000
 RMSDP=1.85D-03 MaxDP=2.51D-02 DE=-1.03D-01 OVMax= 9.47D-02

 Cycle   4  Pass 1  IDiag  1:
 E= -268.367303258241     Delta-E=       -0.021015628688 Rises=F Damp=F
 DIIS: error= 5.83D-03 at cycle   4 NSaved=   4.
 NSaved= 4 IEnMin= 4 EnMin= -268.367303258241     IErMin= 4 ErrMin= 5.83D-03
 ErrMax= 5.83D-03  0.00D+00 EMaxC= 1.00D-01 BMatC= 6.13D-03 BMatP= 2.90D-02
 IDIUse=3 WtCom= 9.42D-01 WtEn= 5.83D-02
 Coeff-Com:  0.116D-01 0.109D+00 0.330D+00 0.549D+00
 Coeff-En:   0.000D+00 0.000D+00 0.199D+00 0.801D+00
 Coeff:      0.109D-01 0.103D+00 0.322D+00 0.564D+00
 Gap=     0.188 Goal=   None    Shift=    0.000
 RMSDP=7.34D-04 MaxDP=1.38D-02 DE=-2.10D-02 OVMax= 2.85D-02

 Cycle   5  Pass 1  IDiag  1:
 E= -268.372284522062     Delta-E=       -0.004981263821 Rises=F Damp=F
 DIIS: error= 1.45D-03 at cycle   5 NSaved=   5.
 NSaved= 5 IEnMin= 5 EnMin= -268.372284522062     IErMin= 5 ErrMin= 1.45D-03
 ErrMax= 1.45D-03  0.00D+00 EMaxC= 1.00D-01 BMatC= 3.28D-04 BMatP= 6.13D-03
 IDIUse=3 WtCom= 9.85D-01 WtEn= 1.45D-02
 Coeff-Com: -0.333D-03 0.234D-01 0.135D+00 0.315D+00 0.526D+00
 Coeff-En:   0.000D+00 0.000D+00 0.000D+00 0.000D+00 0.100D+01
 Coeff:     -0.328D-03 0.231D-01 0.133D+00 0.311D+00 0.533D+00
 Gap=     0.184 Goal=   None    Shift=    0.000
 RMSDP=1.53D-04 MaxDP=2.58D-03 DE=-4.98D-03 OVMax= 5.60D-03

 Cycle   6  Pass 1  IDiag  1:
 E= -268.372507271488     Delta-E=       -0.000222749426 Rises=F Damp=F
 DIIS: error= 5.45D-04 at cycle   6 NSaved=   6.
 NSaved= 6 IEnMin= 6 EnMin= -268.372507271488     IErMin= 6 ErrMin= 5.45D-04
 ErrMax= 5.45D-04  0.00D+00 EMaxC= 1.00D-01 BMatC= 5.24D-05 BMatP= 3.28D-04
 IDIUse=3 WtCom= 9.95D-01 WtEn= 5.45D-03
 Coeff-Com: -0.191D-02 0.156D-02 0.399D-01 0.117D+00 0.336D+00 0.507D+00
 Coeff-En:   0.000D+00 0.000D+00 0.000D+00 0.000D+00 0.119D+00 0.881D+00
 Coeff:     -0.190D-02 0.155D-02 0.396D-01 0.117D+00 0.335D+00 0.509D+00
 Gap=     0.184 Goal=   None    Shift=    0.000
 RMSDP=5.62D-05 MaxDP=8.23D-04 DE=-2.23D-04 OVMax= 2.19D-03

 Cycle   7  Pass 1  IDiag  1:
 E= -268.372545950446     Delta-E=       -0.000038678958 Rises=F Damp=F
 DIIS: error= 1.44D-04 at cycle   7 NSaved=   7.
 NSaved= 7 IEnMin= 7 EnMin= -268.372545950446     IErMin= 7 ErrMin= 1.44D-04
 ErrMax= 1.44D-04  0.00D+00 EMaxC= 1.00D-01 BMatC= 2.98D-06 BMatP= 5.24D-05
 IDIUse=3 WtCom= 9.99D-01 WtEn= 1.44D-03
 Coeff-Com: -0.766D-03-0.947D-03 0.103D-01 0.364D-01 0.141D+00 0.271D+00
 Coeff-Com:  0.543D+00
 Coeff-En:   0.000D+00 0.000D+00 0.000D+00 0.000D+00 0.000D+00 0.000D+00
 Coeff-En:   0.100D+01
 Coeff:     -0.765D-03-0.946D-03 0.103D-01 0.363D-01 0.141D+00 0.271D+00
 Coeff:      0.543D+00
 Gap=     0.184 Goal=   None    Shift=    0.000
 RMSDP=1.62D-05 MaxDP=4.16D-04 DE=-3.87D-05 OVMax= 7.00D-04

 Cycle   8  Pass 1  IDiag  1:
 E= -268.372548484676     Delta-E=       -0.000002534230 Rises=F Damp=F
 DIIS: error= 3.57D-05 at cycle   8 NSaved=   8.
 NSaved= 8 IEnMin= 8 EnMin= -268.372548484676     IErMin= 8 ErrMin= 3.57D-05
 ErrMax= 3.57D-05  0.00D+00 EMaxC= 1.00D-01 BMatC= 1.97D-07 BMatP= 2.98D-06
 IDIUse=1 WtCom= 1.00D+00 WtEn= 0.00D+00
 Coeff-Com: -0.928D-04-0.580D-03 0.540D-03 0.402D-02 0.307D-01 0.642D-01
 Coeff-Com:  0.246D+00 0.656D+00
 Coeff:     -0.928D-04-0.580D-03 0.540D-03 0.402D-02 0.307D-01 0.642D-01
 Coeff:      0.246D+00 0.656D+00
 Gap=     0.184 Goal=   None    Shift=    0.000
 RMSDP=5.11D-06 MaxDP=7.93D-05 DE=-2.53D-06 OVMax= 1.99D-04

 Cycle   9  Pass 1  IDiag  1:
 E= -268.372548672624     Delta-E=       -0.000000187949 Rises=F Damp=F
 DIIS: error= 7.66D-06 at cycle   9 NSaved=   9.
 NSaved= 9 IEnMin= 9 EnMin= -268.372548672624     IErMin= 9 ErrMin= 7.66D-06
 ErrMax= 7.66D-06  0.00D+00 EMaxC= 1.00D-01 BMatC= 1.15D-08 BMatP= 1.97D-07
 IDIUse=1 WtCom= 1.00D+00 WtEn= 0.00D+00
 Coeff-Com:  0.388D-05-0.150D-03-0.292D-03-0.118D-03 0.574D-02 0.123D-01
 Coeff-Com:  0.686D-01 0.281D+00 0.633D+00
 Coeff:      0.388D-05-0.150D-03-0.292D-03-0.118D-03 0.574D-02 0.123D-01
 Coeff:      0.686D-01 0.281D+00 0.633D+00
 Gap=     0.184 Goal=   None    Shift=    0.000
 RMSDP=1.04D-06 MaxDP=2.20D-05 DE=-1.88D-07 OVMax= 5.01D-05

 Cycle  10  Pass 1  IDiag  1:
 E= -268.372548681651     Delta-E=       -0.000000009027 Rises=F Damp=F
 DIIS: error= 4.32D-06 at cycle  10 NSaved=  10.
 NSaved=10 IEnMin=10 EnMin= -268.372548681651     IErMin=10 ErrMin= 4.32D-06
 ErrMax= 4.32D-06  0.00D+00 EMaxC= 1.00D-01 BMatC= 3.00D-09 BMatP= 1.15D-08
 IDIUse=1 WtCom= 1.00D+00 WtEn= 0.00D+00
 Coeff-Com:  0.803D-05-0.222D-04-0.316D-03-0.719D-03-0.676D-03-0.131D-02
 Coeff-Com:  0.878D-02 0.882D-01 0.389D+00 0.517D+00
 Coeff:      0.803D-05-0.222D-04-0.316D-03-0.719D-03-0.676D-03-0.131D-02
 Coeff:      0.878D-02 0.882D-01 0.389D+00 0.517D+00
 Gap=     0.184 Goal=   None    Shift=    0.000
 RMSDP=4.43D-07 MaxDP=1.07D-05 DE=-9.03D-09 OVMax= 1.72D-05

 Cycle  11  Pass 1  IDiag  1:
 E= -268.372548684550     Delta-E=       -0.000000002899 Rises=F Damp=F
 DIIS: error= 7.92D-07 at cycle  11 NSaved=  11.
 NSaved=11 IEnMin=11 EnMin= -268.372548684550     IErMin=11 ErrMin= 7.92D-07
 ErrMax= 7.92D-07  0.00D+00 EMaxC= 1.00D-01 BMatC= 5.07D-11 BMatP= 3.00D-09
 IDIUse=1 WtCom= 1.00D+00 WtEn= 0.00D+00
 Coeff-Com: -0.609D-05 0.158D-04-0.406D-04-0.912D-04-0.387D-03-0.700D-03
 Coeff-Com: -0.237D-02-0.263D-02 0.209D-01 0.547D-01 0.931D+00
 Coeff:     -0.609D-05 0.158D-04-0.406D-04-0.912D-04-0.387D-03-0.700D-03
 Coeff:     -0.237D-02-0.263D-02 0.209D-01 0.547D-01 0.931D+00
 Gap=     0.184 Goal=   None    Shift=    0.000
 RMSDP=8.62D-08 MaxDP=1.58D-06 DE=-2.90D-09 OVMax= 4.82D-06

 Cycle  12  Pass 1  IDiag  1:
 E= -268.372548684611     Delta-E=       -0.000000000060 Rises=F Damp=F
 DIIS: error= 5.18D-08 at cycle  12 NSaved=  12.
 NSaved=12 IEnMin=12 EnMin= -268.372548684611     IErMin=12 ErrMin= 5.18D-08
 ErrMax= 5.18D-08  0.00D+00 EMaxC= 1.00D-01 BMatC= 7.21D-13 BMatP= 5.07D-11
 IDIUse=1 WtCom= 1.00D+00 WtEn= 0.00D+00
 Coeff-Com: -0.148D-05 0.341D-05 0.140D-05 0.314D-05-0.206D-04-0.435D-04
 Coeff-Com: -0.436D-03-0.246D-02-0.809D-02-0.113D-01 0.101D+00 0.922D+00
 Coeff:     -0.148D-05 0.341D-05 0.140D-05 0.314D-05-0.206D-04-0.435D-04
 Coeff:     -0.436D-03-0.246D-02-0.809D-02-0.113D-01 0.101D+00 0.922D+00
 Gap=     0.184 Goal=   None    Shift=    0.000
 RMSDP=1.39D-08 MaxDP=2.58D-07 DE=-6.05D-11 OVMax= 6.96D-07

 Cycle  13  Pass 1  IDiag  1:
 E= -268.372548684608     Delta-E=        0.000000000002 Rises=F Damp=F
 DIIS: error= 1.10D-08 at cycle  13 NSaved=  13.
 NSaved=13 IEnMin=12 EnMin= -268.372548684611     IErMin=13 ErrMin= 1.10D-08
 ErrMax= 1.10D-08  0.00D+00 EMaxC= 1.00D-01 BMatC= 2.68D-14 BMatP= 7.21D-13
 IDIUse=1 WtCom= 1.00D+00 WtEn= 0.00D+00
 Coeff-Com:  0.471D-08 0.454D-07 0.136D-05 0.287D-05 0.114D-04 0.125D-04
 Coeff-Com:  0.229D-04-0.275D-03-0.197D-02-0.389D-02-0.237D-01 0.128D+00
 Coeff-Com:  0.902D+00
 Coeff:      0.471D-08 0.454D-07 0.136D-05 0.287D-05 0.114D-04 0.125D-04
 Coeff:      0.229D-04-0.275D-03-0.197D-02-0.389D-02-0.237D-01 0.128D+00
 Coeff:      0.902D+00
 Gap=     0.184 Goal=   None    Shift=    0.000
 RMSDP=3.32D-09 MaxDP=3.82D-08 DE= 2.10D-12 OVMax= 1.78D-07

 SCF Done:  E(RB3LYP) =  -268.372548685     A.U. after   13 cycles
            NFock= 13  Conv=0.33D-08     -V/T= 2.0036
 KE= 2.674194160943D+02 PE=-9.894010639506D+02 EE= 2.733132564795D+02
 Leave Link  502 at Tue Oct 15 20:35:16 2019, MaxMem=   280000000 cpu:              62.5 elap:               3.5
 (Enter /home/soft/g16/l801.exe)
 DoSCS=F DFT=T ScalE2(SS,OS)=  1.000000  1.000000
 Range of M.O.s used for correlation:     1   128
 NBasis=   128 NAE=    20 NBE=    20 NFC=     0 NFV=     0
 NROrb=    128 NOA=    20 NOB=    20 NVA=   108 NVB=   108

 **** Warning!!: The largest alpha MO coefficient is  0.38229641D+02

 Leave Link  801 at Tue Oct 15 20:35:16 2019, MaxMem=   280000000 cpu:               0.6 elap:               0.0
 (Enter /home/soft/g16/l1101.exe)
 Using compressed storage, NAtomX=    11.
 Will process     12 centers per pass.
 Leave Link 1101 at Tue Oct 15 20:35:16 2019, MaxMem=   280000000 cpu:               3.2 elap:               0.2
 (Enter /home/soft/g16/l1102.exe)
 Symmetrizing basis deriv contribution to polar:
 IMax=3 JMax=2 DiffMx= 0.00D+00
 Leave Link 1102 at Tue Oct 15 20:35:16 2019, MaxMem=   280000000 cpu:               0.9 elap:               0.1
 (Enter /home/soft/g16/l1110.exe)
 Forming Gx(P) for the SCF density, NAtomX=    11.
 Integral derivatives from FoFJK, PRISM(SPDF).
 Do as many integral derivatives as possible in FoFJK.
 G2DrvN: MDV=     279999094.
 G2DrvN: will do    12 centers at a time, making    1 passes.
 Calling FoFCou, ICntrl=  3107 FMM=F I1Cent=   0 AccDes= 0.00D+00.
 FoFJK:  IHMeth= 1 ICntrl=    3107 DoSepK=F KAlg= 0 I1Cent=           0 FoldK=F
 IRaf=         0 NMat=       1 IRICut=       1 DoRegI=T DoRafI=F ISym2E= 0 IDoP0=0 IntGTp=1.
 FoFCou: FMM=F IPFlag=           0 FMFlag=      100000 FMFlg1=           0
         NFxFlg=           0 DoJE=F BraDBF=F KetDBF=F FulRan=T
         wScrn=  0.000000 ICntrl=      3107 IOpCl=  0 I1Cent=           0 NGrid=           0
         NMat0=    1 NMatS0=      1 NMatT0=    0 NMatD0=    1 NMtDS0=    0 NMtDT0=    0
 Symmetry not used in FoFCou.
 End of G2Drv F.D. properties file   721 does not exist.
 End of G2Drv F.D. properties file   722 does not exist.
 End of G2Drv F.D. properties file   788 does not exist.
 Leave Link 1110 at Tue Oct 15 20:35:20 2019, MaxMem=   280000000 cpu:              91.3 elap:               3.8
 (Enter /home/soft/g16/l1002.exe)
 Minotr:  Closed shell wavefunction.
          IDoAtm=11111111111
          Direct CPHF calculation.
          Differentiating once with respect to nuclear coordinates.
          Requested convergence is 1.0D-08 RMS, and 1.0D-07 maximum.
          Secondary convergence is 1.0D-12 RMS, and 1.0D-12 maximum.
          NewPWx=T KeepS1=F KeepF1=F KeepIn=T MapXYZ=F SortEE=F KeepMc=T.
         3335 words used for storage of precomputed grid.
 Keep R1 ints in memory in canonical form, NReq=57016185.
 FoFCou: FMM=F IPFlag=           0 FMFlag=           0 FMFlg1=           0
         NFxFlg=           0 DoJE=F BraDBF=F KetDBF=F FulRan=T
         wScrn=  0.000000 ICntrl=       600 IOpCl=  0 I1Cent=           0 NGrid=           0
         NMat0=    1 NMatS0=   8256 NMatT0=    0 NMatD0=    1 NMtDS0=    0 NMtDT0=    0
 Symmetry not used in FoFCou.
 Two-electron integral symmetry not used.
          MDV=     280000000 using IRadAn=       1.
          Solving linear equations simultaneously, MaxMat=       0.
          There are    36 degrees of freedom in the 1st order CPHF.  IDoFFX=6 NUNeed=     0.
     30 vectors produced by pass  0 Test12= 6.00D-15 2.78D-09 XBig12= 1.70D-01 1.19D-01.
 AX will form    30 AO Fock derivatives at one time.
     30 vectors produced by pass  1 Test12= 6.00D-15 2.78D-09 XBig12= 3.07D-02 5.41D-02.
     30 vectors produced by pass  2 Test12= 6.00D-15 2.78D-09 XBig12= 4.00D-04 2.84D-03.
     30 vectors produced by pass  3 Test12= 6.00D-15 2.78D-09 XBig12= 1.39D-06 1.92D-04.
     30 vectors produced by pass  4 Test12= 6.00D-15 2.78D-09 XBig12= 2.14D-09 5.29D-06.
     28 vectors produced by pass  5 Test12= 6.00D-15 2.78D-09 XBig12= 2.27D-12 1.57D-07.
      2 vectors produced by pass  6 Test12= 6.00D-15 2.78D-09 XBig12= 2.26D-15 6.24D-09.
 InvSVY:  IOpt=1 It=  1 EMax= 1.78D-15
 Solved reduced A of dimension   180 with    30 vectors.
 End of Minotr F.D. properties file   721 does not exist.
 End of Minotr F.D. properties file   722 does not exist.
 End of Minotr F.D. properties file   788 does not exist.
 Leave Link 1002 at Tue Oct 15 20:35:24 2019, MaxMem=   280000000 cpu:             107.7 elap:               4.5
 (Enter /home/soft/g16/l601.exe)
 Copying SCF densities to generalized density rwf, IOpCl= 0 IROHF=0.

 **********************************************************************

            Population analysis using the SCF density.

 **********************************************************************

 Alpha  occ. eigenvalues --  -19.16533 -19.10674 -10.28113 -10.26287 -10.19900
 Alpha  occ. eigenvalues --   -1.09559  -1.02067  -0.78577  -0.64466  -0.63879
 Alpha  occ. eigenvalues --   -0.54136  -0.52034  -0.47316  -0.45659  -0.43739
 Alpha  occ. eigenvalues --   -0.42398  -0.36919  -0.35560  -0.27187  -0.25781
 Alpha virt. eigenvalues --   -0.07359   0.00052   0.01590   0.01851   0.03355
 Alpha virt. eigenvalues --    0.04918   0.06028   0.06669   0.07055   0.07883
 Alpha virt. eigenvalues --    0.08480   0.11290   0.12242   0.14157   0.16295
 Alpha virt. eigenvalues --    0.16585   0.19488   0.19801   0.20372   0.21588
 Alpha virt. eigenvalues --    0.23177   0.23635   0.25411   0.27161   0.28425
 Alpha virt. eigenvalues --    0.29246   0.30207   0.31414   0.33278   0.34522
 Alpha virt. eigenvalues --    0.41093   0.42693   0.45017   0.47524   0.48752
 Alpha virt. eigenvalues --    0.50282   0.52971   0.57370   0.60798   0.64040
 Alpha virt. eigenvalues --    0.64402   0.65317   0.66807   0.68581   0.70199
 Alpha virt. eigenvalues --    0.71611   0.79477   0.87629   0.93159   1.02056
 Alpha virt. eigenvalues --    1.04254   1.10722   1.12488   1.13833   1.17361
 Alpha virt. eigenvalues --    1.22222   1.31278   1.32183   1.36166   1.42130
 Alpha virt. eigenvalues --    1.48603   1.52039   1.57584   1.58804   1.61986
 Alpha virt. eigenvalues --    1.68108   1.73796   1.76060   1.88430   1.91192
 Alpha virt. eigenvalues --    1.99907   2.11314   2.37153   2.38106   2.42203
 Alpha virt. eigenvalues --    2.48506   2.50887   2.58486   2.63234   2.68203
 Alpha virt. eigenvalues --    2.80510   2.86023   3.00001   3.02261   3.08578
 Alpha virt. eigenvalues --    3.09328   3.12336   3.17072   3.18116   3.20512
 Alpha virt. eigenvalues --    3.26617   3.28918   3.33178   3.39377   3.61069
 Alpha virt. eigenvalues --    3.91279   4.00540   4.96884   5.04591   5.05677
 Alpha virt. eigenvalues --    5.11737   5.55255   5.58580  23.46885  23.61563
 Alpha virt. eigenvalues --   23.94402  49.86756  49.90686
          Condensed to atoms (all electrons):
               1          2          3          4          5          6
     1  C    5.249660   0.362173   0.344763   0.177938  -0.054371  -0.049865
     2  H    0.362173   0.480058  -0.059949  -0.000365   0.002022  -0.001842
     3  O    0.344763  -0.059949   8.011623  -0.116538  -0.008456   0.011028
     4  C    0.177938  -0.000365  -0.116538   6.072913   0.416120   0.365876
     5  H   -0.054371   0.002022  -0.008456   0.416120   0.391835  -0.022917
     6  H   -0.049865  -0.001842   0.011028   0.365876  -0.022917   0.439456
     7  C    0.043815  -0.012977  -0.036055  -0.091013  -0.023597   0.000605
     8  H    0.032498  -0.000353   0.006012  -0.080117  -0.010943  -0.001028
     9  H   -0.039895  -0.000755  -0.003541  -0.025445   0.004033   0.002460
    10  O   -0.057558  -0.002574   0.014022  -0.114899  -0.002666   0.007400
    11  H   -0.039349   0.004013   0.194702   0.032040   0.000630  -0.001733
               7          8          9         10         11
     1  C    0.043815   0.032498  -0.039895  -0.057558  -0.039349
     2  H   -0.012977  -0.000353  -0.000755  -0.002574   0.004013
     3  O   -0.036055   0.006012  -0.003541   0.014022   0.194702
     4  C   -0.091013  -0.080117  -0.025445  -0.114899   0.032040
     5  H   -0.023597  -0.010943   0.004033  -0.002666   0.000630
     6  H    0.000605  -0.001028   0.002460   0.007400  -0.001733
     7  C    5.441595   0.395781   0.395781   0.290675  -0.022969
     8  H    0.395781   0.567740  -0.081359  -0.061627  -0.005014
     9  H    0.395781  -0.081359   0.580710  -0.064714   0.006859
    10  O    0.290675  -0.061627  -0.064714   8.278449   0.096843
    11  H   -0.022969  -0.005014   0.006859   0.096843   0.258749
 Mulliken charges:
               1
     1  C    0.030192
     2  H    0.230550
     3  O   -0.357612
     4  C   -0.636511
     5  H    0.308309
     6  H    0.250560
     7  C   -0.381640
     8  H    0.238409
     9  H    0.225866
    10  O   -0.383351
    11  H    0.475228
 Sum of Mulliken charges =  -0.00000
 Mulliken charges with hydrogens summed into heavy atoms:
               1
     1  C    0.260742
     3  O    0.117616
     4  C   -0.077641
     7  C    0.082634
    10  O   -0.383351
 APT charges:
               1
     1  C   -0.216894
     2  H    0.553408
     3  O   -0.337647
     4  C   -1.085016
     5  H    0.448423
     6  H    0.547639
     7  C   -0.813332
     8  H    0.516038
     9  H    0.414217
    10  O   -0.413233
    11  H    0.386397
 Sum of APT charges =  -0.00000
 APT charges with hydrogens summed into heavy atoms:
               1
     1  C    0.336514
     3  O    0.048750
     4  C   -0.088954
     7  C    0.116922
    10  O   -0.413233
 Electronic spatial extent (au):  <R**2>=            398.9156
 Charge=             -0.0000 electrons
 Dipole moment (field-independent basis, Debye):
    X=             -1.0165    Y=              3.5126    Z=              0.8175  Tot=              3.7469
 Quadrupole moment (field-independent basis, Debye-Ang):
   XX=            -33.0232   YY=            -32.3034   ZZ=            -29.8043
   XY=              1.1692   XZ=             -0.6832   YZ=              0.0781
 Traceless Quadrupole moment (field-independent basis, Debye-Ang):
   XX=             -1.3129   YY=             -0.5931   ZZ=              1.9060
   XY=              1.1692   XZ=             -0.6832   YZ=              0.0781
 Octapole moment (field-independent basis, Debye-Ang**2):
  XXX=             -3.5126  YYY=             -1.2194  ZZZ=             -0.2896  XYY=              0.8910
  XXY=              7.0609  XXZ=              4.2255  XZZ=             -0.7153  YZZ=             -0.7582
  YYZ=             -0.7641  XYZ=             -1.6935
 Hexadecapole moment (field-independent basis, Debye-Ang**3):
 XXXX=           -270.9873 YYYY=           -173.9120 ZZZZ=            -58.3402 XXXY=              7.4151
 XXXZ=             -5.5703 YYYX=             -0.7198 YYYZ=              3.5877 ZZZX=             -1.5612
 ZZZY=             -0.4141 XXYY=            -84.7792 XXZZ=            -54.4076 YYZZ=            -41.2153
 XXYZ=              0.4401 YYXZ=             -1.7770 ZZXY=              1.2725
 N-N= 1.802958426922D+02 E-N=-9.894010634945D+02  KE= 2.674194160943D+02
  Exact polarizability:   0.000   0.000   0.000   0.000   0.000   0.000
 Approx polarizability:  99.934  -0.791  79.805  -3.229   1.840  52.860
 No NMR shielding tensors so no spin-rotation constants.
 Leave Link  601 at Tue Oct 15 20:35:24 2019, MaxMem=   280000000 cpu:               3.2 elap:               0.2
 (Enter /home/soft/g16/l701.exe)
 ... and contract with generalized density number  0.
 Compute integral second derivatives.
 Leave Link  701 at Tue Oct 15 20:35:25 2019, MaxMem=   280000000 cpu:               3.1 elap:               0.2
 (Enter /home/soft/g16/l702.exe)
 L702 exits ... SP integral derivatives will be done elsewhere.
 Leave Link  702 at Tue Oct 15 20:35:25 2019, MaxMem=   280000000 cpu:               0.5 elap:               0.0
 (Enter /home/soft/g16/l703.exe)
 Integral derivatives from FoFJK, PRISM(SPDF).
 Compute integral second derivatives, UseDBF=F ICtDFT=           0.
 Calling FoFJK, ICntrl=    100147 FMM=F ISym2X=0 I1Cent= 0 IOpClX= 0 NMat=1 NMatS=1 NMatT=0.
 FoFJK:  IHMeth= 1 ICntrl=  100147 DoSepK=F KAlg= 0 I1Cent=           0 FoldK=F
 IRaf=         0 NMat=       1 IRICut=       1 DoRegI=T DoRafI=F ISym2E= 0 IDoP0=0 IntGTp=1.
 FoFCou: FMM=F IPFlag=           0 FMFlag=      100000 FMFlg1=         800
         NFxFlg=           0 DoJE=F BraDBF=F KetDBF=F FulRan=T
         wScrn=  0.000000 ICntrl=    100147 IOpCl=  0 I1Cent=           0 NGrid=           0
         NMat0=    1 NMatS0=      1 NMatT0=    0 NMatD0=    1 NMtDS0=    0 NMtDT0=    0
 Symmetry not used in FoFCou.
 Leave Link  703 at Tue Oct 15 20:35:31 2019, MaxMem=   280000000 cpu:             147.3 elap:               6.2
 (Enter /home/soft/g16/l716.exe)
 Dipole        =-3.99932380D-01 1.38194509D+00 3.21619918D-01
 Polarizability= 0.00000000D+00 0.00000000D+00 0.00000000D+00
                 0.00000000D+00 0.00000000D+00 0.00000000D+00
 -------------------------------------------------------------------
 Center     Atomic                   Forces (Hartrees/Bohr)
 Number     Number              X              Y              Z
 -------------------------------------------------------------------
      1        6           0.000010629    0.000005593    0.000026690
      2        1           0.000003259   -0.000003955    0.000004729
      3        8           0.000029659    0.000039176   -0.000057417
      4        6          -0.000033888    0.000021335   -0.000012192
      5        1           0.000002136   -0.000004948    0.000002475
      6        1          -0.000001085    0.000001098   -0.000007798
      7        6           0.000053805    0.000002294    0.000022208
      8        1          -0.000004749    0.000008769    0.000001307
      9        1          -0.000006240    0.000002354   -0.000000242
     10        8          -0.000026439    0.000025852   -0.000025122
     11        1          -0.000027087   -0.000097566    0.000045362
 -------------------------------------------------------------------
 Cartesian Forces:  Max     0.000097566 RMS     0.000028239
 Z-matrix is all fixed cartesians, so copy forces.
 Force constants in Cartesian coordinates: 
                1             2             3             4             5 
      1  0.452340D+00
      2  0.279817D-01  0.711047D+00
      3 -0.267089D+00  0.413548D-01  0.475896D+00
      4 -0.152536D+00  0.158265D-01  0.121686D+00  0.142417D+00
      5  0.163856D-01 -0.608688D-01 -0.273565D-01 -0.294567D-01  0.762926D-01
      6  0.129545D+00 -0.286271D-01 -0.209938D+00 -0.147990D+00  0.419591D-01
      7 -0.105338D+00  0.184116D-01  0.366649D-01  0.510626D-02  0.293087D-01
      8  0.280426D-01 -0.399919D+00 -0.912641D-01  0.119315D-01 -0.201481D-01
      9  0.332159D-01 -0.694740D-01 -0.106114D+00  0.563837D-02 -0.297946D-01
     10 -0.145441D+00 -0.609267D-01  0.993040D-01  0.349630D-02 -0.102817D-01
     11 -0.120396D+00 -0.227091D+00  0.799459D-01  0.350909D-02  0.777094D-02
     12  0.103209D+00  0.800758D-01 -0.151831D+00  0.192363D-01  0.183112D-01
     13 -0.112473D-01 -0.514414D-02  0.251406D-01  0.193501D-03 -0.420541D-02
     14 -0.417653D-02  0.754886D-02  0.223343D-01 -0.304422D-02 -0.189298D-02
     15  0.903073D-03 -0.614060D-02 -0.851426D-02  0.126994D-02  0.834946D-03
     16  0.446402D-02 -0.211878D-01 -0.133596D-01 -0.164788D-02  0.113057D-02
     17  0.870429D-02 -0.169388D-01 -0.949250D-02 -0.284268D-03  0.610043D-03
     18 -0.564710D-02  0.130864D-01  0.262923D-02 -0.155687D-02 -0.204035D-04
     19 -0.371702D-01 -0.542675D-01  0.143370D-02  0.171505D-03  0.117950D-03
     20  0.253330D-01  0.713976D-01 -0.478621D-02  0.352775D-02 -0.143515D-02
     21 -0.202994D-02 -0.466676D-03 -0.472660D-02 -0.772363D-03 -0.516165D-03
     22  0.225109D-02  0.826411D-02 -0.359149D-03  0.116148D-02  0.643688D-04
     23 -0.151826D-02 -0.476250D-02 -0.813223D-03 -0.155252D-03  0.156317D-03
     24 -0.661359D-03  0.529415D-02 -0.493922D-03  0.869809D-03 -0.801398D-04
     25  0.131452D-02  0.863058D-02 -0.599741D-02  0.253458D-04 -0.101295D-03
     26 -0.175448D-02 -0.921212D-03  0.279564D-04  0.325505D-03  0.178823D-03
     27  0.960974D-03  0.159667D-02  0.117089D-04 -0.142817D-03  0.897226D-04
     28 -0.131187D-01 -0.318521D-01 -0.147711D-02  0.838157D-03  0.218375D-02
     29 -0.153528D-01 -0.684295D-01  0.345285D-02 -0.247575D-02  0.206940D-02
     30 -0.185690D-03 -0.208072D-01  0.444011D-02 -0.116970D-02  0.102601D-02
     31  0.448212D-02  0.942638D-01  0.405213D-02  0.773985D-03 -0.514592D-02
     32  0.367511D-01 -0.110623D-01 -0.134032D-01  0.295842D-03 -0.273314D-02
     33  0.777870D-02 -0.158923D-01 -0.135846D-02  0.293128D-02 -0.445319D-02
                6             7             8             9            10 
      6  0.208976D+00
      7  0.859638D-02  0.248843D+00
      8 -0.125223D-01 -0.606786D-02  0.530108D+00
      9  0.132691D-02 -0.521470D-01  0.100328D+00  0.957782D-01
     10  0.100029D-01  0.354931D-01 -0.514872D-01 -0.263201D-01  0.205033D+00
     11 -0.384301D-02 -0.178729D-01 -0.617062D-01  0.559512D-02  0.106679D+00
     12 -0.165587D-02 -0.340270D-02 -0.100687D-01  0.194060D-01 -0.211100D+00
     13  0.379649D-02 -0.353258D-02  0.836107D-02 -0.284246D-02 -0.371226D-01
     14 -0.752887D-04  0.693191D-03 -0.449658D-03 -0.226139D-02  0.247434D-02
     15  0.190542D-02 -0.257961D-02  0.190453D-02  0.175268D-02  0.892415D-01
     16 -0.222543D-02  0.571175D-03 -0.408147D-02  0.852430D-02 -0.408544D-01
     17  0.643148D-03 -0.376327D-02 -0.223935D-02  0.191144D-02  0.258969D-01
     18 -0.833331D-03  0.399311D-02  0.315797D-02  0.419283D-02  0.197772D-01
     19  0.962782D-03 -0.304004D-01  0.350885D-01  0.124615D-01  0.582922D-01
     20  0.285892D-02  0.451080D-01 -0.557508D-01 -0.229535D-01 -0.877133D-01
     21 -0.154516D-02  0.826752D-02  0.102400D-02  0.375364D-02  0.820193D-02
     22  0.951399D-03  0.536229D-02 -0.539614D-02 -0.298112D-02 -0.239795D-01
     23 -0.160042D-03 -0.502139D-02  0.546885D-02  0.137371D-02  0.754734D-02
     24  0.106520D-02  0.238774D-02 -0.369108D-02 -0.209886D-02 -0.113657D-01
     25  0.356349D-03  0.111224D-02 -0.501425D-02 -0.704133D-03 -0.146728D-01
     26  0.196505D-03 -0.705172D-03  0.125552D-02  0.538246D-03  0.913206D-03
     27  0.390856D-03 -0.159615D-02 -0.882660D-03 -0.847752D-03 -0.401151D-02
     28  0.142697D-02 -0.905214D-01  0.314671D-01  0.118494D-01  0.917401D-02
     29 -0.728564D-03 -0.592519D-01  0.530230D-01  0.163104D-01  0.712758D-01
     30  0.262040D-03 -0.248366D-01  0.114154D-01  0.123609D-01  0.197562D-01
     31 -0.542223D-02 -0.666953D-01 -0.428438D-01  0.133054D-01 -0.494179D-01
     32  0.298603D-03 -0.839035D-03 -0.496423D-01 -0.157335D-02 -0.437807D-02
     33  0.458543D-04  0.246524D-01  0.598919D-03 -0.295102D-01  0.651387D-02
               11            12            13            14            15 
     11  0.673944D+00
     12  0.365724D-01  0.550612D+00
     13  0.420899D-02  0.779494D-01  0.617501D-01
     14 -0.593174D-01 -0.330144D-01 -0.647942D-02  0.544515D-01
     15 -0.300812D-01 -0.313058D+00 -0.871562D-01  0.316928D-01  0.328100D+00
     16  0.356743D-01  0.234170D-01 -0.146246D-02  0.714745D-02  0.655104D-03
     17 -0.303833D+00 -0.844927D-01 -0.307887D-03  0.127306D-02  0.788216D-03
     18 -0.864392D-01 -0.792622D-01  0.224671D-02 -0.258659D-01 -0.359056D-02
     19 -0.191251D-01 -0.210455D-02 -0.138220D-01  0.425767D-02 -0.526391D-02
     20 -0.195584D-01 -0.120833D-01  0.904213D-02 -0.208908D-02  0.414177D-02
     21 -0.111164D-01 -0.247990D-01 -0.171372D-01  0.462634D-02 -0.846655D-02
     22 -0.383696D-02  0.762047D-03  0.669182D-03 -0.993822D-03  0.429881D-03
     23  0.363850D-02  0.360912D-03  0.120314D-03  0.230840D-03 -0.751967D-03
     24 -0.228160D-02 -0.879514D-03 -0.137780D-02 -0.251803D-03  0.121522D-02
     25  0.537006D-03 -0.128291D-01 -0.149592D-02  0.574793D-03 -0.822029D-03
     26  0.144525D-02  0.536884D-02  0.136746D-02 -0.360040D-03  0.264941D-03
     27  0.138464D-02 -0.187959D-02  0.321727D-03  0.270786D-03  0.419248D-03
     28  0.203205D-01  0.357358D-02  0.114959D-03  0.827035D-03  0.341617D-03
     29 -0.139227D-01  0.729877D-03 -0.793829D-02  0.119358D-02 -0.362364D-02
     30  0.789623D-02  0.212002D-02 -0.332051D-03  0.117242D-02  0.907953D-03
     31 -0.969825D-02  0.128919D-02  0.595505D-02 -0.128049D-02  0.298070D-02
     32 -0.136966D-02 -0.176000D-02  0.975190D-03 -0.588743D-03  0.970182D-03
     33  0.236721D-02  0.122698D-02 -0.609146D-03  0.137215D-02 -0.671149D-03
               16            17            18            19            20 
     16  0.389099D-01
     17 -0.292916D-01  0.321772D+00
     18 -0.203207D-01  0.911072D-01  0.763394D-01
     19  0.455924D-02 -0.158708D-02  0.200627D-02  0.219557D+00
     20  0.862612D-02 -0.137301D-02  0.432304D-02  0.196463D+00  0.598346D+00
     21  0.609071D-02 -0.126166D-02  0.172465D-02 -0.953842D-01  0.782607D-01
     22  0.193695D-03  0.311375D-03  0.380900D-03 -0.113361D+00 -0.102512D+00
     23 -0.571235D-03  0.117701D-03 -0.221610D-03 -0.905177D-01 -0.142837D+00
     24  0.701487D-03 -0.175144D-04  0.105101D-03  0.815129D-01  0.757464D-01
     25  0.477013D-03  0.261382D-03  0.232591D-03 -0.415591D-01 -0.155113D-01
     26 -0.516112D-03  0.146953D-04 -0.312955D-03 -0.363783D-02 -0.573968D-01
     27 -0.689113D-03  0.430791D-03 -0.389007D-03  0.223680D-01 -0.183882D-01
     28 -0.407910D-02  0.108199D-02 -0.193435D-02 -0.885372D-01  0.403457D-02
     29  0.350720D-02 -0.404264D-03  0.141130D-02 -0.546786D-01 -0.370282D+00
     30 -0.229005D-02  0.585350D-03  0.745896D-04 -0.986642D-02 -0.111440D+00
     31 -0.113115D-02 -0.102184D-02  0.822206D-03  0.422703D-01 -0.863987D-01
     32 -0.437450D-03  0.100036D-02 -0.225745D-03 -0.121139D-01 -0.190213D-01
     33 -0.503691D-03 -0.201751D-03 -0.990687D-03 -0.812619D-02  0.432078D-02
               21            22            23            24            25 
     21  0.587698D+00
     22  0.791926D-01  0.119296D+00
     23  0.811432D-01  0.102960D+00  0.178901D+00
     24 -0.127213D+00 -0.779911D-01 -0.855887D-01  0.122569D+00
     25  0.176791D-01  0.514195D-02 -0.471027D-03  0.187723D-01  0.407324D-01
     26 -0.165669D-01 -0.126902D-02  0.480957D-02  0.175410D-01  0.187378D-02
     27 -0.286356D+00  0.783565D-03 -0.515172D-03 -0.130846D-01 -0.198647D-01
     28  0.776161D-02  0.967088D-02 -0.224563D-01 -0.923530D-02  0.127188D-01
     29 -0.133008D+00  0.336225D-02 -0.441121D-01 -0.497293D-02  0.926771D-02
     30 -0.138677D+00 -0.194807D-02  0.342499D-02  0.184852D-01  0.186617D-02
     31 -0.118698D-01 -0.640617D-02  0.100838D-01 -0.361306D-02 -0.379440D-02
     32 -0.211880D-02 -0.954261D-03 -0.161118D-02 -0.169778D-02 -0.473929D-04
     33 -0.139341D-02  0.779068D-03  0.174783D-02  0.329225D-03  0.131084D-02
               26            27            28            29            30 
     26  0.679251D-01
     27  0.381500D-01  0.307290D+00
     28  0.321036D-04 -0.384932D-03  0.125993D+00
     29 -0.167995D-01 -0.219849D-01 -0.181819D-01  0.471974D+00
     30 -0.439491D-01 -0.568951D-02 -0.109170D-01  0.150718D+00  0.123052D+00
     31  0.337057D-02  0.225495D-02  0.377469D-01  0.704663D-01  0.299231D-01
     32 -0.151457D-03 -0.151688D-03  0.125433D-01 -0.143109D-01 -0.417665D-04
     33 -0.125855D-02  0.133864D-03 -0.100454D-02 -0.830464D-02 -0.173364D-01
               31            32            33 
     31  0.362166D-01
     32 -0.317954D-01  0.994906D-01
     33 -0.337226D-01  0.197035D-01  0.495243D-01
 Leave Link  716 at Tue Oct 15 20:35:31 2019, MaxMem=   280000000 cpu:               0.6 elap:               0.0
 (Enter /home/soft/g16/l123.exe)
 IRC-IRC-IRC-IRC-IRC-IRC-IRC-IRC-IRC-IRC-IRC-IRC-IRC-IRC-IRC-IRC-IRC-IRC
          ******** Start new reaction path calculation ********
 Current Structure is TS -> form Hessian eigenvectors.
                            Diagonalizing Hessian.
 Supplied step size of   0.1000 bohr.
    Integration on MW PES will use step size of   0.1356 sqrt(amu)*bohr.
 Point Number:   0          Path Number:   1
 Calculating another point on the path.
 Point Number  1 in FORWARD path direction.
 Using LQA Reaction Path Following.
 IRC-IRC-IRC-IRC-IRC-IRC-IRC-IRC-IRC-IRC-IRC-IRC-IRC-IRC-IRC-IRC-IRC-IRC
 Leave Link  123 at Tue Oct 15 20:35:31 2019, MaxMem=   280000000 cpu:               0.5 elap:               0.0
 (Enter /home/soft/g16/l202.exe)
                          Input orientation:                          
 ---------------------------------------------------------------------
 Center     Atomic      Atomic             Coordinates (Angstroms)
 Number     Number       Type             X           Y           Z
 ---------------------------------------------------------------------
      1          6           0       -1.223499    0.261145    0.239725
      2          1           0       -1.884006    0.470510    1.084183
      3          8           0       -1.091753   -0.989314   -0.069472
      4          6           0       -0.420649    1.240888   -0.325565
      5          1           0       -0.119237    1.123221   -1.359473
      6          1           0       -0.543806    2.263822    0.014430
      7          6           0        1.305320    0.442440    0.302587
      8          1           0        1.892261    1.203008   -0.229456
      9          1           0        1.242940    0.623213    1.386689
     10          8           0        1.312541   -0.755492   -0.133436
     11          1           0       -0.057855   -1.144942   -0.256851
 ---------------------------------------------------------------------
                    Distance matrix (angstroms):
                    1          2          3          4          5
     1  C    0.000000
     2  H    1.092343   0.000000
     3  O    1.294839   2.022294   0.000000
     4  C    1.387090   2.173082   2.343025   0.000000
     5  H    2.126030   3.084137   2.659454   1.083356   0.000000
     6  H    2.126842   2.481225   3.300027   1.084969   1.835440
     7  C    2.536088   3.283822   2.816790   2.002764   2.292437
     8  H    3.288646   4.064775   3.706239   2.315216   2.308555
     9  H    2.744074   3.145254   3.189270   2.465941   3.105952
    10  O    2.757589   3.633675   2.416484   2.650735   2.661338
    11  H    1.892721   2.782604   1.062203   2.414234   2.522718
                    6          7          8          9         10
     6  H    0.000000
     7  C    2.611461   0.000000
     8  H    2.668188   1.098195   0.000000
     9  H    2.786961   1.100840   1.835675   0.000000
    10  O    3.547414   1.274837   2.044754   2.053400   0.000000
    11  H    3.453898   2.165872   3.052306   2.742201   1.429996
                   11
    11  H    0.000000
 Symmetry turned off by external request.
 Stoichiometry    C3H6O2
 Framework group  C1[X(C3H6O2)]
 Deg. of freedom    27
 Full point group                 C1      NOp   1
 Rotational constants (GHZ):           7.8035641           4.8242462           3.3144453
 Leave Link  202 at Tue Oct 15 20:35:31 2019, MaxMem=   280000000 cpu:               0.6 elap:               0.0
 (Enter /home/soft/g16/l301.exe)
 Standard basis: 6-311+G(d) (5D, 7F)
 Ernie: Thresh=  0.10000D-02 Tol=  0.10000D-05 Strict=F.
   128 basis functions,   210 primitive gaussians,   133 cartesian basis functions
    20 alpha electrons       20 beta electrons
       nuclear repulsion energy       180.1925794228 Hartrees.
 IExCor=  402 DFT=T Ex+Corr=B3LYP ExCW=0 ScaHFX=  0.200000
 ScaDFX=  0.800000  0.720000  1.000000  0.810000 ScalE2=  1.000000  1.000000
 IRadAn=      5 IRanWt=     -1 IRanGd=            0 ICorTp=0 IEmpDi=  4
 NAtoms=   11 NActive=   11 NUniq=   11 SFac= 1.00D+00 NAtFMM=   60 NAOKFM=F Big=F
 Integral buffers will be    131072 words long.
 Raffenetti 2 integral format.
 Two-electron integral symmetry is turned off.
 Leave Link  301 at Tue Oct 15 20:35:31 2019, MaxMem=   280000000 cpu:               1.4 elap:               0.1
 (Enter /home/soft/g16/l302.exe)
 NPDir=0 NMtPBC=     1 NCelOv=     1 NCel=       1 NClECP=     1 NCelD=      1
         NCelK=      1 NCelE2=     1 NClLst=     1 CellRange=     0.0.
 One-electron integrals computed using PRISM.
 NBasis=   128 RedAO= T EigKep=  8.69D-05  NBF=   128
 NBsUse=   128 1.00D-06 EigRej= -1.00D+00 NBFU=   128
 Precomputing XC quadrature grid using
 IXCGrd= 4 IRadAn=           5 IRanWt=          -1 IRanGd=           0 AccXCQ= 0.00D+00.
 Generated NRdTot=       0 NPtTot=           0 NUsed=           0 NTot=          32
 NSgBfM=   133   133   133   133   133 MxSgAt=    11 MxSgA2=    11.
 Leave Link  302 at Tue Oct 15 20:35:31 2019, MaxMem=   280000000 cpu:               2.7 elap:               0.1
 (Enter /home/soft/g16/l303.exe)
 DipDrv:  MaxL=1.
 Leave Link  303 at Tue Oct 15 20:35:31 2019, MaxMem=   280000000 cpu:               1.3 elap:               0.1
 (Enter /home/soft/g16/l401.exe)
 Initial guess from the checkpoint file:  "irc3.chk"
 B after Tr=     0.012455    0.106166    0.014964
         Rot=    1.000000   -0.000087   -0.000023    0.000103 Ang=  -0.02 deg.
 Guess basis will be translated and rotated to current coordinates.
 JPrj=2 DoOrth=T DoCkMO=T.
 Generating alternative initial guess.
 ExpMin= 4.38D-02 ExpMax= 8.59D+03 ExpMxC= 1.30D+03 IAcc=2 IRadAn=         4 AccDes= 0.00D+00
 Harris functional with IExCor=  402 and IRadAn=       4 diagonalized for initial guess.
 HarFok:  IExCor=  402 AccDes= 0.00D+00 IRadAn=         4 IDoV= 1 UseB2=F ITyADJ=14
 ICtDFT=  3500011 ScaDFX=  1.000000  1.000000  1.000000  1.000000
 FoFCou: FMM=F IPFlag=           0 FMFlag=      100000 FMFlg1=           0
         NFxFlg=           0 DoJE=T BraDBF=F KetDBF=T FulRan=T
         wScrn=  0.000000 ICntrl=       500 IOpCl=  0 I1Cent=   200000004 NGrid=           0
         NMat0=    1 NMatS0=      1 NMatT0=    0 NMatD0=    1 NMtDS0=    0 NMtDT0=    0
 Symmetry not used in FoFCou.
 Harris En= -268.404902800788    
 Leave Link  401 at Tue Oct 15 20:35:32 2019, MaxMem=   280000000 cpu:               5.7 elap:               0.3
 (Enter /home/soft/g16/l502.exe)
 Keep R1 ints in memory in canonical form, NReq=57089522.
 FoFCou: FMM=F IPFlag=           0 FMFlag=           0 FMFlg1=           0
         NFxFlg=           0 DoJE=F BraDBF=F KetDBF=F FulRan=T
         wScrn=  0.000000 ICntrl=       600 IOpCl=  0 I1Cent=           0 NGrid=           0
         NMat0=    1 NMatS0=   8256 NMatT0=    0 NMatD0=    1 NMtDS0=    0 NMtDT0=    0
 Symmetry not used in FoFCou.
 Two-electron integral symmetry not used.
 Closed shell SCF:
 Using DIIS extrapolation, IDIIS=  1040.
 NGot=   280000000 LenX=   245875378 LenY=   245857248
 Requested convergence on RMS density matrix=1.00D-08 within 128 cycles.
 Requested convergence on MAX density matrix=1.00D-06.
 Requested convergence on             energy=1.00D-06.
 No special actions if energy rises.

 Cycle   1  Pass 1  IDiag  1:
 E= -268.371211406147    
 DIIS: error= 2.27D-03 at cycle   1 NSaved=   1.
 NSaved= 1 IEnMin= 1 EnMin= -268.371211406147     IErMin= 1 ErrMin= 2.27D-03
 ErrMax= 2.27D-03  0.00D+00 EMaxC= 1.00D-01 BMatC= 1.13D-03 BMatP= 1.13D-03
 IDIUse=3 WtCom= 9.77D-01 WtEn= 2.27D-02
 Coeff-Com:  0.100D+01
 Coeff-En:   0.100D+01
 Coeff:      0.100D+01
 Gap=     0.498 Goal=   None    Shift=    0.000
 GapD=    0.498 DampG=2.000 DampE=1.000 DampFc=2.0000 IDamp=-1.
 RMSDP=4.90D-04 MaxDP=5.41D-03              OVMax= 2.71D-02

 Cycle   2  Pass 1  IDiag  1:
 E= -268.372062039999     Delta-E=       -0.000850633852 Rises=F Damp=F
 DIIS: error= 2.69D-03 at cycle   2 NSaved=   2.
 NSaved= 2 IEnMin= 2 EnMin= -268.372062039999     IErMin= 1 ErrMin= 2.27D-03
 ErrMax= 2.69D-03  0.00D+00 EMaxC= 1.00D-01 BMatC= 8.70D-04 BMatP= 1.13D-03
 IDIUse=3 WtCom= 9.73D-01 WtEn= 2.69D-02
 Coeff-Com:  0.448D+00 0.552D+00
 Coeff-En:   0.799D-02 0.992D+00
 Coeff:      0.437D+00 0.563D+00
 Gap=     0.188 Goal=   None    Shift=    0.000
 RMSDP=3.81D-04 MaxDP=6.32D-03 DE=-8.51D-04 OVMax= 1.65D-02

 Cycle   3  Pass 1  IDiag  1:
 E= -268.372312643963     Delta-E=       -0.000250603964 Rises=F Damp=F
 DIIS: error= 1.86D-03 at cycle   3 NSaved=   3.
 NSaved= 3 IEnMin= 3 EnMin= -268.372312643963     IErMin= 3 ErrMin= 1.86D-03
 ErrMax= 1.86D-03  0.00D+00 EMaxC= 1.00D-01 BMatC= 5.48D-04 BMatP= 8.70D-04
 IDIUse=3 WtCom= 9.81D-01 WtEn= 1.86D-02
 Coeff-Com: -0.152D-02 0.442D+00 0.560D+00
 Coeff-En:   0.000D+00 0.415D+00 0.585D+00
 Coeff:     -0.149D-02 0.441D+00 0.560D+00
 Gap=     0.184 Goal=   None    Shift=    0.000
 RMSDP=1.80D-04 MaxDP=2.81D-03 DE=-2.51D-04 OVMax= 8.96D-03

 Cycle   4  Pass 1  IDiag  1:
 E= -268.372740473324     Delta-E=       -0.000427829361 Rises=F Damp=F
 DIIS: error= 2.87D-04 at cycle   4 NSaved=   4.
 NSaved= 4 IEnMin= 4 EnMin= -268.372740473324     IErMin= 4 ErrMin= 2.87D-04
 ErrMax= 2.87D-04  0.00D+00 EMaxC= 1.00D-01 BMatC= 1.08D-05 BMatP= 5.48D-04
 IDIUse=3 WtCom= 9.97D-01 WtEn= 2.87D-03
 Coeff-Com: -0.150D-01 0.205D+00 0.283D+00 0.528D+00
 Coeff-En:   0.000D+00 0.000D+00 0.000D+00 0.100D+01
 Coeff:     -0.149D-01 0.204D+00 0.282D+00 0.529D+00
 Gap=     0.184 Goal=   None    Shift=    0.000
 RMSDP=3.14D-05 MaxDP=4.67D-04 DE=-4.28D-04 OVMax= 1.32D-03

 Cycle   5  Pass 1  IDiag  1:
 E= -268.372746358862     Delta-E=       -0.000005885538 Rises=F Damp=F
 DIIS: error= 1.54D-04 at cycle   5 NSaved=   5.
 NSaved= 5 IEnMin= 5 EnMin= -268.372746358862     IErMin= 5 ErrMin= 1.54D-04
 ErrMax= 1.54D-04  0.00D+00 EMaxC= 1.00D-01 BMatC= 2.82D-06 BMatP= 1.08D-05
 IDIUse=3 WtCom= 9.98D-01 WtEn= 1.54D-03
 Coeff-Com: -0.820D-02 0.470D-01 0.747D-01 0.351D+00 0.536D+00
 Coeff-En:   0.000D+00 0.000D+00 0.000D+00 0.234D+00 0.766D+00
 Coeff:     -0.819D-02 0.469D-01 0.746D-01 0.351D+00 0.536D+00
 Gap=     0.184 Goal=   None    Shift=    0.000
 RMSDP=1.28D-05 MaxDP=2.00D-04 DE=-5.89D-06 OVMax= 5.19D-04

 Cycle   6  Pass 1  IDiag  1:
 E= -268.372748428842     Delta-E=       -0.000002069979 Rises=F Damp=F
 DIIS: error= 3.76D-05 at cycle   6 NSaved=   6.
 NSaved= 6 IEnMin= 6 EnMin= -268.372748428842     IErMin= 6 ErrMin= 3.76D-05
 ErrMax= 3.76D-05  0.00D+00 EMaxC= 1.00D-01 BMatC= 1.58D-07 BMatP= 2.82D-06
 IDIUse=1 WtCom= 1.00D+00 WtEn= 0.00D+00
 Coeff-Com: -0.281D-02 0.648D-02 0.155D-01 0.121D+00 0.267D+00 0.593D+00
 Coeff:     -0.281D-02 0.648D-02 0.155D-01 0.121D+00 0.267D+00 0.593D+00
 Gap=     0.184 Goal=   None    Shift=    0.000
 RMSDP=3.77D-06 MaxDP=9.26D-05 DE=-2.07D-06 OVMax= 1.95D-04

 Cycle   7  Pass 1  IDiag  1:
 E= -268.372748552705     Delta-E=       -0.000000123863 Rises=F Damp=F
 DIIS: error= 1.85D-05 at cycle   7 NSaved=   7.
 NSaved= 7 IEnMin= 7 EnMin= -268.372748552705     IErMin= 7 ErrMin= 1.85D-05
 ErrMax= 1.85D-05  0.00D+00 EMaxC= 1.00D-01 BMatC= 3.40D-08 BMatP= 1.58D-07
 IDIUse=1 WtCom= 1.00D+00 WtEn= 0.00D+00
 Coeff-Com:  0.317D-03-0.816D-02-0.808D-02-0.180D-01 0.244D-01 0.339D+00
 Coeff-Com:  0.670D+00
 Coeff:      0.317D-03-0.816D-02-0.808D-02-0.180D-01 0.244D-01 0.339D+00
 Coeff:      0.670D+00
 Gap=     0.184 Goal=   None    Shift=    0.000
 RMSDP=1.58D-06 MaxDP=3.15D-05 DE=-1.24D-07 OVMax= 7.28D-05

 Cycle   8  Pass 1  IDiag  1:
 E= -268.372748586256     Delta-E=       -0.000000033552 Rises=F Damp=F
 DIIS: error= 3.26D-06 at cycle   8 NSaved=   8.
 NSaved= 8 IEnMin= 8 EnMin= -268.372748586256     IErMin= 8 ErrMin= 3.26D-06
 ErrMax= 3.26D-06  0.00D+00 EMaxC= 1.00D-01 BMatC= 2.16D-09 BMatP= 3.40D-08
 IDIUse=1 WtCom= 1.00D+00 WtEn= 0.00D+00
 Coeff-Com:  0.294D-03-0.440D-02-0.427D-02-0.135D-01 0.459D-02 0.161D+00
 Coeff-Com:  0.359D+00 0.496D+00
 Coeff:      0.294D-03-0.440D-02-0.427D-02-0.135D-01 0.459D-02 0.161D+00
 Coeff:      0.359D+00 0.496D+00
 Gap=     0.184 Goal=   None    Shift=    0.000
 RMSDP=4.58D-07 MaxDP=1.05D-05 DE=-3.36D-08 OVMax= 1.56D-05

 Cycle   9  Pass 1  IDiag  1:
 E= -268.372748588061     Delta-E=       -0.000000001804 Rises=F Damp=F
 DIIS: error= 8.76D-07 at cycle   9 NSaved=   9.
 NSaved= 9 IEnMin= 9 EnMin= -268.372748588061     IErMin= 9 ErrMin= 8.76D-07
 ErrMax= 8.76D-07  0.00D+00 EMaxC= 1.00D-01 BMatC= 1.43D-10 BMatP= 2.16D-09
 IDIUse=1 WtCom= 1.00D+00 WtEn= 0.00D+00
 Coeff-Com:  0.788D-04-0.100D-02-0.783D-03-0.425D-02-0.152D-02 0.255D-01
 Coeff-Com:  0.651D-01 0.183D+00 0.734D+00
 Coeff:      0.788D-04-0.100D-02-0.783D-03-0.425D-02-0.152D-02 0.255D-01
 Coeff:      0.651D-01 0.183D+00 0.734D+00
 Gap=     0.184 Goal=   None    Shift=    0.000
 RMSDP=1.68D-07 MaxDP=3.21D-06 DE=-1.80D-09 OVMax= 5.75D-06

 Cycle  10  Pass 1  IDiag  1:
 E= -268.372748588210     Delta-E=       -0.000000000150 Rises=F Damp=F
 DIIS: error= 3.37D-07 at cycle  10 NSaved=  10.
 NSaved=10 IEnMin=10 EnMin= -268.372748588210     IErMin=10 ErrMin= 3.37D-07
 ErrMax= 3.37D-07  0.00D+00 EMaxC= 1.00D-01 BMatC= 1.54D-11 BMatP= 1.43D-10
 IDIUse=1 WtCom= 1.00D+00 WtEn= 0.00D+00
 Coeff-Com:  0.184D-04-0.152D-03-0.343D-04-0.981D-03-0.102D-02-0.108D-03
 Coeff-Com:  0.224D-02 0.546D-01 0.400D+00 0.546D+00
 Coeff:      0.184D-04-0.152D-03-0.343D-04-0.981D-03-0.102D-02-0.108D-03
 Coeff:      0.224D-02 0.546D-01 0.400D+00 0.546D+00
 Gap=     0.184 Goal=   None    Shift=    0.000
 RMSDP=3.32D-08 MaxDP=9.37D-07 DE=-1.50D-10 OVMax= 1.67D-06

 Cycle  11  Pass 1  IDiag  1:
 E= -268.372748588225     Delta-E=       -0.000000000014 Rises=F Damp=F
 DIIS: error= 4.88D-08 at cycle  11 NSaved=  11.
 NSaved=11 IEnMin=11 EnMin= -268.372748588225     IErMin=11 ErrMin= 4.88D-08
 ErrMax= 4.88D-08  0.00D+00 EMaxC= 1.00D-01 BMatC= 5.04D-13 BMatP= 1.54D-11
 IDIUse=1 WtCom= 1.00D+00 WtEn= 0.00D+00
 Coeff-Com: -0.363D-05 0.679D-04 0.745D-04 0.207D-03-0.172D-03-0.308D-02
 Coeff-Com: -0.787D-02-0.393D-02 0.446D-01 0.169D+00 0.801D+00
 Coeff:     -0.363D-05 0.679D-04 0.745D-04 0.207D-03-0.172D-03-0.308D-02
 Coeff:     -0.787D-02-0.393D-02 0.446D-01 0.169D+00 0.801D+00
 Gap=     0.184 Goal=   None    Shift=    0.000
 RMSDP=8.61D-09 MaxDP=1.23D-07 DE=-1.44D-11 OVMax= 5.21D-07

 SCF Done:  E(RB3LYP) =  -268.372748588     A.U. after   11 cycles
            NFock= 11  Conv=0.86D-08     -V/T= 2.0034
 KE= 2.674555039063D+02 PE=-9.892124795215D+02 EE= 2.731916476042D+02
 Leave Link  502 at Tue Oct 15 20:35:34 2019, MaxMem=   280000000 cpu:              51.6 elap:               2.6
 (Enter /home/soft/g16/l801.exe)
 DoSCS=F DFT=T ScalE2(SS,OS)=  1.000000  1.000000
 Range of M.O.s used for correlation:     1   128
 NBasis=   128 NAE=    20 NBE=    20 NFC=     0 NFV=     0
 NROrb=    128 NOA=    20 NOB=    20 NVA=   108 NVB=   108

 **** Warning!!: The largest alpha MO coefficient is  0.38587839D+02

 Leave Link  801 at Tue Oct 15 20:35:34 2019, MaxMem=   280000000 cpu:               0.9 elap:               0.1
 (Enter /home/soft/g16/l1101.exe)
 Leave Link 1101 at Tue Oct 15 20:35:34 2019, MaxMem=   280000000 cpu:               0.7 elap:               0.1
 (Enter /home/soft/g16/l1102.exe)
 Symmetrizing basis deriv contribution to polar:
 IMax=3 JMax=2 DiffMx= 0.00D+00
 Leave Link 1102 at Tue Oct 15 20:35:34 2019, MaxMem=   280000000 cpu:               0.9 elap:               0.1
 (Enter /home/soft/g16/l1110.exe)
 Leave Link 1110 at Tue Oct 15 20:35:34 2019, MaxMem=   280000000 cpu:               0.9 elap:               0.1
 (Enter /home/soft/g16/l1002.exe)
 Minotr:  Closed shell wavefunction.
 Leave Link 1002 at Tue Oct 15 20:35:35 2019, MaxMem=   280000000 cpu:               0.4 elap:               0.0
 (Enter /home/soft/g16/l701.exe)
 ... and contract with generalized density number  0.
 Compute integral first derivatives.
 Leave Link  701 at Tue Oct 15 20:35:35 2019, MaxMem=   280000000 cpu:               2.5 elap:               0.1
 (Enter /home/soft/g16/l702.exe)
 L702 exits ... SP integral derivatives will be done elsewhere.
 Leave Link  702 at Tue Oct 15 20:35:35 2019, MaxMem=   280000000 cpu:               0.8 elap:               0.1
 (Enter /home/soft/g16/l703.exe)
 Integral derivatives from FoFJK, PRISM(SPDF).
 Compute integral first derivatives, UseDBF=F ICtDFT=           0.
 Calling FoFJK, ICntrl=      2147 FMM=F ISym2X=0 I1Cent= 0 IOpClX= 0 NMat=1 NMatS=1 NMatT=0.
 FoFJK:  IHMeth= 1 ICntrl=    2147 DoSepK=F KAlg= 0 I1Cent=           0 FoldK=F
 IRaf=         0 NMat=       1 IRICut=       1 DoRegI=T DoRafI=F ISym2E= 0 IDoP0=0 IntGTp=1.
 FoFCou: FMM=F IPFlag=           0 FMFlag=      100000 FMFlg1=         800
         NFxFlg=           0 DoJE=F BraDBF=F KetDBF=F FulRan=T
         wScrn=  0.000000 ICntrl=      2147 IOpCl=  0 I1Cent=           0 NGrid=           0
         NMat0=    1 NMatS0=      1 NMatT0=    0 NMatD0=    1 NMtDS0=    0 NMtDT0=    0
 Symmetry not used in FoFCou.
 Leave Link  703 at Tue Oct 15 20:35:35 2019, MaxMem=   280000000 cpu:              14.3 elap:               0.7
 (Enter /home/soft/g16/l716.exe)
 Dipole        =-3.97611531D-01 1.36282209D+00 3.15049588D-01
 Polarizability= 0.00000000D+00 0.00000000D+00 0.00000000D+00
                 0.00000000D+00 0.00000000D+00 0.00000000D+00
 -------------------------------------------------------------------
 Center     Atomic                   Forces (Hartrees/Bohr)
 Number     Number              X              Y              Z
 -------------------------------------------------------------------
      1        6           0.000439410    0.002384310   -0.000060142
      2        1           0.000056543   -0.000044287    0.000011238
      3        8          -0.004283269   -0.001346578    0.000638835
      4        6          -0.004665413    0.001150570   -0.001282720
      5        1           0.000332911   -0.000072192    0.000218620
      6        1          -0.000180132    0.000090591   -0.000060886
      7        6           0.004734321   -0.003355190    0.001051089
      8        1          -0.000449511    0.000199441   -0.000041246
      9        1          -0.000110019   -0.000065828    0.000018834
     10        8           0.003884160    0.002097210    0.000786010
     11        1           0.000241000   -0.001038046   -0.001279632
 -------------------------------------------------------------------
 Cartesian Forces:  Max     0.004734321 RMS     0.001820009
 Z-matrix is all fixed cartesians, so copy forces.
 Leave Link  716 at Tue Oct 15 20:35:35 2019, MaxMem=   280000000 cpu:               1.0 elap:               0.1
 (Enter /home/soft/g16/l123.exe)
 IRC-IRC-IRC-IRC-IRC-IRC-IRC-IRC-IRC-IRC-IRC-IRC-IRC-IRC-IRC-IRC-IRC-IRC
 Pt  1 Step number   1 out of a maximum of  20
 Using modified Bulirsch-Stoer corrector integration.
   Using distance weighted interpolants to fit PES.
 PreDWI: IReCr0= 2 IReCr1= 1 IReCr2= 1 IReCr3= 1
 Modified Bulirsch-Stoer Extrapolation Cycles:
    EPS =    0.000010000000000
    Cycle     1 NS=    48
      PEZero:  N= 2 I= 1 D=  3.53D-04 Err=  4.83D-04
    Cycle     2 NS=    64 Truncation Error =  0.000483317
      PEZero:  N= 3 I= 2 D=  3.53D-04 Err=  3.23D-04
      PEZero:  N= 3 I= 1 D=  7.06D-04 Err=  8.95D-07
    Cycle     3 NS=    96 Truncation Error =  0.000000895
 BS completed in    3 cycles and     208 integration steps.
 Maximum DWI energy   std dev =  0.000006226 at pt     1
 Maximum DWI gradient std dev =  0.417142866 at pt     1
 SUMMARY OF CORRECTOR INTEGRATION:
   Predictor End Point Energy =  -268.372749
   Old End Point Energy       =  -268.372749
   Corrected End Point Energy =  -268.372771
   Predictor End-Start Dist.  =     0.135572
   Old End-Start Dist.        =     0.135572
   New End-Start Dist.        =     0.133905
   New End-Old End Dist.      =     0.020490
 CORRECTOR INTEGRATION CONVERGENCE:
   Recorrection delta-x convergence threshold:    0.010000
   Delta-x Convergence NOT Met
 IRC-IRC-IRC-IRC-IRC-IRC-IRC-IRC-IRC-IRC-IRC-IRC-IRC-IRC-IRC-IRC-IRC-IRC
 Leave Link  123 at Tue Oct 15 20:35:36 2019, MaxMem=   280000000 cpu:               0.9 elap:               0.1
 (Enter /home/soft/g16/l202.exe)
                          Input orientation:                          
 ---------------------------------------------------------------------
 Center     Atomic      Atomic             Coordinates (Angstroms)
 Number     Number       Type             X           Y           Z
 ---------------------------------------------------------------------
      1          6           0       -1.223473    0.260968    0.239769
      2          1           0       -1.883502    0.470866    1.084657
      3          8           0       -1.092818   -0.989238   -0.069393
      4          6           0       -0.421508    1.241311   -0.325972
      5          1           0       -0.118840    1.123211   -1.359366
      6          1           0       -0.544589    2.264251    0.014000
      7          6           0        1.306223    0.442310    0.303022
      8          1           0        1.892197    1.202987   -0.229297
      9          1           0        1.243124    0.622636    1.386962
     10          8           0        1.312961   -0.755634   -0.133547
     11          1           0       -0.049752   -1.145618   -0.258023
 ---------------------------------------------------------------------
                    Distance matrix (angstroms):
                    1          2          3          4          5
     1  C    0.000000
     2  H    1.092489   0.000000
     3  O    1.294476   2.022107   0.000000
     4  C    1.387185   2.172760   2.343468   0.000000
     5  H    2.126242   3.084288   2.659906   1.083263   0.000000
     6  H    2.127204   2.480973   3.300410   1.084959   1.835584
     7  C    2.536976   3.284222   2.818408   2.004767   2.293025
     8  H    3.288589   4.064281   3.706985   2.316041   2.308179
     9  H    2.744258   3.144871   3.189942   2.467366   3.106096
    10  O    2.757959   3.633964   2.417945   2.652018   2.661342
    11  H    1.898394   2.788987   1.071458   2.416661   2.522957
                    6          7          8          9         10
     6  H    0.000000
     7  C    2.613142   0.000000
     8  H    2.668970   1.097888   0.000000
     9  H    2.788519   1.100647   1.835863   0.000000
    10  O    3.548516   1.275032   2.044719   2.053400   0.000000
    11  H    3.456308   2.162165   3.047612   2.739384   1.422873
                   11
    11  H    0.000000
 Symmetry turned off by external request.
 Stoichiometry    C3H6O2
 Framework group  C1[X(C3H6O2)]
 Deg. of freedom    27
 Full point group                 C1      NOp   1
 Rotational constants (GHZ):           7.8008686           4.8197024           3.3121961
 Leave Link  202 at Tue Oct 15 20:35:36 2019, MaxMem=   280000000 cpu:               0.1 elap:               0.0
 (Enter /home/soft/g16/l301.exe)
 Standard basis: 6-311+G(d) (5D, 7F)
 Ernie: Thresh=  0.10000D-02 Tol=  0.10000D-05 Strict=F.
   128 basis functions,   210 primitive gaussians,   133 cartesian basis functions
    20 alpha electrons       20 beta electrons
       nuclear repulsion energy       180.1340351825 Hartrees.
 IExCor=  402 DFT=T Ex+Corr=B3LYP ExCW=0 ScaHFX=  0.200000
 ScaDFX=  0.800000  0.720000  1.000000  0.810000 ScalE2=  1.000000  1.000000
 IRadAn=      5 IRanWt=     -1 IRanGd=            0 ICorTp=0 IEmpDi=  4
 NAtoms=   11 NActive=   11 NUniq=   11 SFac= 1.00D+00 NAtFMM=   60 NAOKFM=F Big=F
 Integral buffers will be    131072 words long.
 Raffenetti 2 integral format.
 Two-electron integral symmetry is turned off.
 Leave Link  301 at Tue Oct 15 20:35:36 2019, MaxMem=   280000000 cpu:               1.4 elap:               0.1
 (Enter /home/soft/g16/l302.exe)
 NPDir=0 NMtPBC=     1 NCelOv=     1 NCel=       1 NClECP=     1 NCelD=      1
         NCelK=      1 NCelE2=     1 NClLst=     1 CellRange=     0.0.
 One-electron integrals computed using PRISM.
 NBasis=   128 RedAO= T EigKep=  8.70D-05  NBF=   128
 NBsUse=   128 1.00D-06 EigRej= -1.00D+00 NBFU=   128
 Precomputing XC quadrature grid using
 IXCGrd= 4 IRadAn=           5 IRanWt=          -1 IRanGd=           0 AccXCQ= 0.00D+00.
 Generated NRdTot=       0 NPtTot=           0 NUsed=           0 NTot=          32
 NSgBfM=   133   133   133   133   133 MxSgAt=    11 MxSgA2=    11.
 Leave Link  302 at Tue Oct 15 20:35:36 2019, MaxMem=   280000000 cpu:               2.9 elap:               0.1
 (Enter /home/soft/g16/l303.exe)
 DipDrv:  MaxL=1.
 Leave Link  303 at Tue Oct 15 20:35:36 2019, MaxMem=   280000000 cpu:               0.5 elap:               0.0
 (Enter /home/soft/g16/l401.exe)
 Initial guess from the checkpoint file:  "irc3.chk"
 B after Tr=     0.000175   -0.000016   -0.000022
         Rot=    1.000000   -0.000010    0.000005   -0.000024 Ang=  -0.00 deg.
 Guess basis will be translated and rotated to current coordinates.
 JPrj=2 DoOrth=T DoCkMO=T.
 Generating alternative initial guess.
 ExpMin= 4.38D-02 ExpMax= 8.59D+03 ExpMxC= 1.30D+03 IAcc=2 IRadAn=         4 AccDes= 0.00D+00
 Harris functional with IExCor=  402 and IRadAn=       4 diagonalized for initial guess.
 HarFok:  IExCor=  402 AccDes= 0.00D+00 IRadAn=         4 IDoV= 1 UseB2=F ITyADJ=14
 ICtDFT=  3500011 ScaDFX=  1.000000  1.000000  1.000000  1.000000
 FoFCou: FMM=F IPFlag=           0 FMFlag=      100000 FMFlg1=           0
         NFxFlg=           0 DoJE=T BraDBF=F KetDBF=T FulRan=T
         wScrn=  0.000000 ICntrl=       500 IOpCl=  0 I1Cent=   200000004 NGrid=           0
         NMat0=    1 NMatS0=      1 NMatT0=    0 NMatD0=    1 NMtDS0=    0 NMtDT0=    0
 Symmetry not used in FoFCou.
 Harris En= -268.404709676398    
 Leave Link  401 at Tue Oct 15 20:35:36 2019, MaxMem=   280000000 cpu:               7.6 elap:               0.4
 (Enter /home/soft/g16/l502.exe)
 Keep R1 ints in memory in canonical form, NReq=57089522.
 FoFCou: FMM=F IPFlag=           0 FMFlag=           0 FMFlg1=           0
         NFxFlg=           0 DoJE=F BraDBF=F KetDBF=F FulRan=T
         wScrn=  0.000000 ICntrl=       600 IOpCl=  0 I1Cent=           0 NGrid=           0
         NMat0=    1 NMatS0=   8256 NMatT0=    0 NMatD0=    1 NMtDS0=    0 NMtDT0=    0
 Symmetry not used in FoFCou.
 Two-electron integral symmetry not used.
 Closed shell SCF:
 Using DIIS extrapolation, IDIIS=  1040.
 NGot=   280000000 LenX=   245875378 LenY=   245857248
 Requested convergence on RMS density matrix=1.00D-08 within 128 cycles.
 Requested convergence on MAX density matrix=1.00D-06.
 Requested convergence on             energy=1.00D-06.
 No special actions if energy rises.

 Cycle   1  Pass 1  IDiag  1:
 E= -268.372725886646    
 DIIS: error= 3.45D-04 at cycle   1 NSaved=   1.
 NSaved= 1 IEnMin= 1 EnMin= -268.372725886646     IErMin= 1 ErrMin= 3.45D-04
 ErrMax= 3.45D-04  0.00D+00 EMaxC= 1.00D-01 BMatC= 3.69D-05 BMatP= 3.69D-05
 IDIUse=3 WtCom= 9.97D-01 WtEn= 3.45D-03
 Coeff-Com:  0.100D+01
 Coeff-En:   0.100D+01
 Coeff:      0.100D+01
 Gap=     0.502 Goal=   None    Shift=    0.000
 RMSDP=8.22D-05 MaxDP=1.10D-03              OVMax= 2.84D-03

 Cycle   2  Pass 1  IDiag  1:
 E= -268.372742462627     Delta-E=       -0.000016575981 Rises=F Damp=F
 DIIS: error= 4.77D-04 at cycle   2 NSaved=   2.
 NSaved= 2 IEnMin= 2 EnMin= -268.372742462627     IErMin= 1 ErrMin= 3.45D-04
 ErrMax= 4.77D-04  0.00D+00 EMaxC= 1.00D-01 BMatC= 2.99D-05 BMatP= 3.69D-05
 IDIUse=3 WtCom= 9.95D-01 WtEn= 4.77D-03
 Coeff-Com:  0.461D+00 0.539D+00
 Coeff-En:   0.229D+00 0.771D+00
 Coeff:      0.460D+00 0.540D+00
 Gap=     0.184 Goal=   None    Shift=    0.000
 RMSDP=5.90D-05 MaxDP=9.63D-04 DE=-1.66D-05 OVMax= 2.53D-03

 Cycle   3  Pass 1  IDiag  1:
 E= -268.372753510137     Delta-E=       -0.000011047509 Rises=F Damp=F
 DIIS: error= 3.00D-04 at cycle   3 NSaved=   3.
 NSaved= 3 IEnMin= 3 EnMin= -268.372753510137     IErMin= 3 ErrMin= 3.00D-04
 ErrMax= 3.00D-04  0.00D+00 EMaxC= 1.00D-01 BMatC= 1.44D-05 BMatP= 2.99D-05
 IDIUse=3 WtCom= 9.97D-01 WtEn= 3.00D-03
 Coeff-Com:  0.127D-01 0.406D+00 0.582D+00
 Coeff-En:   0.000D+00 0.371D+00 0.629D+00
 Coeff:      0.127D-01 0.405D+00 0.582D+00
 Gap=     0.185 Goal=   None    Shift=    0.000
 RMSDP=3.09D-05 MaxDP=5.31D-04 DE=-1.10D-05 OVMax= 1.37D-03

 Cycle   4  Pass 1  IDiag  1:
 E= -268.372764218427     Delta-E=       -0.000010708290 Rises=F Damp=F
 DIIS: error= 4.91D-05 at cycle   4 NSaved=   4.
 NSaved= 4 IEnMin= 4 EnMin= -268.372764218427     IErMin= 4 ErrMin= 4.91D-05
 ErrMax= 4.91D-05  0.00D+00 EMaxC= 1.00D-01 BMatC= 3.63D-07 BMatP= 1.44D-05
 IDIUse=1 WtCom= 1.00D+00 WtEn= 0.00D+00
 Coeff-Com: -0.867D-02 0.190D+00 0.302D+00 0.517D+00
 Coeff:     -0.867D-02 0.190D+00 0.302D+00 0.517D+00
 Gap=     0.185 Goal=   None    Shift=    0.000
 RMSDP=6.26D-06 MaxDP=9.06D-05 DE=-1.07D-05 OVMax= 2.65D-04

 Cycle   5  Pass 1  IDiag  1:
 E= -268.372764450576     Delta-E=       -0.000000232149 Rises=F Damp=F
 DIIS: error= 2.59D-05 at cycle   5 NSaved=   5.
 NSaved= 5 IEnMin= 5 EnMin= -268.372764450576     IErMin= 5 ErrMin= 2.59D-05
 ErrMax= 2.59D-05  0.00D+00 EMaxC= 1.00D-01 BMatC= 8.53D-08 BMatP= 3.63D-07
 IDIUse=1 WtCom= 1.00D+00 WtEn= 0.00D+00
 Coeff-Com: -0.686D-02 0.594D-01 0.105D+00 0.345D+00 0.498D+00
 Coeff:     -0.686D-02 0.594D-01 0.105D+00 0.345D+00 0.498D+00
 Gap=     0.185 Goal=   None    Shift=    0.000
 RMSDP=2.12D-06 MaxDP=3.89D-05 DE=-2.32D-07 OVMax= 8.28D-05

 Cycle   6  Pass 1  IDiag  1:
 E= -268.372764515190     Delta-E=       -0.000000064613 Rises=F Damp=F
 DIIS: error= 5.81D-06 at cycle   6 NSaved=   6.
 NSaved= 6 IEnMin= 6 EnMin= -268.372764515190     IErMin= 6 ErrMin= 5.81D-06
 ErrMax= 5.81D-06  0.00D+00 EMaxC= 1.00D-01 BMatC= 3.61D-09 BMatP= 8.53D-08
 IDIUse=1 WtCom= 1.00D+00 WtEn= 0.00D+00
 Coeff-Com: -0.324D-02 0.220D-01 0.403D-01 0.154D+00 0.267D+00 0.520D+00
 Coeff:     -0.324D-02 0.220D-01 0.403D-01 0.154D+00 0.267D+00 0.520D+00
 Gap=     0.185 Goal=   None    Shift=    0.000
 RMSDP=4.91D-07 MaxDP=1.19D-05 DE=-6.46D-08 OVMax= 2.51D-05

 Cycle   7  Pass 1  IDiag  1:
 E= -268.372764518028     Delta-E=       -0.000000002839 Rises=F Damp=F
 DIIS: error= 2.57D-06 at cycle   7 NSaved=   7.
 NSaved= 7 IEnMin= 7 EnMin= -268.372764518028     IErMin= 7 ErrMin= 2.57D-06
 ErrMax= 2.57D-06  0.00D+00 EMaxC= 1.00D-01 BMatC= 5.26D-10 BMatP= 3.61D-09
 IDIUse=1 WtCom= 1.00D+00 WtEn= 0.00D+00
 Coeff-Com: -0.605D-04-0.284D-02-0.371D-02-0.587D-02 0.182D-01 0.282D+00
 Coeff-Com:  0.712D+00
 Coeff:     -0.605D-04-0.284D-02-0.371D-02-0.587D-02 0.182D-01 0.282D+00
 Coeff:      0.712D+00
 Gap=     0.185 Goal=   None    Shift=    0.000
 RMSDP=2.30D-07 MaxDP=4.90D-06 DE=-2.84D-09 OVMax= 9.29D-06

 Cycle   8  Pass 1  IDiag  1:
 E= -268.372764518529     Delta-E=       -0.000000000501 Rises=F Damp=F
 DIIS: error= 5.55D-07 at cycle   8 NSaved=   8.
 NSaved= 8 IEnMin= 8 EnMin= -268.372764518529     IErMin= 8 ErrMin= 5.55D-07
 ErrMax= 5.55D-07  0.00D+00 EMaxC= 1.00D-01 BMatC= 4.86D-11 BMatP= 5.26D-10
 IDIUse=1 WtCom= 1.00D+00 WtEn= 0.00D+00
 Coeff-Com:  0.159D-03-0.250D-02-0.371D-02-0.123D-01-0.594D-02 0.110D+00
 Coeff-Com:  0.367D+00 0.547D+00
 Coeff:      0.159D-03-0.250D-02-0.371D-02-0.123D-01-0.594D-02 0.110D+00
 Coeff:      0.367D+00 0.547D+00
 Gap=     0.185 Goal=   None    Shift=    0.000
 RMSDP=7.63D-08 MaxDP=1.40D-06 DE=-5.01D-10 OVMax= 2.27D-06

 Cycle   9  Pass 1  IDiag  1:
 E= -268.372764518567     Delta-E=       -0.000000000038 Rises=F Damp=F
 DIIS: error= 1.31D-07 at cycle   9 NSaved=   9.
 NSaved= 9 IEnMin= 9 EnMin= -268.372764518567     IErMin= 9 ErrMin= 1.31D-07
 ErrMax= 1.31D-07  0.00D+00 EMaxC= 1.00D-01 BMatC= 3.14D-12 BMatP= 4.86D-11
 IDIUse=1 WtCom= 1.00D+00 WtEn= 0.00D+00
 Coeff-Com:  0.717D-04-0.884D-03-0.125D-02-0.561D-02-0.450D-02 0.189D-01
 Coeff-Com:  0.933D-01 0.231D+00 0.669D+00
 Coeff:      0.717D-04-0.884D-03-0.125D-02-0.561D-02-0.450D-02 0.189D-01
 Coeff:      0.933D-01 0.231D+00 0.669D+00
 Gap=     0.185 Goal=   None    Shift=    0.000
 RMSDP=2.37D-08 MaxDP=3.83D-07 DE=-3.81D-11 OVMax= 6.93D-07

 Cycle  10  Pass 1  IDiag  1:
 E= -268.372764518576     Delta-E=       -0.000000000009 Rises=F Damp=F
 DIIS: error= 4.16D-08 at cycle  10 NSaved=  10.
 NSaved=10 IEnMin=10 EnMin= -268.372764518576     IErMin=10 ErrMin= 4.16D-08
 ErrMax= 4.16D-08  0.00D+00 EMaxC= 1.00D-01 BMatC= 2.23D-13 BMatP= 3.14D-12
 IDIUse=1 WtCom= 1.00D+00 WtEn= 0.00D+00
 Coeff-Com:  0.226D-04-0.232D-03-0.300D-03-0.175D-02-0.175D-02 0.106D-02
 Coeff-Com:  0.166D-01 0.709D-01 0.311D+00 0.605D+00
 Coeff:      0.226D-04-0.232D-03-0.300D-03-0.175D-02-0.175D-02 0.106D-02
 Coeff:      0.166D-01 0.709D-01 0.311D+00 0.605D+00
 Gap=     0.185 Goal=   None    Shift=    0.000
 RMSDP=4.92D-09 MaxDP=1.07D-07 DE=-8.64D-12 OVMax= 1.93D-07

 SCF Done:  E(RB3LYP) =  -268.372764519     A.U. after   10 cycles
            NFock= 10  Conv=0.49D-08     -V/T= 2.0035
 KE= 2.674459875406D+02 PE=-9.890920911555D+02 EE= 2.731393039138D+02
 Leave Link  502 at Tue Oct 15 20:35:39 2019, MaxMem=   280000000 cpu:              49.5 elap:               2.5
 (Enter /home/soft/g16/l801.exe)
 DoSCS=F DFT=T ScalE2(SS,OS)=  1.000000  1.000000
 Range of M.O.s used for correlation:     1   128
 NBasis=   128 NAE=    20 NBE=    20 NFC=     0 NFV=     0
 NROrb=    128 NOA=    20 NOB=    20 NVA=   108 NVB=   108

 **** Warning!!: The largest alpha MO coefficient is  0.38623822D+02

[...]
 (Enter /home/soft/g16/l1102.exe)
 Symmetrizing basis deriv contribution to polar:
 IMax=3 JMax=2 DiffMx= 0.00D+00
 Leave Link 1102 at Tue Oct 15 20:41:08 2019, MaxMem=   280000000 cpu:               0.6 elap:               0.0
 (Enter /home/soft/g16/l1110.exe)
 Leave Link 1110 at Tue Oct 15 20:41:08 2019, MaxMem=   280000000 cpu:               0.9 elap:               0.1
 (Enter /home/soft/g16/l1002.exe)
 Minotr:  Closed shell wavefunction.
 Leave Link 1002 at Tue Oct 15 20:41:08 2019, MaxMem=   280000000 cpu:               0.7 elap:               0.1
 (Enter /home/soft/g16/l701.exe)
 ... and contract with generalized density number  0.
 Compute integral first derivatives.
 Leave Link  701 at Tue Oct 15 20:41:08 2019, MaxMem=   280000000 cpu:               3.3 elap:               0.2
 (Enter /home/soft/g16/l702.exe)
 L702 exits ... SP integral derivatives will be done elsewhere.
 Leave Link  702 at Tue Oct 15 20:41:08 2019, MaxMem=   280000000 cpu:               0.6 elap:               0.0
 (Enter /home/soft/g16/l703.exe)
 Integral derivatives from FoFJK, PRISM(SPDF).
 Compute integral first derivatives, UseDBF=F ICtDFT=           0.
 Calling FoFJK, ICntrl=      2147 FMM=F ISym2X=0 I1Cent= 0 IOpClX= 0 NMat=1 NMatS=1 NMatT=0.
 FoFJK:  IHMeth= 1 ICntrl=    2147 DoSepK=F KAlg= 0 I1Cent=           0 FoldK=F
 IRaf=         0 NMat=       1 IRICut=       1 DoRegI=T DoRafI=F ISym2E= 0 IDoP0=0 IntGTp=1.
 FoFCou: FMM=F IPFlag=           0 FMFlag=      100000 FMFlg1=         800
         NFxFlg=           0 DoJE=F BraDBF=F KetDBF=F FulRan=T
         wScrn=  0.000000 ICntrl=      2147 IOpCl=  0 I1Cent=           0 NGrid=           0
         NMat0=    1 NMatS0=      1 NMatT0=    0 NMatD0=    1 NMtDS0=    0 NMtDT0=    0
 Symmetry not used in FoFCou.
 Leave Link  703 at Tue Oct 15 20:41:09 2019, MaxMem=   280000000 cpu:              14.1 elap:               0.6
 (Enter /home/soft/g16/l716.exe)
 Dipole        =-5.34335659D-01 1.32299600D+00 3.08431230D-01
 Polarizability= 0.00000000D+00 0.00000000D+00 0.00000000D+00
                 0.00000000D+00 0.00000000D+00 0.00000000D+00
 -------------------------------------------------------------------
 Center     Atomic                   Forces (Hartrees/Bohr)
 Number     Number              X              Y              Z
 -------------------------------------------------------------------
      1        6          -0.002028290    0.000231777   -0.001326180
      2        1          -0.000349324    0.000305861   -0.000544489
      3        8          -0.004614653   -0.000186769    0.002182158
      4        6           0.001108400   -0.001528899    0.000761569
      5        1           0.000102897   -0.000101157   -0.000163995
      6        1          -0.000018069   -0.000040117   -0.000019957
      7        6           0.000773420   -0.000031052    0.000737866
      8        1          -0.000078310    0.000093743    0.000256283
      9        1           0.000074712   -0.000217142    0.000259340
     10        8           0.004545272    0.001501565   -0.002302489
     11        1           0.000483943   -0.000027809    0.000159894
 -------------------------------------------------------------------
 Cartesian Forces:  Max     0.004614653 RMS     0.001420059
 Z-matrix is all fixed cartesians, so copy forces.
 Leave Link  716 at Tue Oct 15 20:41:09 2019, MaxMem=   280000000 cpu:               1.1 elap:               0.1
 (Enter /home/soft/g16/l123.exe)
 IRC-IRC-IRC-IRC-IRC-IRC-IRC-IRC-IRC-IRC-IRC-IRC-IRC-IRC-IRC-IRC-IRC-IRC
 Error in corrector energy =          -0.0000023910
 Magnitude of corrector gradient =     0.0082665497
 Magnitude of analytic gradient =      0.0081576156
 Magnitude of difference =             0.0012625756
 Angle between gradients (degrees)=    8.7849
 Pt 60 Step number   2 out of a maximum of  20
 Using modified Bulirsch-Stoer corrector integration.
   Using distance weighted interpolants to fit PES.
 PreDWI: IReCr0= 2 IReCr1= 1 IReCr2= 1 IReCr3= 1
 Modified Bulirsch-Stoer Extrapolation Cycles:
    EPS =    0.000010000000000
    Cycle     1 NS=    48
      PEZero:  N= 2 I= 1 D=  7.06D-04 Err=  2.15D-05
    Cycle     2 NS=    64 Truncation Error =  0.000021510
      PEZero:  N= 3 I= 2 D=  7.06D-04 Err=  1.43D-05
      PEZero:  N= 3 I= 1 D=  1.41D-03 Err=  6.06D-08
    Cycle     3 NS=    96 Truncation Error =  0.000000061
 BS completed in    3 cycles and     208 integration steps.
 Maximum DWI energy   std dev =  0.000000123 at pt    42
 Maximum DWI gradient std dev =  0.043444587 at pt    59
 SUMMARY OF CORRECTOR INTEGRATION:
   Predictor End Point Energy =  -268.429332
   Old End Point Energy       =  -268.429334
   Corrected End Point Energy =  -268.429335
   Predictor End-Start Dist.  =     0.135521
   Old End-Start Dist.        =     0.135259
   New End-Start Dist.        =     0.135482
   New End-Old End Dist.      =     0.007275
 CORRECTOR INTEGRATION CONVERGENCE:
   Recorrection delta-x convergence threshold:    0.010000
   Delta-x Convergence Met
 Point Number:  30          Path Number:   2
                    CURRENT STRUCTURE
                Cartesian Coordinates (Ang):                
 ---------------------------------------------------------------------
 Center     Atomic                     Coordinates (Angstroms)
 Number     Number                        X           Y           Z
 ---------------------------------------------------------------------
      1          6                   -1.283135    0.204572    0.227533
      2          1                   -2.078218    0.625718    0.875014
      3          8                   -1.289613   -0.980048   -0.034149
      4          6                   -0.187769    1.119826   -0.252787
      5          1                   -0.185463    1.117881   -1.348548
      6          1                   -0.349853    2.144317    0.094124
      7          6                    1.168211    0.580878    0.255730
      8          1                    1.972111    1.216896   -0.120272
      9          1                    1.191748    0.637999    1.354742
     10          8                    1.443444   -0.731711   -0.182589
     11          1                    0.630629   -1.258327   -0.157316
 ---------------------------------------------------------------------
   CHANGE IN THE REACTION COORDINATE =    0.13548
   NET REACTION COORDINATE UP TO THIS POINT =    4.05914
  # OF POINTS ALONG THE PATH =  60
  # OF STEPS =   2

 Maximum number of steps reached.
 Calculation of REVERSE path complete.
 Reaction path calculation complete.
 
 Energies reported relative to the TS energy of        -268.372549
 --------------------------------------------------------------------------
    Summary of reaction path following
 --------------------------------------------------------------------------
                        Energy    RxCoord
   1                   -0.05679  -4.05914
   2                   -0.05646  -3.92366
   3                   -0.05608  -3.78820
   4                   -0.05566  -3.65283
   5                   -0.05518  -3.51741
   6                   -0.05465  -3.38196
   7                   -0.05405  -3.24658
   8                   -0.05338  -3.11139
   9                   -0.05262  -2.97623
  10                   -0.05174  -2.84110
  11                   -0.05068  -2.70587
  12                   -0.04941  -2.57053
  13                   -0.04791  -2.43512
  14                   -0.04617  -2.29968
  15                   -0.04422  -2.16423
  16                   -0.04208  -2.02877
  17                   -0.03977  -1.89333
  18                   -0.03731  -1.75789
  19                   -0.03473  -1.62246
  20                   -0.03206  -1.48701
  21                   -0.02930  -1.35158
  22                   -0.02645  -1.21614
  23                   -0.02352  -1.08078
  24                   -0.02046  -0.94544
  25                   -0.01715  -0.81099
  26                   -0.01321  -0.67626
  27                   -0.00873  -0.54097
  28                   -0.00465  -0.40548
  29                   -0.00179  -0.26999
  30                   -0.00035  -0.13475
  31                    0.00000   0.00000
  32                   -0.00022   0.13471
  33                   -0.00071   0.26971
  34                   -0.00135   0.40511
  35                   -0.00210   0.54061
  36                   -0.00293   0.67603
  37                   -0.00380   0.81143
  38                   -0.00471   0.94684
  39                   -0.00563   1.08229
  40                   -0.00655   1.21779
  41                   -0.00747   1.35322
  42                   -0.00838   1.48851
  43                   -0.00926   1.62383
  44                   -0.01012   1.75926
  45                   -0.01095   1.89476
  46                   -0.01176   2.03021
  47                   -0.01253   2.16562
  48                   -0.01326   2.30095
  49                   -0.01396   2.43631
  50                   -0.01463   2.57177
  51                   -0.01526   2.70726
  52                   -0.01586   2.84271
  53                   -0.01642   2.97809
  54                   -0.01696   3.11337
  55                   -0.01745   3.24859
  56                   -0.01793   3.38400
  57                   -0.01837   3.51944
  58                   -0.01879   3.65477
  59                   -0.01918   3.79011
  60                   -0.01955   3.92555
  61                   -0.01989   4.06100
 --------------------------------------------------------------------------
 
 Total number of points:                   60
 Total number of gradient calculations:    75
 Total number of Hessian calculations:      1
 IRC-IRC-IRC-IRC-IRC-IRC-IRC-IRC-IRC-IRC-IRC-IRC-IRC-IRC-IRC-IRC-IRC-IRC
 Leave Link  123 at Tue Oct 15 20:41:09 2019, MaxMem=   280000000 cpu:               2.5 elap:               0.2
 (Enter /home/soft/g16/l202.exe)
                          Input orientation:                          
 ---------------------------------------------------------------------
 Center     Atomic      Atomic             Coordinates (Angstroms)
 Number     Number       Type             X           Y           Z
 ---------------------------------------------------------------------
      1          6           0       -1.283035    0.204623    0.227570
      2          1           0       -2.078215    0.625703    0.874975
      3          8           0       -1.289624   -0.980176   -0.034206
      4          6           0       -0.188373    1.119974   -0.252969
      5          1           0       -0.184856    1.117798   -1.348018
      6          1           0       -0.349186    2.144286    0.094490
      7          6           0        1.168710    0.580660    0.255817
      8          1           0        1.973375    1.216452   -0.119982
      9          1           0        1.190529    0.638516    1.354316
     10          8           0        1.443493   -0.731676   -0.182526
     11          1           0        0.630867   -1.258911   -0.157130
 ---------------------------------------------------------------------
                    Distance matrix (angstroms):
                    1          2          3          4          5
     1  C    0.000000
     2  H    1.108491   0.000000
     3  O    1.213391   2.006821   0.000000
     4  C    1.505679   2.255674   2.381437   0.000000
     5  H    2.126585   2.961193   2.710740   1.095056   0.000000
     6  H    2.156867   2.429978   3.265463   1.093529   1.778064
     7  C    2.480576   3.305738   2.926385   1.546414   2.166320
     8  H    3.427652   4.213585   3.934424   2.167982   2.485109
     9  H    2.752515   3.303728   3.270981   2.171759   3.069854
    10  O    2.911836   3.919593   2.748396   2.469120   2.725884
    11  H    2.439866   3.457764   1.944502   2.517823   2.780713
                    6          7          8          9         10
     6  H    0.000000
     7  C    2.185169   0.000000
     8  H    2.510212   1.092219   0.000000
     9  H    2.495040   1.100238   1.766468   0.000000
    10  O    3.400234   1.410629   2.019873   2.074440   0.000000
    11  H    3.550432   1.960566   2.816226   2.489562   0.969011
                   11
    11  H    0.000000
 Symmetry turned off by external request.
 Stoichiometry    C3H6O2
 Framework group  C1[X(C3H6O2)]
 Deg. of freedom    27
 Full point group                 C1      NOp   1
 Rotational constants (GHZ):           8.4493710           4.4123795           3.1533421
 Leave Link  202 at Tue Oct 15 20:41:09 2019, MaxMem=   280000000 cpu:               1.0 elap:               0.1
 (Enter /home/soft/g16/l601.exe)
 Copying SCF densities to generalized density rwf, IOpCl= 0 IROHF=0.

 **********************************************************************

            Population analysis using the SCF density.

 **********************************************************************

 Alpha  occ. eigenvalues --  -19.15186 -19.11833 -10.28855 -10.23596 -10.20089
 Alpha  occ. eigenvalues --   -1.08462  -1.02726  -0.79653  -0.67314  -0.60243
 Alpha  occ. eigenvalues --   -0.52467  -0.51656  -0.47265  -0.44974  -0.43396
 Alpha  occ. eigenvalues --   -0.42141  -0.38986  -0.34815  -0.28331  -0.27960
 Alpha virt. eigenvalues --   -0.06686  -0.00115   0.02069   0.02636   0.03132
 Alpha virt. eigenvalues --    0.05566   0.06029   0.06905   0.07303   0.08588
 Alpha virt. eigenvalues --    0.11092   0.11174   0.14354   0.14961   0.16007
 Alpha virt. eigenvalues --    0.18028   0.18936   0.19721   0.20719   0.21847
 Alpha virt. eigenvalues --    0.22477   0.23909   0.25209   0.26353   0.26928
 Alpha virt. eigenvalues --    0.27921   0.28896   0.30191   0.31908   0.34896
 Alpha virt. eigenvalues --    0.40476   0.42810   0.44991   0.48337   0.49871
 Alpha virt. eigenvalues --    0.51544   0.54404   0.56364   0.59724   0.60951
 Alpha virt. eigenvalues --    0.64506   0.66235   0.67753   0.68405   0.70041
 Alpha virt. eigenvalues --    0.70953   0.81517   0.88630   0.94324   1.05541
 Alpha virt. eigenvalues --    1.05786   1.08769   1.10227   1.13129   1.16101
 Alpha virt. eigenvalues --    1.18160   1.29660   1.35440   1.40951   1.43398
 Alpha virt. eigenvalues --    1.51661   1.53044   1.59653   1.60751   1.63045
 Alpha virt. eigenvalues --    1.64042   1.70947   1.77132   1.89244   1.92004
 Alpha virt. eigenvalues --    2.04182   2.11685   2.31450   2.38077   2.44953
 Alpha virt. eigenvalues --    2.47493   2.51372   2.53329   2.67090   2.80840
 Alpha virt. eigenvalues --    2.82562   2.85039   2.88291   2.90301   2.97462
 Alpha virt. eigenvalues --    3.04295   3.09449   3.15944   3.19864   3.24726
 Alpha virt. eigenvalues --    3.32114   3.38862   3.45784   3.58431   3.76067
 Alpha virt. eigenvalues --    3.95098   4.04482   4.98819   5.02322   5.06916
 Alpha virt. eigenvalues --    5.14965   5.44852   5.62831  23.48838  23.64260
 Alpha virt. eigenvalues --   23.75401  49.87215  49.90029
          Condensed to atoms (all electrons):
               1          2          3          4          5          6
     1  C    5.472583   0.372818   0.306730  -0.121622  -0.038979  -0.070411
     2  H    0.372818   0.561023  -0.054702  -0.082189   0.002805   0.002014
     3  O    0.306730  -0.054702   8.079070  -0.059499  -0.011868   0.012390
     4  C   -0.121622  -0.082189  -0.059499   6.193898   0.400719   0.396856
     5  H   -0.038979   0.002805  -0.011868   0.400719   0.422988  -0.028610
     6  H   -0.070411   0.002014   0.012390   0.396856  -0.028610   0.466361
     7  C    0.040847  -0.004410  -0.023157  -0.017243  -0.032152  -0.035550
     8  H    0.028759  -0.000459  -0.000396  -0.117129  -0.008683  -0.001650
     9  H   -0.048151  -0.000813  -0.001172   0.024766   0.006041  -0.001391
    10  O   -0.059890   0.000861   0.005889  -0.002306  -0.007999   0.010986
    11  H    0.010050  -0.000176   0.020233  -0.043802   0.001272  -0.001154
               7          8          9         10         11
     1  C    0.040847   0.028759  -0.048151  -0.059890   0.010050
     2  H   -0.004410  -0.000459  -0.000813   0.000861  -0.000176
     3  O   -0.023157  -0.000396  -0.001172   0.005889   0.020233
     4  C   -0.017243  -0.117129   0.024766  -0.002306  -0.043802
     5  H   -0.032152  -0.008683   0.006041  -0.007999   0.001272
     6  H   -0.035550  -0.001650  -0.001391   0.010986  -0.001154
     7  C    5.498940   0.460689   0.360923   0.207426   0.012236
     8  H    0.460689   0.495624  -0.051013  -0.063288   0.006796
     9  H    0.360923  -0.051013   0.548596  -0.063571  -0.000896
    10  O    0.207426  -0.063288  -0.063571   8.108986   0.249278
    11  H    0.012236   0.006796  -0.000896   0.249278   0.377824
 Mulliken charges:
               1
     1  C    0.107266
     2  H    0.203228
     3  O   -0.273518
     4  C   -0.572448
     5  H    0.294464
     6  H    0.250159
     7  C   -0.468549
     8  H    0.250749
     9  H    0.226681
    10  O   -0.386372
    11  H    0.368340
 Sum of Mulliken charges =  -0.00000
 Mulliken charges with hydrogens summed into heavy atoms:
               1
     1  C    0.310494
     3  O   -0.273518
     4  C   -0.027825
     7  C    0.008881
    10  O   -0.018033
 APT charges:
               1
     1  C   -0.167239
     2  H    0.516386
     3  O   -0.311090
     4  C   -1.002211
     5  H    0.456168
     6  H    0.520956
     7  C   -0.953546
     8  H    0.578152
     9  H    0.417087
    10  O   -0.490437
    11  H    0.435774
 Sum of APT charges =  -0.00000
 APT charges with hydrogens summed into heavy atoms:
               1
     1  C    0.349147
     3  O   -0.311090
     4  C   -0.025087
     7  C    0.041692
    10  O   -0.054663
 Electronic spatial extent (au):  <R**2>=            412.9567
 Charge=             -0.0000 electrons
 Dipole moment (field-independent basis, Debye):
    X=             -1.3581    Y=              3.3627    Z=              0.7840  Tot=              3.7104
 Quadrupole moment (field-independent basis, Debye-Ang):
   XX=            -34.5426   YY=            -30.8431   ZZ=            -30.1352
   XY=             -0.2147   XZ=              0.1727   YZ=             -0.2968
 Traceless Quadrupole moment (field-independent basis, Debye-Ang):
   XX=             -2.7023   YY=              0.9972   ZZ=              1.7051
   XY=             -0.2147   XZ=              0.1727   YZ=             -0.2968
 Octapole moment (field-independent basis, Debye-Ang**2):
  XXX=             -8.5069  YYY=             -9.0580  ZZZ=             -1.5910  XYY=              1.8746
  XXY=              8.1653  XXZ=              1.9888  XZZ=             -1.9107  YZZ=             -2.4588
  YYZ=             -0.8421  XYZ=             -1.1229
 Hexadecapole moment (field-independent basis, Debye-Ang**3):
 XXXX=           -303.3734 YYYY=           -166.9558 ZZZZ=            -55.6970 XXXY=             -0.7358
 XXXZ=              2.2579 YYYX=            -10.1537 YYYZ=             -0.1401 ZZZX=              4.7752
 ZZZY=             -3.5597 XXYY=            -86.0345 XXZZ=            -59.0370 YYZZ=            -39.1243
 XXYZ=             -0.9332 YYXZ=              0.4256 ZZXY=             -1.7369
 N-N= 1.790492424261D+02 E-N=-9.871012388514D+02  KE= 2.675095278998D+02
  Exact polarizability:   0.000   0.000   0.000   0.000   0.000   0.000
 Approx polarizability:  56.940   0.839  69.571  -2.785   5.123  50.787
 No NMR shielding tensors so no spin-rotation constants.
 Leave Link  601 at Tue Oct 15 20:41:09 2019, MaxMem=   280000000 cpu:               2.0 elap:               0.1
 (Enter /home/soft/g16/l9999.exe)

 This type of calculation cannot be archived.


 Happiness is a conscious choice, not an automatic response.
 -- Mildred Barthel
 Job cpu time:       0 days  1 hours 53 minutes 42.8 seconds.
 Elapsed time:       0 days  0 hours  5 minutes 54.7 seconds.
 File lengths (MBytes):  RWF=    332 Int=      0 D2E=      0 Chk=      8 Scr=      8
 Normal termination of Gaussian 16 at Tue Oct 15 20:41:10 2019.
