 Entering Gaussian System, Link 0=g16
 Input=irc32r.gjf
 Output=irc32r.log
 Initial command:
 /home/soft/g16/l1.exe "/tmp/gaussian/Gau-150842.inp" -scrdir="/tmp/gaussian/"
 Entering Link 1 = /home/soft/g16/l1.exe PID=    150843.
  
 Copyright (c) 1988,1990,1992,1993,1995,1998,2003,2009,2016,
            Gaussian, Inc.  All Rights Reserved.
  
 This is part of the Gaussian(R) 16 program.  It is based on
 the Gaussian(R) 09 system (copyright 2009, Gaussian, Inc.),
 the Gaussian(R) 03 system (copyright 2003, Gaussian, Inc.),
 the Gaussian(R) 98 system (copyright 1998, Gaussian, Inc.),
 the Gaussian(R) 94 system (copyright 1995, Gaussian, Inc.),
 the Gaussian 92(TM) system (copyright 1992, Gaussian, Inc.),
 the Gaussian 90(TM) system (copyright 1990, Gaussian, Inc.),
 the Gaussian 88(TM) system (copyright 1988, Gaussian, Inc.),
 the Gaussian 86(TM) system (copyright 1986, Carnegie Mellon
 University), and the Gaussian 82(TM) system (copyright 1983,
 Carnegie Mellon University). Gaussian is a federally registered
 trademark of Gaussian, Inc.
  
 This software contains proprietary and confidential information,
 including trade secrets, belonging to Gaussian, Inc.
  
 This software is provided under written license and may be
 used, copied, transmitted, or stored only in accord with that
 written license.
  
 The following legend is applicable only to US Government
 contracts under FAR:
  
                    RESTRICTED RIGHTS LEGEND
  
 Use, reproduction and disclosure by the US Government is
 subject to restrictions as set forth in subparagraphs (a)
 and (c) of the Commercial Computer Software - Restricted
 Rights clause in FAR 52.227-19.
  
 Gaussian, Inc.
 340 Quinnipiac St., Bldg. 40, Wallingford CT 06492
  
  
 ---------------------------------------------------------------
 Warning -- This program may not be used in any manner that
 competes with the business of Gaussian, Inc. or will provide
 assistance to any competitor of Gaussian, Inc.  The licensee
 of this program is prohibited from giving any competitor of
 Gaussian, Inc. access to this program.  By using this program,
 the user acknowledges that Gaussian, Inc. is engaged in the
 business of creating and licensing software in the field of
 computational chemistry and represents and warrants to the
 licensee that it is not a competitor of Gaussian, Inc. and that
 it will not use this program in any manner prohibited above.
 ---------------------------------------------------------------
  

 Cite this work as:
 Gaussian 16, Revision A.03,
 M. J. Frisch, G. W. Trucks, H. B. Schlegel, G. E. Scuseria, 
 M. A. Robb, J. R. Cheeseman, G. Scalmani, V. Barone, 
 G. A. Petersson, H. Nakatsuji, X. Li, M. Caricato, A. V. Marenich, 
 J. Bloino, B. G. Janesko, R. Gomperts, B. Mennucci, H. P. Hratchian, 
 J. V. Ortiz, A. F. Izmaylov, J. L. Sonnenberg, D. Williams-Young, 
 F. Ding, F. Lipparini, F. Egidi, J. Goings, B. Peng, A. Petrone, 
 T. Henderson, D. Ranasinghe, V. G. Zakrzewski, J. Gao, N. Rega, 
 G. Zheng, W. Liang, M. Hada, M. Ehara, K. Toyota, R. Fukuda, 
 J. Hasegawa, M. Ishida, T. Nakajima, Y. Honda, O. Kitao, H. Nakai, 
 T. Vreven, K. Throssell, J. A. Montgomery, Jr., J. E. Peralta, 
 F. Ogliaro, M. J. Bearpark, J. J. Heyd, E. N. Brothers, K. N. Kudin, 
 V. N. Staroverov, T. A. Keith, R. Kobayashi, J. Normand, 
 K. Raghavachari, A. P. Rendell, J. C. Burant, S. S. Iyengar, 
 J. Tomasi, M. Cossi, J. M. Millam, M. Klene, C. Adamo, R. Cammi, 
 J. W. Ochterski, R. L. Martin, K. Morokuma, O. Farkas, 
 J. B. Foresman, and D. J. Fox, Gaussian, Inc., Wallingford CT, 2016.
 
 ******************************************
 Gaussian 16:  ES64L-G16RevA.03 25-Dec-2016
                15-Oct-2019 
 ******************************************
 %chk=irc32r.chk
 %nprocshared=24
 Will use up to   24 processors via shared memory.
 ----------------------------
 #p opt freq b3lyp/6-311+g(d)
 ----------------------------
 1/18=20,19=15,26=3,38=1/1,3;
 2/9=110,12=2,17=6,18=5,40=1/2;
 3/5=4,6=6,7=11,11=2,25=1,30=1,71=1,74=-5/1,2,3;
 4//1;
 5/5=2,38=5/2;
 6/7=2,8=2,9=2,10=2,28=1/1;
 7//1,2,3,16;
 1/18=20,19=15,26=3/3(2);
 2/9=110/2;
 99//99;
 2/9=110/2;
 3/5=4,6=6,7=11,11=2,25=1,30=1,71=1,74=-5/1,2,3;
 4/5=5,16=3,69=1/1;
 5/5=2,38=5/2;
 7//1,2,3,16;
 1/18=20,19=15,26=3/3(-5);
 2/9=110/2;
 6/7=2,8=2,9=2,10=2,19=2,28=1/1;
 99/9=1/99;
 Leave Link    1 at Tue Oct 15 21:35:55 2019, MaxMem=           0 cpu:               2.2 elap:               0.1
 (Enter /home/soft/g16/l101.exe)
 -------------------
 Title Card Required
 -------------------
 Symbolic Z-matrix:
 Charge =  0 Multiplicity = 1
 C                    -1.40038   0.3468    0.20171 
 H                    -2.10379   0.51379   1.0119 
 O                    -1.23012  -0.9762   -0.01178 
 C                    -0.82906   1.3629   -0.45525 
 H                    -0.17532   1.21594  -1.312 
 H                    -1.08306   2.38176  -0.18615 
 C                     1.74427   0.24752   0.45499 
 H                     2.13885   1.16757  -0.00661 
 H                     1.52854   0.30017   1.53681 
 O                     1.60292  -0.7713   -0.1702 
 H                    -0.44489  -1.14952  -0.55448 
 
 Add virtual bond connecting atoms H11        and O10        Dist= 4.00D+00.
 Add atom      7 valence  3 ND=      2 dihedral       8      7      9     10
 ITRead=  0  0  0  0  0  0  0  0  0  0  0
 MicOpt= -1 -1 -1 -1 -1 -1 -1 -1 -1 -1 -1
 NAtoms=     11 NQM=       11 NQMF=       0 NMMI=      0 NMMIF=      0
                NMic=       0 NMicF=      0.
                    Isotopes and Nuclear Properties:
 (Nuclear quadrupole moments (NQMom) in fm**2, nuclear magnetic moments (NMagM)
  in nuclear magnetons)

  Atom         1           2           3           4           5           6           7           8           9          10
 IAtWgt=          12           1          16          12           1           1          12           1           1          16
 AtmWgt=  12.0000000   1.0078250  15.9949146  12.0000000   1.0078250   1.0078250  12.0000000   1.0078250   1.0078250  15.9949146
 NucSpn=           0           1           0           0           1           1           0           1           1           0
 AtZEff=  -0.0000000  -0.0000000  -0.0000000  -0.0000000  -0.0000000  -0.0000000  -0.0000000  -0.0000000  -0.0000000  -0.0000000
 NQMom=    0.0000000   0.0000000   0.0000000   0.0000000   0.0000000   0.0000000   0.0000000   0.0000000   0.0000000   0.0000000
 NMagM=    0.0000000   2.7928460   0.0000000   0.0000000   2.7928460   2.7928460   0.0000000   2.7928460   2.7928460   0.0000000
 AtZNuc=   6.0000000   1.0000000   8.0000000   6.0000000   1.0000000   1.0000000   6.0000000   1.0000000   1.0000000   8.0000000

  Atom        11
 IAtWgt=           1
 AtmWgt=   1.0078250
 NucSpn=           1
 AtZEff=  -0.0000000
 NQMom=    0.0000000
 NMagM=    2.7928460
 AtZNuc=   1.0000000
 Leave Link  101 at Tue Oct 15 21:35:55 2019, MaxMem=   280000000 cpu:               4.8 elap:               0.2
 (Enter /home/soft/g16/l103.exe)

 GradGradGradGradGradGradGradGradGradGradGradGradGradGradGradGradGradGrad
 Berny optimization.
 Initialization pass.
                           ----------------------------
                           !    Initial Parameters    !
                           ! (Angstroms and Degrees)  !
 --------------------------                            --------------------------
 ! Name  Definition              Value          Derivative Info.                !
 --------------------------------------------------------------------------------
 ! R1    R(1,2)                  1.0859         estimate D2E/DX2                !
 ! R2    R(1,3)                  1.3509         estimate D2E/DX2                !
 ! R3    R(1,4)                  1.3381         estimate D2E/DX2                !
 ! R4    R(3,11)                 0.9701         estimate D2E/DX2                !
 ! R5    R(4,5)                  1.0877         estimate D2E/DX2                !
 ! R6    R(4,6)                  1.084          estimate D2E/DX2                !
 ! R7    R(7,8)                  1.1024         estimate D2E/DX2                !
 ! R8    R(7,9)                  1.1044         estimate D2E/DX2                !
 ! R9    R(7,10)                 1.2037         estimate D2E/DX2                !
 ! R10   R(10,11)                2.1176         estimate D2E/DX2                !
 ! A1    A(2,1,3)              110.4981         estimate D2E/DX2                !
 ! A2    A(2,1,4)              121.7449         estimate D2E/DX2                !
 ! A3    A(3,1,4)              127.755          estimate D2E/DX2                !
 ! A4    A(1,3,11)             111.4321         estimate D2E/DX2                !
 ! A5    A(1,4,5)              122.7366         estimate D2E/DX2                !
 ! A6    A(1,4,6)              119.4602         estimate D2E/DX2                !
 ! A7    A(5,4,6)              117.6055         estimate D2E/DX2                !
 ! A8    A(8,7,9)              116.1232         estimate D2E/DX2                !
 ! A9    A(8,7,10)             122.0707         estimate D2E/DX2                !
 ! A10   A(9,7,10)             121.7497         estimate D2E/DX2                !
 ! A11   A(7,10,11)            111.0385         estimate D2E/DX2                !
 ! A12   A(3,11,10)            130.4887         estimate D2E/DX2                !
 ! D1    D(2,1,3,11)          -164.759          estimate D2E/DX2                !
 ! D2    D(4,1,3,11)            15.7572         estimate D2E/DX2                !
 ! D3    D(2,1,4,5)           -175.7345         estimate D2E/DX2                !
 ! D4    D(2,1,4,6)             -0.9701         estimate D2E/DX2                !
 ! D5    D(3,1,4,5)              3.6969         estimate D2E/DX2                !
 ! D6    D(3,1,4,6)            178.4613         estimate D2E/DX2                !
 ! D7    D(1,3,11,10)           63.2203         estimate D2E/DX2                !
 ! D8    D(8,7,9,10)          -177.3234         estimate D2E/DX2                !
 ! D9    D(8,7,10,11)         -106.8007         estimate D2E/DX2                !
 ! D10   D(9,7,10,11)           76.0354         estimate D2E/DX2                !
 ! D11   D(7,10,11,3)          -35.2288         estimate D2E/DX2                !
 --------------------------------------------------------------------------------
 Trust Radius=3.00D-01 FncErr=1.00D-07 GrdErr=1.00D-06 EigMax=2.50D+02 EigMin=1.00D-04
 Number of steps in this run=     43 maximum allowed number of steps=    100.
 GradGradGradGradGradGradGradGradGradGradGradGradGradGradGradGradGradGrad

 Leave Link  103 at Tue Oct 15 21:35:55 2019, MaxMem=   280000000 cpu:               0.4 elap:               0.0
 (Enter /home/soft/g16/l202.exe)
                          Input orientation:                          
 ---------------------------------------------------------------------
 Center     Atomic      Atomic             Coordinates (Angstroms)
 Number     Number       Type             X           Y           Z
 ---------------------------------------------------------------------
      1          6           0       -1.400384    0.346801    0.201711
      2          1           0       -2.103795    0.513793    1.011897
      3          8           0       -1.230124   -0.976195   -0.011778
      4          6           0       -0.829057    1.362897   -0.455247
      5          1           0       -0.175316    1.215944   -1.312000
      6          1           0       -1.083058    2.381757   -0.186151
      7          6           0        1.744267    0.247521    0.454991
      8          1           0        2.138854    1.167573   -0.006610
      9          1           0        1.528536    0.300174    1.536814
     10          8           0        1.602920   -0.771298   -0.170201
     11          1           0       -0.444894   -1.149524   -0.554484
 ---------------------------------------------------------------------
                    Distance matrix (angstroms):
                    1          2          3          4          5
     1  C    0.000000
     2  H    1.085852   0.000000
     3  O    1.350883   2.007804   0.000000
     4  C    1.338081   2.120954   2.414305   0.000000
     5  H    2.132492   3.100410   2.758382   1.087657   0.000000
     6  H    2.095753   2.442645   3.365691   1.083976   1.857593
     7  C    3.156396   3.897259   3.249978   2.948660   2.782966
     8  H    3.639130   4.411899   3.993217   3.007976   2.657398
     9  H    3.219200   3.676275   3.411372   3.264342   3.443470
    10  O    3.226190   4.097383   2.844858   3.248161   2.900855
    11  H    1.929710   2.823495   0.970133   2.543558   2.498388
                    6          7          8          9         10
     6  H    0.000000
     7  C    3.599971   0.000000
     8  H    3.447781   1.102393   0.000000
     9  H    3.757928   1.104379   1.872706   0.000000
    10  O    4.142039   1.203676   2.018219   2.016801   0.000000
    11  H    3.607335   2.786252   3.513525   3.220183   2.117610
                   11
    11  H    0.000000
 Stoichiometry    C3H6O2
 Framework group  C1[X(C3H6O2)]
 Deg. of freedom    27
 Full point group                 C1      NOp   1
 Largest Abelian subgroup         C1      NOp   1
 Largest concise Abelian subgroup C1      NOp   1
                         Standard orientation:                         
 ---------------------------------------------------------------------
 Center     Atomic      Atomic             Coordinates (Angstroms)
 Number     Number       Type             X           Y           Z
 ---------------------------------------------------------------------
      1          6           0       -1.413362    0.039571    0.284013
      2          1           0       -2.084407    0.045505    1.137674
      3          8           0       -1.037082   -1.223363   -0.013133
      4          6           0       -1.061240    1.168242   -0.342541
      5          1           0       -0.445249    1.175772   -1.238921
      6          1           0       -1.465591    2.114923   -0.002980
      7          6           0        1.712951    0.466055    0.368366
      8          1           0        1.919091    1.460784   -0.059757
      9          1           0        1.557400    0.429715    1.461132
     10          8           0        1.706697   -0.531089   -0.305801
     11          1           0       -0.268258   -1.234286   -0.604698
 ---------------------------------------------------------------------
 Rotational constants (GHZ):           7.4444587           3.1522168           2.4476848
 Leave Link  202 at Tue Oct 15 21:35:55 2019, MaxMem=   280000000 cpu:               0.6 elap:               0.1
 (Enter /home/soft/g16/l301.exe)
 Standard basis: 6-311+G(d) (5D, 7F)
 Ernie: Thresh=  0.10000D-02 Tol=  0.10000D-05 Strict=F.
 There are   133 symmetry adapted cartesian basis functions of A   symmetry.
 There are   128 symmetry adapted basis functions of A   symmetry.
   128 basis functions,   210 primitive gaussians,   133 cartesian basis functions
    20 alpha electrons       20 beta electrons
       nuclear repulsion energy       166.3619956016 Hartrees.
 IExCor=  402 DFT=T Ex+Corr=B3LYP ExCW=0 ScaHFX=  0.200000
 ScaDFX=  0.800000  0.720000  1.000000  0.810000 ScalE2=  1.000000  1.000000
 IRadAn=      5 IRanWt=     -1 IRanGd=            0 ICorTp=0 IEmpDi=  4
 NAtoms=   11 NActive=   11 NUniq=   11 SFac= 1.00D+00 NAtFMM=   60 NAOKFM=F Big=F
 Integral buffers will be    131072 words long.
 Raffenetti 2 integral format.
 Two-electron integral symmetry is turned on.
 Leave Link  301 at Tue Oct 15 21:35:55 2019, MaxMem=   280000000 cpu:               1.9 elap:               0.1
 (Enter /home/soft/g16/l302.exe)
 NPDir=0 NMtPBC=     1 NCelOv=     1 NCel=       1 NClECP=     1 NCelD=      1
         NCelK=      1 NCelE2=     1 NClLst=     1 CellRange=     0.0.
 One-electron integrals computed using PRISM.
 One-electron integral symmetry used in STVInt
 NBasis=   128 RedAO= T EigKep=  8.16D-05  NBF=   128
 NBsUse=   128 1.00D-06 EigRej= -1.00D+00 NBFU=   128
 Precomputing XC quadrature grid using
 IXCGrd= 4 IRadAn=           5 IRanWt=          -1 IRanGd=           0 AccXCQ= 0.00D+00.
 Generated NRdTot=       0 NPtTot=           0 NUsed=           0 NTot=          32
 NSgBfM=   133   133   133   133   133 MxSgAt=    11 MxSgA2=    11.
 Leave Link  302 at Tue Oct 15 21:35:56 2019, MaxMem=   280000000 cpu:               4.6 elap:               0.3
 (Enter /home/soft/g16/l303.exe)
 DipDrv:  MaxL=1.
 Leave Link  303 at Tue Oct 15 21:35:56 2019, MaxMem=   280000000 cpu:               1.8 elap:               0.1
 (Enter /home/soft/g16/l401.exe)
 ExpMin= 4.38D-02 ExpMax= 8.59D+03 ExpMxC= 1.30D+03 IAcc=3 IRadAn=         5 AccDes= 0.00D+00
 Harris functional with IExCor=  402 and IRadAn=       5 diagonalized for initial guess.
 HarFok:  IExCor=  402 AccDes= 0.00D+00 IRadAn=         5 IDoV= 1 UseB2=F ITyADJ=14
 ICtDFT=  3500011 ScaDFX=  1.000000  1.000000  1.000000  1.000000
 FoFCou: FMM=F IPFlag=           0 FMFlag=      100000 FMFlg1=           0
         NFxFlg=           0 DoJE=T BraDBF=F KetDBF=T FulRan=T
         wScrn=  0.000000 ICntrl=       500 IOpCl=  0 I1Cent=   200000004 NGrid=           0
         NMat0=    1 NMatS0=      1 NMatT0=    0 NMatD0=    1 NMtDS0=    0 NMtDT0=    0
 Petite list used in FoFCou.
 Harris En= -268.435523155860    
 JPrj=0 DoOrth=F DoCkMO=F.
 Leave Link  401 at Tue Oct 15 21:35:56 2019, MaxMem=   280000000 cpu:               8.3 elap:               0.4
 (Enter /home/soft/g16/l502.exe)
 Keep R1 ints in memory in canonical form, NReq=57089831.
 FoFCou: FMM=F IPFlag=           0 FMFlag=           0 FMFlg1=           0
         NFxFlg=           0 DoJE=F BraDBF=F KetDBF=F FulRan=T
         wScrn=  0.000000 ICntrl=       600 IOpCl=  0 I1Cent=           0 NGrid=           0
         NMat0=    1 NMatS0=   8256 NMatT0=    0 NMatD0=    1 NMtDS0=    0 NMtDT0=    0
 Symmetry not used in FoFCou.
 Two-electron integral symmetry not used.
 Closed shell SCF:
 Using DIIS extrapolation, IDIIS=  1040.
 NGot=   280000000 LenX=   245875069 LenY=   245856939
 Requested convergence on RMS density matrix=1.00D-08 within 128 cycles.
 Requested convergence on MAX density matrix=1.00D-06.
 Requested convergence on             energy=1.00D-06.
 No special actions if energy rises.

 Cycle   1  Pass 1  IDiag  1:
 E= -268.232655989344    
 DIIS: error= 2.61D-02 at cycle   1 NSaved=   1.
 NSaved= 1 IEnMin= 1 EnMin= -268.232655989344     IErMin= 1 ErrMin= 2.61D-02
 ErrMax= 2.61D-02  0.00D+00 EMaxC= 1.00D-01 BMatC= 2.09D-01 BMatP= 2.09D-01
 IDIUse=3 WtCom= 7.39D-01 WtEn= 2.61D-01
 Coeff-Com:  0.100D+01
 Coeff-En:   0.100D+01
 Coeff:      0.100D+01
 Gap=     0.115 Goal=   None    Shift=    0.000
 GapD=    0.115 DampG=1.000 DampE=0.500 DampFc=0.5000 IDamp=-1.
 Damping current iteration by 5.00D-01
 RMSDP=6.46D-03 MaxDP=1.35D-01              OVMax= 2.20D-01

 Cycle   2  Pass 1  IDiag  1:
 E= -268.282405005524     Delta-E=       -0.049749016180 Rises=F Damp=T
 DIIS: error= 1.65D-02 at cycle   2 NSaved=   2.
 NSaved= 2 IEnMin= 2 EnMin= -268.282405005524     IErMin= 2 ErrMin= 1.65D-02
 ErrMax= 1.65D-02  0.00D+00 EMaxC= 1.00D-01 BMatC= 2.36D-02 BMatP= 2.09D-01
 IDIUse=3 WtCom= 8.35D-01 WtEn= 1.65D-01
 Coeff-Com:  0.183D+00 0.817D+00
 Coeff-En:   0.317D+00 0.683D+00
 Coeff:      0.205D+00 0.795D+00
 Gap=     0.183 Goal=   None    Shift=    0.000
 RMSDP=1.73D-03 MaxDP=3.17D-02 DE=-4.97D-02 OVMax= 1.91D-01

 Cycle   3  Pass 1  IDiag  1:
 E= -268.376571282572     Delta-E=       -0.094166277047 Rises=F Damp=F
 DIIS: error= 1.95D-02 at cycle   3 NSaved=   3.
 NSaved= 3 IEnMin= 3 EnMin= -268.376571282572     IErMin= 2 ErrMin= 1.65D-02
 ErrMax= 1.95D-02  0.00D+00 EMaxC= 1.00D-01 BMatC= 2.32D-02 BMatP= 2.36D-02
 IDIUse=3 WtCom= 8.05D-01 WtEn= 1.95D-01
 Coeff-Com:  0.516D-01 0.500D+00 0.449D+00
 Coeff-En:   0.000D+00 0.000D+00 0.100D+01
 Coeff:      0.416D-01 0.402D+00 0.556D+00
 Gap=     0.194 Goal=   None    Shift=    0.000
 RMSDP=1.15D-03 MaxDP=2.41D-02 DE=-9.42D-02 OVMax= 6.99D-02

 Cycle   4  Pass 1  IDiag  1:
 E= -268.389180955743     Delta-E=       -0.012609673171 Rises=F Damp=F
 DIIS: error= 1.10D-02 at cycle   4 NSaved=   4.
 NSaved= 4 IEnMin= 4 EnMin= -268.389180955743     IErMin= 4 ErrMin= 1.10D-02
 ErrMax= 1.10D-02  0.00D+00 EMaxC= 1.00D-01 BMatC= 7.92D-03 BMatP= 2.32D-02
 IDIUse=3 WtCom= 8.90D-01 WtEn= 1.10D-01
 Coeff-Com:  0.618D-02 0.867D-01 0.371D+00 0.536D+00
 Coeff-En:   0.000D+00 0.000D+00 0.292D+00 0.708D+00
 Coeff:      0.550D-02 0.771D-01 0.362D+00 0.555D+00
 Gap=     0.185 Goal=   None    Shift=    0.000
 RMSDP=4.75D-04 MaxDP=9.40D-03 DE=-1.26D-02 OVMax= 2.44D-02

 Cycle   5  Pass 1  IDiag  1:
 E= -268.395101735093     Delta-E=       -0.005920779350 Rises=F Damp=F
 DIIS: error= 1.03D-03 at cycle   5 NSaved=   5.
 NSaved= 5 IEnMin= 5 EnMin= -268.395101735093     IErMin= 5 ErrMin= 1.03D-03
 ErrMax= 1.03D-03  0.00D+00 EMaxC= 1.00D-01 BMatC= 1.85D-04 BMatP= 7.92D-03
 IDIUse=3 WtCom= 9.90D-01 WtEn= 1.03D-02
 Coeff-Com:  0.534D-03 0.133D-01 0.166D+00 0.300D+00 0.520D+00
 Coeff-En:   0.000D+00 0.000D+00 0.000D+00 0.000D+00 0.100D+01
 Coeff:      0.528D-03 0.131D-01 0.164D+00 0.297D+00 0.525D+00
 Gap=     0.186 Goal=   None    Shift=    0.000
 RMSDP=9.30D-05 MaxDP=2.54D-03 DE=-5.92D-03 OVMax= 6.47D-03

 Cycle   6  Pass 1  IDiag  1:
 E= -268.395255098654     Delta-E=       -0.000153363561 Rises=F Damp=F
 DIIS: error= 3.36D-04 at cycle   6 NSaved=   6.
 NSaved= 6 IEnMin= 6 EnMin= -268.395255098654     IErMin= 6 ErrMin= 3.36D-04
 ErrMax= 3.36D-04  0.00D+00 EMaxC= 1.00D-01 BMatC= 1.38D-05 BMatP= 1.85D-04
 IDIUse=3 WtCom= 9.97D-01 WtEn= 3.36D-03
 Coeff-Com:  0.722D-04-0.197D-02 0.487D-01 0.968D-01 0.272D+00 0.584D+00
 Coeff-En:   0.000D+00 0.000D+00 0.000D+00 0.000D+00 0.111D-01 0.989D+00
 Coeff:      0.720D-04-0.196D-02 0.485D-01 0.965D-01 0.272D+00 0.585D+00
 Gap=     0.186 Goal=   None    Shift=    0.000
 RMSDP=3.37D-05 MaxDP=6.85D-04 DE=-1.53D-04 OVMax= 2.14D-03

 Cycle   7  Pass 1  IDiag  1:
 E= -268.395267347150     Delta-E=       -0.000012248496 Rises=F Damp=F
 DIIS: error= 1.04D-04 at cycle   7 NSaved=   7.
 NSaved= 7 IEnMin= 7 EnMin= -268.395267347150     IErMin= 7 ErrMin= 1.04D-04
 ErrMax= 1.04D-04  0.00D+00 EMaxC= 1.00D-01 BMatC= 1.31D-06 BMatP= 1.38D-05
 IDIUse=3 WtCom= 9.99D-01 WtEn= 1.04D-03
 Coeff-Com:  0.125D-03-0.212D-02 0.185D-01 0.378D-01 0.126D+00 0.329D+00
 Coeff-Com:  0.491D+00
 Coeff-En:   0.000D+00 0.000D+00 0.000D+00 0.000D+00 0.000D+00 0.000D+00
 Coeff-En:   0.100D+01
 Coeff:      0.125D-03-0.212D-02 0.185D-01 0.378D-01 0.125D+00 0.328D+00
 Coeff:      0.492D+00
 Gap=     0.186 Goal=   None    Shift=    0.000
 RMSDP=8.79D-06 MaxDP=1.36D-04 DE=-1.22D-05 OVMax= 5.78D-04

 Cycle   8  Pass 1  IDiag  1:
 E= -268.395268344042     Delta-E=       -0.000000996892 Rises=F Damp=F
 DIIS: error= 4.17D-05 at cycle   8 NSaved=   8.
 NSaved= 8 IEnMin= 8 EnMin= -268.395268344042     IErMin= 8 ErrMin= 4.17D-05
 ErrMax= 4.17D-05  0.00D+00 EMaxC= 1.00D-01 BMatC= 1.56D-07 BMatP= 1.31D-06
 IDIUse=1 WtCom= 1.00D+00 WtEn= 0.00D+00
 Coeff-Com:  0.162D-03-0.982D-03 0.375D-02 0.781D-02 0.321D-01 0.100D+00
 Coeff-Com:  0.280D+00 0.577D+00
 Coeff:      0.162D-03-0.982D-03 0.375D-02 0.781D-02 0.321D-01 0.100D+00
 Coeff:      0.280D+00 0.577D+00
 Gap=     0.186 Goal=   None    Shift=    0.000
 RMSDP=2.76D-06 MaxDP=4.66D-05 DE=-9.97D-07 OVMax= 1.56D-04

 Cycle   9  Pass 1  IDiag  1:
 E= -268.395268456506     Delta-E=       -0.000000112464 Rises=F Damp=F
 DIIS: error= 6.11D-06 at cycle   9 NSaved=   9.
 NSaved= 9 IEnMin= 9 EnMin= -268.395268456506     IErMin= 9 ErrMin= 6.11D-06
 ErrMax= 6.11D-06  0.00D+00 EMaxC= 1.00D-01 BMatC= 8.47D-09 BMatP= 1.56D-07
 IDIUse=1 WtCom= 1.00D+00 WtEn= 0.00D+00
 Coeff-Com:  0.734D-04-0.288D-03 0.608D-04 0.115D-03 0.285D-02 0.135D-01
 Coeff-Com:  0.746D-01 0.261D+00 0.648D+00
 Coeff:      0.734D-04-0.288D-03 0.608D-04 0.115D-03 0.285D-02 0.135D-01
 Coeff:      0.746D-01 0.261D+00 0.648D+00
 Gap=     0.186 Goal=   None    Shift=    0.000
 RMSDP=5.96D-07 MaxDP=1.95D-05 DE=-1.12D-07 OVMax= 3.59D-05

 Cycle  10  Pass 1  IDiag  1:
 E= -268.395268464009     Delta-E=       -0.000000007502 Rises=F Damp=F
 DIIS: error= 1.50D-06 at cycle  10 NSaved=  10.
 NSaved=10 IEnMin=10 EnMin= -268.395268464009     IErMin=10 ErrMin= 1.50D-06
 ErrMax= 1.50D-06  0.00D+00 EMaxC= 1.00D-01 BMatC= 3.50D-10 BMatP= 8.47D-09
 IDIUse=1 WtCom= 1.00D+00 WtEn= 0.00D+00
 Coeff-Com:  0.178D-04-0.449D-04-0.154D-03-0.358D-03-0.838D-03-0.927D-03
 Coeff-Com:  0.865D-02 0.621D-01 0.247D+00 0.684D+00
 Coeff:      0.178D-04-0.449D-04-0.154D-03-0.358D-03-0.838D-03-0.927D-03
 Coeff:      0.865D-02 0.621D-01 0.247D+00 0.684D+00
 Gap=     0.186 Goal=   None    Shift=    0.000
 RMSDP=2.10D-07 MaxDP=3.64D-06 DE=-7.50D-09 OVMax= 5.00D-06

 Cycle  11  Pass 1  IDiag  1:
 E= -268.395268464369     Delta-E=       -0.000000000360 Rises=F Damp=F
 DIIS: error= 1.57D-07 at cycle  11 NSaved=  11.
 NSaved=11 IEnMin=11 EnMin= -268.395268464369     IErMin=11 ErrMin= 1.57D-07
 ErrMax= 1.57D-07  0.00D+00 EMaxC= 1.00D-01 BMatC= 7.60D-12 BMatP= 3.50D-10
 IDIUse=1 WtCom= 1.00D+00 WtEn= 0.00D+00
 Coeff-Com: -0.191D-05 0.489D-05-0.137D-04-0.480D-04-0.230D-03-0.485D-03
 Coeff-Com: -0.257D-02-0.247D-02 0.224D-02 0.100D+00 0.903D+00
 Coeff:     -0.191D-05 0.489D-05-0.137D-04-0.480D-04-0.230D-03-0.485D-03
 Coeff:     -0.257D-02-0.247D-02 0.224D-02 0.100D+00 0.903D+00
 Gap=     0.186 Goal=   None    Shift=    0.000
 RMSDP=3.01D-08 MaxDP=4.32D-07 DE=-3.60D-10 OVMax= 1.02D-06

 Cycle  12  Pass 1  IDiag  1:
 E= -268.395268464376     Delta-E=       -0.000000000008 Rises=F Damp=F
 DIIS: error= 3.83D-08 at cycle  12 NSaved=  12.
 NSaved=12 IEnMin=12 EnMin= -268.395268464376     IErMin=12 ErrMin= 3.83D-08
 ErrMax= 3.83D-08  0.00D+00 EMaxC= 1.00D-01 BMatC= 1.82D-13 BMatP= 7.60D-12
 IDIUse=1 WtCom= 1.00D+00 WtEn= 0.00D+00
 Coeff-Com: -0.561D-06 0.131D-05 0.695D-06-0.295D-05-0.307D-04-0.512D-04
 Coeff-Com: -0.631D-03-0.155D-02-0.517D-02 0.361D-02 0.145D+00 0.859D+00
 Coeff:     -0.561D-06 0.131D-05 0.695D-06-0.295D-05-0.307D-04-0.512D-04
 Coeff:     -0.631D-03-0.155D-02-0.517D-02 0.361D-02 0.145D+00 0.859D+00
 Gap=     0.186 Goal=   None    Shift=    0.000
 RMSDP=6.22D-09 MaxDP=7.92D-08 DE=-7.50D-12 OVMax= 1.62D-07

 SCF Done:  E(RB3LYP) =  -268.395268464     A.U. after   12 cycles
            NFock= 12  Conv=0.62D-08     -V/T= 2.0034
 KE= 2.674761047114D+02 PE=-9.616347152920D+02 EE= 2.594013465146D+02
 Leave Link  502 at Tue Oct 15 21:35:59 2019, MaxMem=   280000000 cpu:              54.6 elap:               2.9
 (Enter /home/soft/g16/l601.exe)
 Copying SCF densities to generalized density rwf, IOpCl= 0 IROHF=0.

 **********************************************************************

            Population analysis using the SCF density.

 **********************************************************************

 Orbital symmetries:
       Occupied  (A) (A) (A) (A) (A) (A) (A) (A) (A) (A) (A) (A)
                 (A) (A) (A) (A) (A) (A) (A) (A)
       Virtual   (A) (A) (A) (A) (A) (A) (A) (A) (A) (A) (A) (A)
                 (A) (A) (A) (A) (A) (A) (A) (A) (A) (A) (A) (A)
                 (A) (A) (A) (A) (A) (A) (A) (A) (A) (A) (A) (A)
                 (A) (A) (A) (A) (A) (A) (A) (A) (A) (A) (A) (A)
                 (A) (A) (A) (A) (A) (A) (A) (A) (A) (A) (A) (A)
                 (A) (A) (A) (A) (A) (A) (A) (A) (A) (A) (A) (A)
                 (A) (A) (A) (A) (A) (A) (A) (A) (A) (A) (A) (A)
                 (A) (A) (A) (A) (A) (A) (A) (A) (A) (A) (A) (A)
                 (A) (A) (A) (A) (A) (A) (A) (A) (A) (A) (A) (A)
 The electronic state is 1-A.
 Alpha  occ. eigenvalues --  -19.15882 -19.14944 -10.28126 -10.24150 -10.16762
 Alpha  occ. eigenvalues --   -1.08171  -1.07008  -0.76424  -0.64822  -0.63437
 Alpha  occ. eigenvalues --   -0.51752  -0.50614  -0.49353  -0.47135  -0.43157
 Alpha  occ. eigenvalues --   -0.39907  -0.39209  -0.36885  -0.28575  -0.24930
 Alpha virt. eigenvalues --   -0.06305   0.00503   0.00585   0.02233   0.02566
 Alpha virt. eigenvalues --    0.03476   0.05510   0.06354   0.07212   0.07571
 Alpha virt. eigenvalues --    0.08879   0.10715   0.12568   0.14398   0.14949
 Alpha virt. eigenvalues --    0.15964   0.17631   0.18186   0.19332   0.20571
 Alpha virt. eigenvalues --    0.21536   0.23005   0.24383   0.27126   0.27362
 Alpha virt. eigenvalues --    0.29026   0.31157   0.31608   0.34677   0.35534
 Alpha virt. eigenvalues --    0.37931   0.43230   0.45905   0.48168   0.49167
 Alpha virt. eigenvalues --    0.50682   0.52960   0.55504   0.59754   0.62109
 Alpha virt. eigenvalues --    0.64433   0.64661   0.66523   0.67805   0.73428
 Alpha virt. eigenvalues --    0.77574   0.77907   0.88828   0.90537   1.02020
 Alpha virt. eigenvalues --    1.03469   1.04445   1.08658   1.12920   1.15488
 Alpha virt. eigenvalues --    1.19036   1.23703   1.27539   1.37839   1.42258
 Alpha virt. eigenvalues --    1.44511   1.46523   1.49151   1.55228   1.55667
 Alpha virt. eigenvalues --    1.61134   1.71687   1.75268   1.91089   1.94419
 Alpha virt. eigenvalues --    2.03485   2.17313   2.25602   2.34892   2.35906
 Alpha virt. eigenvalues --    2.41900   2.45464   2.64433   2.67057   2.67604
 Alpha virt. eigenvalues --    2.77456   2.83273   2.85512   2.88329   3.01729
 Alpha virt. eigenvalues --    3.08896   3.12844   3.16493   3.20574   3.25869
 Alpha virt. eigenvalues --    3.27046   3.32414   3.36311   3.37505   3.56702
 Alpha virt. eigenvalues --    3.78791   3.97633   4.94645   5.01365   5.04440
 Alpha virt. eigenvalues --    5.12269   5.54467   5.58823  23.39546  23.69076
 Alpha virt. eigenvalues --   24.15416  49.85027  49.87780
          Condensed to atoms (all electrons):
               1          2          3          4          5          6
     1  C    5.034646   0.364487   0.349240   0.456069  -0.046021  -0.011603
     2  H    0.364487   0.471066  -0.062172  -0.011860   0.004143  -0.002942
     3  O    0.349240  -0.062172   7.949122  -0.137366  -0.007254   0.006665
     4  C    0.456069  -0.011860  -0.137366   5.579751   0.391009   0.361864
     5  H   -0.046021   0.004143  -0.007254   0.391009   0.442871  -0.023130
     6  H   -0.011603  -0.002942   0.006665   0.361864  -0.023130   0.440676
     7  C    0.021074   0.000373  -0.002138  -0.053206   0.005631   0.000781
     8  H    0.004005  -0.000053   0.002109  -0.006801  -0.002590  -0.000177
     9  H   -0.002996   0.000089  -0.003246  -0.003151   0.000662   0.000286
    10  O    0.017173  -0.000611   0.007022  -0.047327   0.002566   0.000651
    11  H    0.006274   0.008812   0.222771  -0.038258   0.002744   0.000832
               7          8          9         10         11
     1  C    0.021074   0.004005  -0.002996   0.017173   0.006274
     2  H    0.000373  -0.000053   0.000089  -0.000611   0.008812
     3  O   -0.002138   0.002109  -0.003246   0.007022   0.222771
     4  C   -0.053206  -0.006801  -0.003151  -0.047327  -0.038258
     5  H    0.005631  -0.002590   0.000662   0.002566   0.002744
     6  H    0.000781  -0.000177   0.000286   0.000651   0.000832
     7  C    5.160049   0.364232   0.373781   0.357338   0.000153
     8  H    0.364232   0.602767  -0.095173  -0.077911  -0.001169
     9  H    0.373781  -0.095173   0.580535  -0.069707   0.001228
    10  O    0.357338  -0.077911  -0.069707   8.051787   0.007867
    11  H    0.000153  -0.001169   0.001228   0.007867   0.416590
 Mulliken charges:
               1
     1  C   -0.192348
     2  H    0.228668
     3  O   -0.324753
     4  C   -0.490724
     5  H    0.229367
     6  H    0.226098
     7  C   -0.228068
     8  H    0.210761
     9  H    0.217691
    10  O   -0.248848
    11  H    0.372156
 Sum of Mulliken charges =  -0.00000
 Mulliken charges with hydrogens summed into heavy atoms:
               1
     1  C    0.036320
     3  O    0.047403
     4  C   -0.035259
     7  C    0.200384
    10  O   -0.248848
 Electronic spatial extent (au):  <R**2>=            507.8150
 Charge=             -0.0000 electrons
 Dipole moment (field-independent basis, Debye):
    X=              0.6129    Y=              2.5039    Z=              0.8419  Tot=              2.7118
 Quadrupole moment (field-independent basis, Debye-Ang):
   XX=            -31.9827   YY=            -32.3346   ZZ=            -29.6391
   XY=              1.3985   XZ=              0.3619   YZ=              1.0340
 Traceless Quadrupole moment (field-independent basis, Debye-Ang):
   XX=             -0.6639   YY=             -1.0158   ZZ=              1.6797
   XY=              1.3985   XZ=              0.3619   YZ=              1.0340
 Octapole moment (field-independent basis, Debye-Ang**2):
  XXX=              6.2028  YYY=             -1.0625  ZZZ=              0.5524  XYY=              4.2233
  XXY=              6.5847  XXZ=             10.0487  XZZ=              1.1956  YZZ=             -2.9805
  YYZ=             -2.6697  XYZ=             -1.3966
 Hexadecapole moment (field-independent basis, Debye-Ang**3):
 XXXX=           -407.7983 YYYY=           -183.0238 ZZZZ=            -65.8019 XXXY=             13.9660
 XXXZ=             -7.0511 YYYX=             -5.4512 YYYZ=              4.9297 ZZZX=             -2.4300
 ZZZY=              1.4929 XXYY=           -102.1916 XXZZ=            -78.0209 YYZZ=            -41.9967
 XXYZ=              1.7280 YYXZ=             -2.1673 ZZXY=              3.2138
 N-N= 1.663619956016D+02 E-N=-9.616347156401D+02  KE= 2.674761047114D+02
 No NMR shielding tensors so no spin-rotation constants.
 Leave Link  601 at Tue Oct 15 21:35:59 2019, MaxMem=   280000000 cpu:               3.5 elap:               0.2
 (Enter /home/soft/g16/l701.exe)
 ... and contract with generalized density number  0.
 Compute integral first derivatives.
 Leave Link  701 at Tue Oct 15 21:35:59 2019, MaxMem=   280000000 cpu:               2.3 elap:               0.1
 (Enter /home/soft/g16/l702.exe)
 L702 exits ... SP integral derivatives will be done elsewhere.
 Leave Link  702 at Tue Oct 15 21:35:59 2019, MaxMem=   280000000 cpu:               0.4 elap:               0.0
 (Enter /home/soft/g16/l703.exe)
 Integral derivatives from FoFJK, PRISM(SPDF).
 Compute integral first derivatives, UseDBF=F ICtDFT=           0.
 Calling FoFJK, ICntrl=      2127 FMM=F ISym2X=0 I1Cent= 0 IOpClX= 0 NMat=1 NMatS=1 NMatT=0.
 FoFJK:  IHMeth= 1 ICntrl=    2127 DoSepK=F KAlg= 0 I1Cent=           0 FoldK=F
 IRaf=         0 NMat=       1 IRICut=       1 DoRegI=T DoRafI=F ISym2E= 0 IDoP0=0 IntGTp=1.
 FoFCou: FMM=F IPFlag=           0 FMFlag=      100000 FMFlg1=         800
         NFxFlg=           0 DoJE=F BraDBF=F KetDBF=F FulRan=T
         wScrn=  0.000000 ICntrl=      2127 IOpCl=  0 I1Cent=           0 NGrid=           0
         NMat0=    1 NMatS0=      1 NMatT0=    0 NMatD0=    1 NMtDS0=    0 NMtDT0=    0
 Symmetry not used in FoFCou.
 Leave Link  703 at Tue Oct 15 21:36:00 2019, MaxMem=   280000000 cpu:              15.9 elap:               0.7
 (Enter /home/soft/g16/l716.exe)
 Dipole        = 2.41117792D-01 9.85093966D-01 3.31223185D-01
 ***** Axes restored to original set *****
 -------------------------------------------------------------------
 Center     Atomic                   Forces (Hartrees/Bohr)
 Number     Number              X              Y              Z
 -------------------------------------------------------------------
      1        6          -0.002006998    0.000255325   -0.000577687
      2        1           0.000085576   -0.000129647   -0.000156534
      3        8           0.000191318    0.000163629    0.000464855
      4        6          -0.000120131    0.000787850   -0.002097950
      5        1          -0.001470201    0.000381680    0.001915220
      6        1           0.000499240   -0.000800835   -0.000168775
      7        6           0.003421913    0.002473686    0.005306359
      8        1           0.000252644    0.001682676   -0.000990108
      9        1          -0.000628286    0.000350316    0.000476421
     10        8           0.000329565   -0.005309386   -0.004618098
     11        1          -0.000554640    0.000144704    0.000446298
 -------------------------------------------------------------------
 Cartesian Forces:  Max     0.005309386 RMS     0.001886513
 Leave Link  716 at Tue Oct 15 21:36:00 2019, MaxMem=   280000000 cpu:               0.6 elap:               0.0
 (Enter /home/soft/g16/l103.exe)

 GradGradGradGradGradGradGradGradGradGradGradGradGradGradGradGradGradGrad
 Berny optimization.
 FormGI is forming the generalized inverse of G from B-inverse, IUseBI=4.
 Internal  Forces:  Max     0.007635958 RMS     0.002723582
 Search for a local minimum.
 Step number   1 out of a maximum of   43
 All quantities printed in internal units (Hartrees-Bohrs-Radians)
 RMS Force = .27236D-02 SwitMx=.10000D-02 MixMth= 1
 Mixed Optimization -- RFO/linear search
 Second derivative matrix not updated -- first step.
 ITU=  0
     Eigenvalues ---    0.00230   0.01423   0.01695   0.02342   0.02743
     Eigenvalues ---    0.02908   0.02933   0.03567   0.04289   0.15994
     Eigenvalues ---    0.16000   0.16000   0.16000   0.16000   0.16000
     Eigenvalues ---    0.16000   0.22000   0.25000   0.33202   0.33419
     Eigenvalues ---    0.35085   0.35296   0.35518   0.53350   0.54834
     Eigenvalues ---    0.57637   1.02997
 RFO step:  Lambda=-4.90222833D-03 EMin= 2.30000000D-03
 Linear search not attempted -- first point.
 Iteration  1 RMS(Cart)=  0.29995106 RMS(Int)=  0.05224258
 Iteration  2 RMS(Cart)=  0.28784143 RMS(Int)=  0.01903553
 Iteration  3 RMS(Cart)=  0.04143221 RMS(Int)=  0.00033045
 Iteration  4 RMS(Cart)=  0.00087623 RMS(Int)=  0.00004029
 Iteration  5 RMS(Cart)=  0.00000020 RMS(Int)=  0.00004029
 ITry= 1 IFail=0 DXMaxC= 1.35D+00 DCOld= 1.00D+10 DXMaxT= 3.00D-01 DXLimC= 3.00D+00 Rises=F
 Variable       Old X    -DE/DX   Delta X   Delta X   Delta X     New X
                                 (Linear)    (Quad)   (Total)
    R1        2.05196  -0.00019   0.00000  -0.00054  -0.00054   2.05143
    R2        2.55280   0.00069   0.00000   0.00125   0.00125   2.55405
    R3        2.52861  -0.00001   0.00000  -0.00002  -0.00002   2.52858
    R4        1.83329   0.00205   0.00000   0.00382   0.00382   1.83710
    R5        2.05537  -0.00244   0.00000  -0.00687  -0.00687   2.04850
    R6        2.04842  -0.00091   0.00000  -0.00253  -0.00253   2.04589
    R7        2.08322   0.00191   0.00000   0.00563   0.00563   2.08885
    R8        2.08697   0.00061   0.00000   0.00180   0.00180   2.08877
    R9        2.27462   0.00666   0.00000   0.00644   0.00644   2.28105
   R10        4.00170   0.00315   0.00000   0.07772   0.07772   4.07942
    A1        1.92855  -0.00055   0.00000  -0.00265  -0.00268   1.92587
    A2        2.12485  -0.00035   0.00000  -0.00143  -0.00147   2.12338
    A3        2.22975   0.00089   0.00000   0.00395   0.00392   2.23366
    A4        1.94486   0.00628   0.00000   0.03806   0.03806   1.98291
    A5        2.14216  -0.00003   0.00000  -0.00005  -0.00005   2.14210
    A6        2.08497   0.00018   0.00000   0.00125   0.00124   2.08621
    A7        2.05260  -0.00014   0.00000  -0.00069  -0.00070   2.05190
    A8        2.02673  -0.00004   0.00000   0.00006  -0.00007   2.02667
    A9        2.13054  -0.00025   0.00000  -0.00112  -0.00124   2.12929
   A10        2.12493   0.00032   0.00000   0.00228   0.00215   2.12709
   A11        1.93799   0.00445   0.00000   0.02699   0.02699   1.96498
   A12        2.27746   0.00681   0.00000   0.02671   0.02671   2.30417
    D1       -2.87559   0.00081   0.00000   0.02970   0.02970  -2.84588
    D2        0.27502   0.00132   0.00000   0.04553   0.04553   0.32054
    D3       -3.06715   0.00028   0.00000   0.00884   0.00884  -3.05831
    D4       -0.01693   0.00051   0.00000   0.01547   0.01547  -0.00147
    D5        0.06452  -0.00028   0.00000  -0.00860  -0.00860   0.05593
    D6        3.11474  -0.00005   0.00000  -0.00197  -0.00197   3.11277
    D7        1.10340   0.00764   0.00000   0.39902   0.39902   1.50242
    D8       -3.09488  -0.00064   0.00000  -0.02915  -0.02916  -3.12404
    D9       -1.86402   0.00023   0.00000   0.01327   0.01326  -1.85077
   D10        1.32707  -0.00045   0.00000  -0.01766  -0.01766   1.30941
   D11       -0.61486   0.00248   0.00000   0.34424   0.34424  -0.27062
         Item               Value     Threshold  Converged?
 Maximum Force            0.007636     0.000450     NO 
 RMS     Force            0.002724     0.000300     NO 
 Maximum Displacement     1.352304     0.001800     NO 
 RMS     Displacement     0.609253     0.001200     NO 
 Predicted change in Energy=-3.165689D-03
 Lowest energy point so far.  Saving SCF results.
 GradGradGradGradGradGradGradGradGradGradGradGradGradGradGradGradGradGrad

 Leave Link  103 at Tue Oct 15 21:36:00 2019, MaxMem=   280000000 cpu:               2.3 elap:               0.1
 (Enter /home/soft/g16/l202.exe)
                          Input orientation:                          
 ---------------------------------------------------------------------
 Center     Atomic      Atomic             Coordinates (Angstroms)
 Number     Number       Type             X           Y           Z
 ---------------------------------------------------------------------
      1          6           0       -1.491146    0.516688    0.168751
      2          1           0       -2.074955    0.704665    1.064457
      3          8           0       -1.047505   -0.759910    0.156345
      4          6           0       -1.306726    1.461571   -0.760556
      5          1           0       -0.791667    1.271763   -1.695324
      6          1           0       -1.749427    2.439811   -0.622125
      7          6           0        2.130577   -0.013670    0.674297
      8          1           0        2.493953    1.025352    0.573100
      9          1           0        2.085603   -0.415434    1.703042
     10          8           0        1.818575   -0.678359   -0.283769
     11          1           0       -0.319333   -0.913034   -0.469276
 ---------------------------------------------------------------------
                    Distance matrix (angstroms):
                    1          2          3          4          5
     1  C    0.000000
     2  H    1.085568   0.000000
     3  O    1.351545   2.006316   0.000000
     4  C    1.338068   2.119848   2.417205   0.000000
     5  H    2.129362   3.095936   2.760765   1.084022   0.000000
     6  H    2.095375   2.441569   3.367036   1.082637   1.852943
     7  C    3.695097   4.284243   3.305352   4.006269   3.975795
     8  H    4.037729   4.606429   3.987827   4.051429   4.000220
     9  H    4.002004   4.355761   3.511026   4.593513   4.761744
    10  O    3.547839   4.346268   2.900821   3.817608   3.550891
    11  H    1.955589   2.837516   0.972153   2.588153   2.549437
                    6          7          8          9         10
     6  H    0.000000
     7  C    4.770190   0.000000
     8  H    4.629852   1.105373   0.000000
     9  H    5.316605   1.105330   1.876003   0.000000
    10  O    4.750590   1.207082   2.023115   2.021844   0.000000
    11  H    3.648301   2.849329   3.571900   3.278764   2.158735
                   11
    11  H    0.000000
 Stoichiometry    C3H6O2
 Framework group  C1[X(C3H6O2)]
 Deg. of freedom    27
 Full point group                 C1      NOp   1
 RotChk:  IX=0 Diff= 4.33D-01
 Largest Abelian subgroup         C1      NOp   1
 Largest concise Abelian subgroup C1      NOp   1
                         Standard orientation:                         
 ---------------------------------------------------------------------
 Center     Atomic      Atomic             Coordinates (Angstroms)
 Number     Number       Type             X           Y           Z
 ---------------------------------------------------------------------
      1          6           0       -1.545231   -0.188872    0.361605
      2          1           0       -2.019399   -0.469320    1.297005
      3          8           0       -0.747706   -1.187227   -0.078753
      4          6           0       -1.790759    0.988443   -0.224971
      5          1           0       -1.386643    1.255785   -1.194672
      6          1           0       -2.479710    1.682598    0.239354
      7          6           0        2.102713    0.383184    0.499408
      8          1           0        2.120240    1.466545    0.718207
      9          1           0        2.332309   -0.288200    1.346925
     10          8           0        1.865301   -0.042598   -0.604853
     11          1           0       -0.107896   -0.905336   -0.754226
 ---------------------------------------------------------------------
 Rotational constants (GHZ):           8.2525229           2.2536043           2.0117799
 Leave Link  202 at Tue Oct 15 21:36:00 2019, MaxMem=   280000000 cpu:               0.3 elap:               0.0
 (Enter /home/soft/g16/l301.exe)
 Standard basis: 6-311+G(d) (5D, 7F)
 Ernie: Thresh=  0.10000D-02 Tol=  0.10000D-05 Strict=F.
 There are   133 symmetry adapted cartesian basis functions of A   symmetry.
 There are   128 symmetry adapted basis functions of A   symmetry.
   128 basis functions,   210 primitive gaussians,   133 cartesian basis functions
    20 alpha electrons       20 beta electrons
       nuclear repulsion energy       159.1507338547 Hartrees.
 IExCor=  402 DFT=T Ex+Corr=B3LYP ExCW=0 ScaHFX=  0.200000
 ScaDFX=  0.800000  0.720000  1.000000  0.810000 ScalE2=  1.000000  1.000000
 IRadAn=      5 IRanWt=     -1 IRanGd=            0 ICorTp=0 IEmpDi=  4
 NAtoms=   11 NActive=   11 NUniq=   11 SFac= 1.00D+00 NAtFMM=   60 NAOKFM=F Big=F
 Integral buffers will be    131072 words long.
 Raffenetti 2 integral format.
 Two-electron integral symmetry is turned on.
 Leave Link  301 at Tue Oct 15 21:36:00 2019, MaxMem=   280000000 cpu:               1.2 elap:               0.1
 (Enter /home/soft/g16/l302.exe)
 NPDir=0 NMtPBC=     1 NCelOv=     1 NCel=       1 NClECP=     1 NCelD=      1
         NCelK=      1 NCelE2=     1 NClLst=     1 CellRange=     0.0.
 One-electron integrals computed using PRISM.
 One-electron integral symmetry used in STVInt
 NBasis=   128 RedAO= T EigKep=  9.58D-05  NBF=   128
 NBsUse=   128 1.00D-06 EigRej= -1.00D+00 NBFU=   128
 Precomputing XC quadrature grid using
 IXCGrd= 4 IRadAn=           5 IRanWt=          -1 IRanGd=           0 AccXCQ= 0.00D+00.
 Generated NRdTot=       0 NPtTot=           0 NUsed=           0 NTot=          32
 NSgBfM=   133   133   133   133   133 MxSgAt=    11 MxSgA2=    11.
 Leave Link  302 at Tue Oct 15 21:36:01 2019, MaxMem=   280000000 cpu:               3.1 elap:               0.2
 (Enter /home/soft/g16/l303.exe)
 DipDrv:  MaxL=1.
 Leave Link  303 at Tue Oct 15 21:36:01 2019, MaxMem=   280000000 cpu:               1.5 elap:               0.1
 (Enter /home/soft/g16/l401.exe)
 Initial guess from the checkpoint file:  "irc32r.chk"
 B after Tr=     0.000000    0.000000   -0.000000
         Rot=    0.990479   -0.107947   -0.032859   -0.078866 Ang= -15.83 deg.
 Guess basis will be translated and rotated to current coordinates.
 JPrj=2 DoOrth=T DoCkMO=T.
 Generating alternative initial guess.
 ExpMin= 4.38D-02 ExpMax= 8.59D+03 ExpMxC= 1.30D+03 IAcc=2 IRadAn=         4 AccDes= 0.00D+00
 Harris functional with IExCor=  402 and IRadAn=       4 diagonalized for initial guess.
 HarFok:  IExCor=  402 AccDes= 0.00D+00 IRadAn=         4 IDoV= 1 UseB2=F ITyADJ=14
 ICtDFT=  3500011 ScaDFX=  1.000000  1.000000  1.000000  1.000000
 FoFCou: FMM=F IPFlag=           0 FMFlag=      100000 FMFlg1=           0
         NFxFlg=           0 DoJE=T BraDBF=F KetDBF=T FulRan=T
         wScrn=  0.000000 ICntrl=       500 IOpCl=  0 I1Cent=   200000004 NGrid=           0
         NMat0=    1 NMatS0=      1 NMatT0=    0 NMatD0=    1 NMtDS0=    0 NMtDT0=    0
 Petite list used in FoFCou.
 Harris En= -268.438344953967    
 Leave Link  401 at Tue Oct 15 21:36:01 2019, MaxMem=   280000000 cpu:               7.3 elap:               0.3
 (Enter /home/soft/g16/l502.exe)
 Keep R1 ints in memory in canonical form, NReq=57089831.
 FoFCou: FMM=F IPFlag=           0 FMFlag=           0 FMFlg1=           0
         NFxFlg=           0 DoJE=F BraDBF=F KetDBF=F FulRan=T
         wScrn=  0.000000 ICntrl=       600 IOpCl=  0 I1Cent=           0 NGrid=           0
         NMat0=    1 NMatS0=   8256 NMatT0=    0 NMatD0=    1 NMtDS0=    0 NMtDT0=    0
 Symmetry not used in FoFCou.
 Two-electron integral symmetry not used.
 Closed shell SCF:
 Using DIIS extrapolation, IDIIS=  1040.
 NGot=   280000000 LenX=   245875069 LenY=   245856939
 Requested convergence on RMS density matrix=1.00D-08 within 128 cycles.
 Requested convergence on MAX density matrix=1.00D-06.
 Requested convergence on             energy=1.00D-06.
 No special actions if energy rises.

 Cycle   1  Pass 1  IDiag  1:
 E= -268.117063514060    
 DIIS: error= 3.10D-02 at cycle   1 NSaved=   1.
 NSaved= 1 IEnMin= 1 EnMin= -268.117063514060     IErMin= 1 ErrMin= 3.10D-02
 ErrMax= 3.10D-02  0.00D+00 EMaxC= 1.00D-01 BMatC= 1.65D-01 BMatP= 1.65D-01
 IDIUse=3 WtCom= 6.90D-01 WtEn= 3.10D-01
 Coeff-Com:  0.100D+01
 Coeff-En:   0.100D+01
 Coeff:      0.100D+01
 Recover alternate guess density for next cycle.
 RMSDP=5.81D-03 MaxDP=7.14D-02              OVMax= 0.00D+00

 Cycle   2  Pass 1  IDiag  1:
 E= -268.227877360419     Delta-E=       -0.110813846359 Rises=F Damp=F
 DIIS: error= 3.34D-02 at cycle   2 NSaved=   2.
 NSaved= 2 IEnMin= 2 EnMin= -268.227877360419     IErMin= 1 ErrMin= 3.10D-02
 ErrMax= 3.34D-02  0.00D+00 EMaxC= 1.00D-01 BMatC= 2.12D-01 BMatP= 1.65D-01
 IDIUse=2 WtCom= 0.00D+00 WtEn= 1.00D+00
 Coeff-En:   0.000D+00 0.100D+01
 Coeff:      0.000D+00 0.100D+01
 Gap=     0.080 Goal=   None    Shift=    0.000
 RMSDP=6.43D-03 MaxDP=1.38D-01 DE=-1.11D-01 OVMax= 2.44D-01

 Cycle   3  Pass 1  IDiag  1:
 E= -268.035096984109     Delta-E=        0.192780376310 Rises=F Damp=F
 DIIS: error= 6.34D-02 at cycle   3 NSaved=   3.
 NSaved= 3 IEnMin= 2 EnMin= -268.227877360419     IErMin= 1 ErrMin= 3.10D-02
 ErrMax= 6.34D-02  0.00D+00 EMaxC= 1.00D-01 BMatC= 4.37D-01 BMatP= 1.65D-01
 IDIUse=2 WtCom= 0.00D+00 WtEn= 1.00D+00
 Coeff-En:   0.000D+00 0.667D+00 0.333D+00
 Coeff:      0.000D+00 0.667D+00 0.333D+00
 Gap=     0.135 Goal=   None    Shift=    0.000
 RMSDP=3.96D-03 MaxDP=6.85D-02 DE= 1.93D-01 OVMax= 1.93D-01

 Cycle   4  Pass 1  IDiag  1:
 E= -268.380623261824     Delta-E=       -0.345526277716 Rises=F Damp=F
 DIIS: error= 1.02D-02 at cycle   4 NSaved=   4.
 NSaved= 4 IEnMin= 4 EnMin= -268.380623261824     IErMin= 4 ErrMin= 1.02D-02
 ErrMax= 1.02D-02  0.00D+00 EMaxC= 1.00D-01 BMatC= 1.58D-02 BMatP= 1.65D-01
 IDIUse=3 WtCom= 8.98D-01 WtEn= 1.02D-01
 Coeff-Com:  0.638D-02 0.296D+00 0.166D+00 0.531D+00
 Coeff-En:   0.000D+00 0.000D+00 0.000D+00 0.100D+01
 Coeff:      0.573D-02 0.266D+00 0.149D+00 0.579D+00
 Gap=     0.172 Goal=   None    Shift=    0.000
 RMSDP=9.66D-04 MaxDP=2.85D-02 DE=-3.46D-01 OVMax= 4.54D-02

 Cycle   5  Pass 1  IDiag  1:
 E= -268.392242403034     Delta-E=       -0.011619141210 Rises=F Damp=F
 DIIS: error= 5.86D-03 at cycle   5 NSaved=   5.
 NSaved= 5 IEnMin= 5 EnMin= -268.392242403034     IErMin= 5 ErrMin= 5.86D-03
 ErrMax= 5.86D-03  0.00D+00 EMaxC= 1.00D-01 BMatC= 3.60D-03 BMatP= 1.58D-02
 IDIUse=3 WtCom= 9.41D-01 WtEn= 5.86D-02
 Coeff-Com: -0.567D-03 0.490D-01 0.122D-01 0.340D+00 0.599D+00
 Coeff-En:   0.000D+00 0.000D+00 0.000D+00 0.160D+00 0.840D+00
 Coeff:     -0.534D-03 0.461D-01 0.115D-01 0.330D+00 0.613D+00
 Gap=     0.162 Goal=   None    Shift=    0.000
 RMSDP=3.34D-04 MaxDP=8.40D-03 DE=-1.16D-02 OVMax= 1.93D-02

 Cycle   6  Pass 1  IDiag  1:
 E= -268.394974709122     Delta-E=       -0.002732306088 Rises=F Damp=F
 DIIS: error= 1.61D-03 at cycle   6 NSaved=   6.
 NSaved= 6 IEnMin= 6 EnMin= -268.394974709122     IErMin= 6 ErrMin= 1.61D-03
 ErrMax= 1.61D-03  0.00D+00 EMaxC= 1.00D-01 BMatC= 2.20D-04 BMatP= 3.60D-03
 IDIUse=3 WtCom= 9.84D-01 WtEn= 1.61D-02
 Coeff-Com:  0.269D-03 0.108D-01-0.332D-02 0.158D+00 0.341D+00 0.493D+00
 Coeff-En:   0.000D+00 0.000D+00 0.000D+00 0.000D+00 0.000D+00 0.100D+01
 Coeff:      0.265D-03 0.106D-01-0.327D-02 0.156D+00 0.336D+00 0.501D+00
 Gap=     0.163 Goal=   None    Shift=    0.000
 RMSDP=9.89D-05 MaxDP=2.98D-03 DE=-2.73D-03 OVMax= 7.18D-03

 Cycle   7  Pass 1  IDiag  1:
 E= -268.395163318814     Delta-E=       -0.000188609692 Rises=F Damp=F
 DIIS: error= 3.06D-04 at cycle   7 NSaved=   7.
 NSaved= 7 IEnMin= 7 EnMin= -268.395163318814     IErMin= 7 ErrMin= 3.06D-04
 ErrMax= 3.06D-04  0.00D+00 EMaxC= 1.00D-01 BMatC= 1.38D-05 BMatP= 2.20D-04
 IDIUse=3 WtCom= 9.97D-01 WtEn= 3.06D-03
 Coeff-Com:  0.607D-05 0.114D-02-0.362D-02 0.501D-01 0.112D+00 0.254D+00
 Coeff-Com:  0.587D+00
 Coeff-En:   0.000D+00 0.000D+00 0.000D+00 0.000D+00 0.000D+00 0.000D+00
 Coeff-En:   0.100D+01
 Coeff:      0.605D-05 0.113D-02-0.361D-02 0.500D-01 0.111D+00 0.253D+00
 Coeff:      0.588D+00
 Gap=     0.163 Goal=   None    Shift=    0.000
 RMSDP=2.52D-05 MaxDP=6.16D-04 DE=-1.89D-04 OVMax= 2.17D-03

 Cycle   8  Pass 1  IDiag  1:
 E= -268.395175055696     Delta-E=       -0.000011736883 Rises=F Damp=F
 DIIS: error= 1.33D-04 at cycle   8 NSaved=   8.
 NSaved= 8 IEnMin= 8 EnMin= -268.395175055696     IErMin= 8 ErrMin= 1.33D-04
 ErrMax= 1.33D-04  0.00D+00 EMaxC= 1.00D-01 BMatC= 1.83D-06 BMatP= 1.38D-05
 IDIUse=3 WtCom= 9.99D-01 WtEn= 1.33D-03
 Coeff-Com: -0.182D-04 0.142D-03-0.225D-02 0.228D-01 0.505D-01 0.131D+00
 Coeff-Com:  0.367D+00 0.431D+00
 Coeff-En:   0.000D+00 0.000D+00 0.000D+00 0.000D+00 0.000D+00 0.000D+00
 Coeff-En:   0.000D+00 0.100D+01
 Coeff:     -0.182D-04 0.142D-03-0.225D-02 0.228D-01 0.504D-01 0.131D+00
 Coeff:      0.366D+00 0.431D+00
 Gap=     0.163 Goal=   None    Shift=    0.000
 RMSDP=8.58D-06 MaxDP=1.45D-04 DE=-1.17D-05 OVMax= 6.05D-04

 Cycle   9  Pass 1  IDiag  1:
 E= -268.395176528811     Delta-E=       -0.000001473115 Rises=F Damp=F
 DIIS: error= 2.74D-05 at cycle   9 NSaved=   9.
 NSaved= 9 IEnMin= 9 EnMin= -268.395176528811     IErMin= 9 ErrMin= 2.74D-05
 ErrMax= 2.74D-05  0.00D+00 EMaxC= 1.00D-01 BMatC= 7.86D-08 BMatP= 1.83D-06
 IDIUse=1 WtCom= 1.00D+00 WtEn= 0.00D+00
 Coeff-Com: -0.171D-04-0.207D-04-0.663D-03 0.418D-02 0.885D-02 0.270D-01
 Coeff-Com:  0.884D-01 0.189D+00 0.683D+00
 Coeff:     -0.171D-04-0.207D-04-0.663D-03 0.418D-02 0.885D-02 0.270D-01
 Coeff:      0.884D-01 0.189D+00 0.683D+00
 Gap=     0.163 Goal=   None    Shift=    0.000
 RMSDP=2.04D-06 MaxDP=3.01D-05 DE=-1.47D-06 OVMax= 1.01D-04

 Cycle  10  Pass 1  IDiag  1:
 E= -268.395176584566     Delta-E=       -0.000000055755 Rises=F Damp=F
 DIIS: error= 5.92D-06 at cycle  10 NSaved=  10.
 NSaved=10 IEnMin=10 EnMin= -268.395176584566     IErMin=10 ErrMin= 5.92D-06
 ErrMax= 5.92D-06  0.00D+00 EMaxC= 1.00D-01 BMatC= 5.67D-09 BMatP= 7.86D-08
 IDIUse=1 WtCom= 1.00D+00 WtEn= 0.00D+00
 Coeff-Com:  0.213D-06-0.179D-04-0.105D-03-0.113D-03-0.441D-03-0.310D-03
 Coeff-Com:  0.391D-02 0.318D-01 0.279D+00 0.686D+00
 Coeff:      0.213D-06-0.179D-04-0.105D-03-0.113D-03-0.441D-03-0.310D-03
 Coeff:      0.391D-02 0.318D-01 0.279D+00 0.686D+00
 Gap=     0.163 Goal=   None    Shift=    0.000
 RMSDP=5.14D-07 MaxDP=1.69D-05 DE=-5.58D-08 OVMax= 2.22D-05

 Cycle  11  Pass 1  IDiag  1:
 E= -268.395176589801     Delta-E=       -0.000000005235 Rises=F Damp=F
 DIIS: error= 1.14D-06 at cycle  11 NSaved=  11.
 NSaved=11 IEnMin=11 EnMin= -268.395176589801     IErMin=11 ErrMin= 1.14D-06
 ErrMax= 1.14D-06  0.00D+00 EMaxC= 1.00D-01 BMatC= 2.03D-10 BMatP= 5.67D-09
 IDIUse=1 WtCom= 1.00D+00 WtEn= 0.00D+00
 Coeff-Com:  0.411D-06-0.537D-05-0.903D-05-0.194D-03-0.486D-03-0.136D-02
 Coeff-Com: -0.221D-02 0.371D-03 0.657D-01 0.237D+00 0.702D+00
 Coeff:      0.411D-06-0.537D-05-0.903D-05-0.194D-03-0.486D-03-0.136D-02
 Coeff:     -0.221D-02 0.371D-03 0.657D-01 0.237D+00 0.702D+00
 Gap=     0.163 Goal=   None    Shift=    0.000
 RMSDP=1.33D-07 MaxDP=2.76D-06 DE=-5.24D-09 OVMax= 3.26D-06

 Cycle  12  Pass 1  IDiag  1:
 E= -268.395176590005     Delta-E=       -0.000000000203 Rises=F Damp=F
 DIIS: error= 1.78D-07 at cycle  12 NSaved=  12.
 NSaved=12 IEnMin=12 EnMin= -268.395176590005     IErMin=12 ErrMin= 1.78D-07
 ErrMax= 1.78D-07  0.00D+00 EMaxC= 1.00D-01 BMatC= 7.23D-12 BMatP= 2.03D-10
 IDIUse=1 WtCom= 1.00D+00 WtEn= 0.00D+00
 Coeff-Com: -0.637D-07-0.701D-06 0.148D-05-0.112D-04-0.429D-04-0.180D-03
 Coeff-Com: -0.209D-03-0.185D-02-0.200D-02-0.995D-03 0.991D-01 0.906D+00
 Coeff:     -0.637D-07-0.701D-06 0.148D-05-0.112D-04-0.429D-04-0.180D-03
 Coeff:     -0.209D-03-0.185D-02-0.200D-02-0.995D-03 0.991D-01 0.906D+00
 Gap=     0.163 Goal=   None    Shift=    0.000
 RMSDP=2.34D-08 MaxDP=4.25D-07 DE=-2.03D-10 OVMax= 9.33D-07

 Cycle  13  Pass 1  IDiag  1:
 E= -268.395176590009     Delta-E=       -0.000000000005 Rises=F Damp=F
 DIIS: error= 4.57D-08 at cycle  13 NSaved=  13.
 NSaved=13 IEnMin=13 EnMin= -268.395176590009     IErMin=13 ErrMin= 4.57D-08
 ErrMax= 4.57D-08  0.00D+00 EMaxC= 1.00D-01 BMatC= 1.69D-13 BMatP= 7.23D-12
 IDIUse=1 WtCom= 1.00D+00 WtEn= 0.00D+00
 Coeff-Com:  0.715D-08 0.574D-07 0.115D-06 0.148D-05-0.161D-05-0.123D-04
 Coeff-Com: -0.363D-05-0.315D-03-0.139D-02-0.447D-02 0.235D-02 0.133D+00
 Coeff-Com:  0.871D+00
 Coeff:      0.715D-08 0.574D-07 0.115D-06 0.148D-05-0.161D-05-0.123D-04
 Coeff:     -0.363D-05-0.315D-03-0.139D-02-0.447D-02 0.235D-02 0.133D+00
 Coeff:      0.871D+00
 Gap=     0.163 Goal=   None    Shift=    0.000
 RMSDP=4.03D-09 MaxDP=5.53D-08 DE=-4.66D-12 OVMax= 1.36D-07

 SCF Done:  E(RB3LYP) =  -268.395176590     A.U. after   13 cycles
            NFock= 13  Conv=0.40D-08     -V/T= 2.0036
 KE= 2.674341456103D+02 PE=-9.472730614825D+02 EE= 2.522930054275D+02
 Leave Link  502 at Tue Oct 15 21:36:04 2019, MaxMem=   280000000 cpu:              56.6 elap:               3.2
 (Enter /home/soft/g16/l701.exe)
 ... and contract with generalized density number  0.
 Compute integral first derivatives.
 Leave Link  701 at Tue Oct 15 21:36:04 2019, MaxMem=   280000000 cpu:               2.3 elap:               0.1
 (Enter /home/soft/g16/l702.exe)
 L702 exits ... SP integral derivatives will be done elsewhere.
 Leave Link  702 at Tue Oct 15 21:36:04 2019, MaxMem=   280000000 cpu:               0.8 elap:               0.1
 (Enter /home/soft/g16/l703.exe)
 Integral derivatives from FoFJK, PRISM(SPDF).
 Compute integral first derivatives, UseDBF=F ICtDFT=           0.
 Calling FoFJK, ICntrl=      2127 FMM=F ISym2X=0 I1Cent= 0 IOpClX= 0 NMat=1 NMatS=1 NMatT=0.
 FoFJK:  IHMeth= 1 ICntrl=    2127 DoSepK=F KAlg= 0 I1Cent=           0 FoldK=F
 IRaf=         0 NMat=       1 IRICut=       1 DoRegI=T DoRafI=F ISym2E= 0 IDoP0=0 IntGTp=1.
 FoFCou: FMM=F IPFlag=           0 FMFlag=      100000 FMFlg1=         800
         NFxFlg=           0 DoJE=F BraDBF=F KetDBF=F FulRan=T
         wScrn=  0.000000 ICntrl=      2127 IOpCl=  0 I1Cent=           0 NGrid=           0
         NMat0=    1 NMatS0=      1 NMatT0=    0 NMatD0=    1 NMtDS0=    0 NMtDT0=    0
 Symmetry not used in FoFCou.
 Leave Link  703 at Tue Oct 15 21:36:05 2019, MaxMem=   280000000 cpu:              13.2 elap:               0.6
 (Enter /home/soft/g16/l716.exe)
 Dipole        = 5.17227655D-01 6.49294610D-01 6.64194596D-01
 ***** Axes restored to original set *****
 -------------------------------------------------------------------
 Center     Atomic                   Forces (Hartrees/Bohr)
 Number     Number              X              Y              Z
 -------------------------------------------------------------------
      1        6          -0.001268442    0.007148786   -0.005381992
      2        1          -0.000226772   -0.000375592    0.000079337
      3        8           0.003824026   -0.007105264    0.001995520
      4        6          -0.002357712   -0.003849104    0.002698298
      5        1           0.002489281    0.000109624    0.000214577
      6        1           0.000725947    0.000165696    0.000323376
      7        6           0.002149558   -0.002991884   -0.002773323
      8        1          -0.000344371    0.000326702   -0.001094490
      9        1          -0.001117530   -0.000596198    0.000035983
     10        8           0.000518122    0.003921001    0.003192207
     11        1          -0.004392108    0.003246233    0.000710506
 -------------------------------------------------------------------
 Cartesian Forces:  Max     0.007148786 RMS     0.002839100
 Leave Link  716 at Tue Oct 15 21:36:05 2019, MaxMem=   280000000 cpu:               0.5 elap:               0.0
 (Enter /home/soft/g16/l103.exe)

 GradGradGradGradGradGradGradGradGradGradGradGradGradGradGradGradGradGrad
 Berny optimization.
 Using GEDIIS/GDIIS optimizer.
 FormGI is forming the generalized inverse of G from B-inverse, IUseBI=4.
 Internal  Forces:  Max     0.007555442 RMS     0.002491715
 Search for a local minimum.
 Step number   2 out of a maximum of   43
 All quantities printed in internal units (Hartrees-Bohrs-Radians)
 RMS Force = .24917D-02 SwitMx=.10000D-02 MixMth= 1
 Mixed Optimization -- RFO/linear search
 Update second derivatives using D2CorX and points    2    1
 DE=  9.19D-05 DEPred=-3.17D-03 R=-2.90D-02
 Trust test=-2.90D-02 RLast= 5.40D-01 DXMaxT set to 1.50D-01
 ITU= -1  0
 Use linear search instead of GDIIS.
     Eigenvalues ---    0.00265   0.01256   0.01697   0.02672   0.02799
     Eigenvalues ---    0.02911   0.03385   0.03629   0.04302   0.15314
     Eigenvalues ---    0.15999   0.15999   0.16000   0.16000   0.16000
     Eigenvalues ---    0.18546   0.22321   0.23959   0.33193   0.33379
     Eigenvalues ---    0.35159   0.35298   0.35509   0.53639   0.54991
     Eigenvalues ---    0.58150   1.04221
 RFO step:  Lambda=-1.55178336D-03 EMin= 2.64993805D-03
 Quartic linear search produced a step of -0.66175.
 Iteration  1 RMS(Cart)=  0.23201972 RMS(Int)=  0.08992023
 Iteration  2 RMS(Cart)=  0.14248579 RMS(Int)=  0.05449016
 Iteration  3 RMS(Cart)=  0.12143222 RMS(Int)=  0.02038524
 Iteration  4 RMS(Cart)=  0.06560565 RMS(Int)=  0.00245549
 Iteration  5 RMS(Cart)=  0.00367616 RMS(Int)=  0.00004618
 Iteration  6 RMS(Cart)=  0.00000821 RMS(Int)=  0.00004604
 Iteration  7 RMS(Cart)=  0.00000000 RMS(Int)=  0.00004604
 ITry= 1 IFail=0 DXMaxC= 1.53D+00 DCOld= 1.00D+10 DXMaxT= 1.50D-01 DXLimC= 3.00D+00 Rises=F
 Variable       Old X    -DE/DX   Delta X   Delta X   Delta X     New X
                                 (Linear)    (Quad)   (Total)
    R1        2.05143   0.00012   0.00035  -0.00036  -0.00001   2.05142
    R2        2.55405   0.00321  -0.00083   0.00329   0.00246   2.55651
    R3        2.52858  -0.00465   0.00002  -0.00297  -0.00296   2.52563
    R4        1.83710  -0.00305  -0.00253   0.00142  -0.00110   1.83600
    R5        2.04850   0.00098   0.00455  -0.00524  -0.00069   2.04781
    R6        2.04589  -0.00011   0.00168  -0.00241  -0.00074   2.04515
    R7        2.08885   0.00029  -0.00373   0.00544   0.00172   2.09057
    R8        2.08877   0.00030  -0.00119   0.00196   0.00077   2.08954
    R9        2.28105  -0.00466  -0.00426   0.00431   0.00005   2.28111
   R10        4.07942   0.00121  -0.05143   0.06611   0.01468   4.09410
    A1        1.92587   0.00061   0.00178  -0.00155   0.00023   1.92610
    A2        2.12338   0.00137   0.00097   0.00127   0.00224   2.12562
    A3        2.23366  -0.00196  -0.00259   0.00032  -0.00227   2.23139
    A4        1.98291  -0.00756  -0.02518   0.01638  -0.00880   1.97411
    A5        2.14210  -0.00039   0.00004  -0.00038  -0.00048   2.14163
    A6        2.08621   0.00034  -0.00082   0.00242   0.00147   2.08768
    A7        2.05190   0.00024   0.00046   0.00048   0.00081   2.05271
    A8        2.02667   0.00139   0.00004   0.00300   0.00312   2.02979
    A9        2.12929  -0.00093   0.00082  -0.00333  -0.00244   2.12686
   A10        2.12709  -0.00045  -0.00143   0.00077  -0.00058   2.12650
   A11        1.96498   0.00328  -0.01786   0.03121   0.01335   1.97832
   A12        2.30417   0.00507  -0.01768   0.03144   0.01377   2.31794
    D1       -2.84588  -0.00302  -0.01966  -0.02851  -0.04818  -2.89406
    D2        0.32054  -0.00396  -0.03013  -0.03035  -0.06047   0.26007
    D3       -3.05831  -0.00247  -0.00585  -0.02423  -0.03008  -3.08839
    D4       -0.00147   0.00020  -0.01023   0.01172   0.00149   0.00002
    D5        0.05593  -0.00145   0.00569  -0.02224  -0.01656   0.03937
    D6        3.11277   0.00122   0.00130   0.01370   0.01501   3.12778
    D7        1.50242  -0.00074  -0.26405   0.13180  -0.13225   1.37017
    D8       -3.12404  -0.00071   0.01930  -0.02758  -0.00828  -3.13232
    D9       -1.85077  -0.00007  -0.00877   0.00926   0.00049  -1.85028
   D10        1.30941  -0.00084   0.01168  -0.02000  -0.00831   1.30110
   D11       -0.27062   0.00014  -0.22780  -0.45805  -0.68585  -0.95647
         Item               Value     Threshold  Converged?
 Maximum Force            0.007555     0.000450     NO 
 RMS     Force            0.002492     0.000300     NO 
 Maximum Displacement     1.526298     0.001800     NO 
 RMS     Displacement     0.527274     0.001200     NO 
 Predicted change in Energy=-1.012595D-03
 GradGradGradGradGradGradGradGradGradGradGradGradGradGradGradGradGradGrad

 Leave Link  103 at Tue Oct 15 21:36:05 2019, MaxMem=   280000000 cpu:               0.7 elap:               0.1
 (Enter /home/soft/g16/l202.exe)
                          Input orientation:                          
 ---------------------------------------------------------------------
 Center     Atomic      Atomic             Coordinates (Angstroms)
 Number     Number       Type             X           Y           Z
 ---------------------------------------------------------------------
      1          6           0       -1.539379    0.373067    0.144585
      2          1           0       -2.309668    0.464386    0.904036
      3          8           0       -1.218570   -0.927245   -0.046389
      4          6           0       -1.037355    1.442021   -0.481155
      5          1           0       -0.303426    1.364901   -1.274698
      6          1           0       -1.402852    2.429275   -0.230166
      7          6           0        1.988826    0.144652    0.513331
      8          1           0        2.568694    0.913793   -0.030757
      9          1           0        1.699954    0.392248    1.551553
     10          8           0        1.696131   -0.910507    0.005312
     11          1           0       -0.394405   -1.047148   -0.546710
 ---------------------------------------------------------------------
                    Distance matrix (angstroms):
                    1          2          3          4          5
     1  C    0.000000
     2  H    1.085564   0.000000
     3  O    1.352849   2.007595   0.000000
     4  C    1.336503   2.119742   2.415632   0.000000
     5  H    2.127365   3.095613   2.756840   1.083655   0.000000
     6  H    2.094534   2.443260   3.366595   1.082246   1.852748
     7  C    3.554769   4.328041   3.427775   3.439468   3.152853
     8  H    4.147215   4.987406   4.211061   3.672256   3.162272
     9  H    3.531743   4.062210   3.579422   3.567462   3.598234
    10  O    3.483602   4.329487   2.915207   3.639091   3.288486
    11  H    1.950863   2.838597   0.971569   2.571700   2.521156
                    6          7          8          9         10
     6  H    0.000000
     7  C    4.156414   0.000000
     8  H    4.255541   1.106281   0.000000
     9  H    4.117209   1.105738   1.878943   0.000000
    10  O    4.562159   1.207110   2.022558   2.021892   0.000000
    11  H    3.633550   2.867729   3.590467   3.295589   2.166504
                   11
    11  H    0.000000
 Stoichiometry    C3H6O2
 Framework group  C1[X(C3H6O2)]
 Deg. of freedom    27
 Full point group                 C1      NOp   1
 RotChk:  IX=0 Diff= 3.65D-01
 Largest Abelian subgroup         C1      NOp   1
 Largest concise Abelian subgroup C1      NOp   1
                         Standard orientation:                         
 ---------------------------------------------------------------------
 Center     Atomic      Atomic             Coordinates (Angstroms)
 Number     Number       Type             X           Y           Z
 ---------------------------------------------------------------------
      1          6           0       -1.555539   -0.062635    0.287706
      2          1           0       -2.236533   -0.204663    1.121088
      3          8           0       -0.956596   -1.231914   -0.035179
      4          6           0       -1.395679    1.129151   -0.295673
      5          1           0       -0.756924    1.277828   -1.158341
      6          1           0       -1.956333    1.981219    0.066132
      7          6           0        1.943609    0.563539    0.303642
      8          1           0        2.259197    1.479879   -0.229821
      9          1           0        1.720554    0.676004    1.380792
     10          8           0        1.857077   -0.502119   -0.256716
     11          1           0       -0.188154   -1.118327   -0.618737
 ---------------------------------------------------------------------
 Rotational constants (GHZ):           7.6553498           2.6001633           2.0885220
 Leave Link  202 at Tue Oct 15 21:36:05 2019, MaxMem=   280000000 cpu:               0.2 elap:               0.0
 (Enter /home/soft/g16/l301.exe)
 Standard basis: 6-311+G(d) (5D, 7F)
 Ernie: Thresh=  0.10000D-02 Tol=  0.10000D-05 Strict=F.
 There are   133 symmetry adapted cartesian basis functions of A   symmetry.
 There are   128 symmetry adapted basis functions of A   symmetry.
   128 basis functions,   210 primitive gaussians,   133 cartesian basis functions
    20 alpha electrons       20 beta electrons
       nuclear repulsion energy       161.1025807351 Hartrees.
 IExCor=  402 DFT=T Ex+Corr=B3LYP ExCW=0 ScaHFX=  0.200000
 ScaDFX=  0.800000  0.720000  1.000000  0.810000 ScalE2=  1.000000  1.000000
 IRadAn=      5 IRanWt=     -1 IRanGd=            0 ICorTp=0 IEmpDi=  4
 NAtoms=   11 NActive=   11 NUniq=   11 SFac= 1.00D+00 NAtFMM=   60 NAOKFM=F Big=F
 Integral buffers will be    131072 words long.
 Raffenetti 2 integral format.
 Two-electron integral symmetry is turned on.
 Leave Link  301 at Tue Oct 15 21:36:05 2019, MaxMem=   280000000 cpu:               1.2 elap:               0.1
 (Enter /home/soft/g16/l302.exe)
 NPDir=0 NMtPBC=     1 NCelOv=     1 NCel=       1 NClECP=     1 NCelD=      1
         NCelK=      1 NCelE2=     1 NClLst=     1 CellRange=     0.0.
 One-electron integrals computed using PRISM.
 One-electron integral symmetry used in STVInt
 NBasis=   128 RedAO= T EigKep=  8.88D-05  NBF=   128
 NBsUse=   128 1.00D-06 EigRej= -1.00D+00 NBFU=   128
 Precomputing XC quadrature grid using
 IXCGrd= 4 IRadAn=           5 IRanWt=          -1 IRanGd=           0 AccXCQ= 0.00D+00.
 Generated NRdTot=       0 NPtTot=           0 NUsed=           0 NTot=          32
 NSgBfM=   133   133   133   133   133 MxSgAt=    11 MxSgA2=    11.
 Leave Link  302 at Tue Oct 15 21:36:05 2019, MaxMem=   280000000 cpu:               2.9 elap:               0.1
 (Enter /home/soft/g16/l303.exe)
 DipDrv:  MaxL=1.
 Leave Link  303 at Tue Oct 15 21:36:05 2019, MaxMem=   280000000 cpu:               1.1 elap:               0.1
 (Enter /home/soft/g16/l401.exe)
 Lowest energy guess from the checkpoint file:  "irc32r.chk"
 B after Tr=     0.000000   -0.000000    0.000000
         Rot=    0.999470   -0.002511   -0.008449   -0.031334 Ang=  -3.73 deg.
 Guess basis will be translated and rotated to current coordinates.
 B after Tr=    -0.000000    0.000000    0.000000
         Rot=    0.993268    0.104331    0.022479    0.045038 Ang=  13.30 deg.
 Guess basis will be translated and rotated to current coordinates.
 CkInt1:  FT= 3.38D-01
 Max alpha theta= 16.477 degrees.
 JPrj=2 DoOrth=T DoCkMO=T.
 Leave Link  401 at Tue Oct 15 21:36:06 2019, MaxMem=   280000000 cpu:               2.8 elap:               0.1
 (Enter /home/soft/g16/l502.exe)
 Keep R1 ints in memory in canonical form, NReq=57089831.
 FoFCou: FMM=F IPFlag=           0 FMFlag=           0 FMFlg1=           0
         NFxFlg=           0 DoJE=F BraDBF=F KetDBF=F FulRan=T
         wScrn=  0.000000 ICntrl=       600 IOpCl=  0 I1Cent=           0 NGrid=           0
         NMat0=    1 NMatS0=   8256 NMatT0=    0 NMatD0=    1 NMtDS0=    0 NMtDT0=    0
 Symmetry not used in FoFCou.
 Two-electron integral symmetry not used.
 Closed shell SCF:
 Using DIIS extrapolation, IDIIS=  1040.
 NGot=   280000000 LenX=   245875069 LenY=   245856939
 Requested convergence on RMS density matrix=1.00D-08 within 128 cycles.
 Requested convergence on MAX density matrix=1.00D-06.
 Requested convergence on             energy=1.00D-06.
 No special actions if energy rises.

 Cycle   1  Pass 1  IDiag  1:
 E= -268.324467776570    
 DIIS: error= 1.87D-02 at cycle   1 NSaved=   1.
 NSaved= 1 IEnMin= 1 EnMin= -268.324467776570     IErMin= 1 ErrMin= 1.87D-02
 ErrMax= 1.87D-02  0.00D+00 EMaxC= 1.00D-01 BMatC= 4.43D-02 BMatP= 4.43D-02
 IDIUse=3 WtCom= 8.13D-01 WtEn= 1.87D-01
 Coeff-Com:  0.100D+01
 Coeff-En:   0.100D+01
 Coeff:      0.100D+01
 Gap=    19.197 Goal=   None    Shift=    0.000
 GapD=   19.197 DampG=2.000 DampE=0.500 DampFc=1.0000 IDamp=-1.
 RMSDP=2.27D-03 MaxDP=3.12D-02              OVMax= 1.07D-01

 Cycle   2  Pass 1  IDiag  1:
 E= -268.391008294152     Delta-E=       -0.066540517582 Rises=F Damp=F
 DIIS: error= 9.89D-03 at cycle   2 NSaved=   2.
 NSaved= 2 IEnMin= 2 EnMin= -268.391008294152     IErMin= 2 ErrMin= 9.89D-03
 ErrMax= 9.89D-03  0.00D+00 EMaxC= 1.00D-01 BMatC= 5.04D-03 BMatP= 4.43D-02
 IDIUse=3 WtCom= 9.01D-01 WtEn= 9.89D-02
 Coeff-Com:  0.943D-01 0.906D+00
 Coeff-En:   0.000D+00 0.100D+01
 Coeff:      0.849D-01 0.915D+00
 Gap=     0.167 Goal=   None    Shift=    0.000
 RMSDP=1.01D-03 MaxDP=2.14D-02 DE=-6.65D-02 OVMax= 7.28D-02

 Cycle   3  Pass 1  IDiag  1:
 E= -268.382431200712     Delta-E=        0.008577093440 Rises=F Damp=F
 DIIS: error= 1.96D-02 at cycle   3 NSaved=   3.
 NSaved= 3 IEnMin= 2 EnMin= -268.391008294152     IErMin= 2 ErrMin= 9.89D-03
 ErrMax= 1.96D-02  0.00D+00 EMaxC= 1.00D-01 BMatC= 1.80D-02 BMatP= 5.04D-03
 IDIUse=2 WtCom= 0.00D+00 WtEn= 1.00D+00
 Coeff-En:   0.000D+00 0.710D+00 0.290D+00
 Coeff:      0.000D+00 0.710D+00 0.290D+00
 Gap=     0.170 Goal=   None    Shift=    0.000
 RMSDP=4.93D-04 MaxDP=1.15D-02 DE= 8.58D-03 OVMax= 3.78D-02

 Cycle   4  Pass 1  IDiag  1:
 E= -268.395062798914     Delta-E=       -0.012631598202 Rises=F Damp=F
 DIIS: error= 3.33D-03 at cycle   4 NSaved=   4.
 NSaved= 4 IEnMin= 4 EnMin= -268.395062798914     IErMin= 4 ErrMin= 3.33D-03
 ErrMax= 3.33D-03  0.00D+00 EMaxC= 1.00D-01 BMatC= 5.05D-04 BMatP= 5.04D-03
 IDIUse=3 WtCom= 9.67D-01 WtEn= 3.33D-02
 Coeff-Com: -0.115D-01 0.110D+00-0.108D+00 0.101D+01
 Coeff-En:   0.000D+00 0.000D+00 0.000D+00 0.100D+01
 Coeff:     -0.111D-01 0.106D+00-0.104D+00 0.101D+01
 Gap=     0.171 Goal=   None    Shift=    0.000
 RMSDP=1.34D-04 MaxDP=2.55D-03 DE=-1.26D-02 OVMax= 8.67D-03

 Cycle   5  Pass 1  IDiag  1:
 E= -268.395452068344     Delta-E=       -0.000389269430 Rises=F Damp=F
 DIIS: error= 3.47D-04 at cycle   5 NSaved=   5.
 NSaved= 5 IEnMin= 5 EnMin= -268.395452068344     IErMin= 5 ErrMin= 3.47D-04
 ErrMax= 3.47D-04  0.00D+00 EMaxC= 1.00D-01 BMatC= 1.45D-05 BMatP= 5.05D-04
 IDIUse=3 WtCom= 9.97D-01 WtEn= 3.47D-03
 Coeff-Com: -0.205D-02 0.375D-02-0.662D-01 0.475D+00 0.589D+00
 Coeff-En:   0.000D+00 0.000D+00 0.000D+00 0.000D+00 0.100D+01
 Coeff:     -0.204D-02 0.374D-02-0.660D-01 0.474D+00 0.591D+00
 Gap=     0.171 Goal=   None    Shift=    0.000
 RMSDP=2.96D-05 MaxDP=5.99D-04 DE=-3.89D-04 OVMax= 2.37D-03

 Cycle   6  Pass 1  IDiag  1:
 E= -268.395464918352     Delta-E=       -0.000012850009 Rises=F Damp=F
 DIIS: error= 2.03D-04 at cycle   6 NSaved=   6.
 NSaved= 6 IEnMin= 6 EnMin= -268.395464918352     IErMin= 6 ErrMin= 2.03D-04
 ErrMax= 2.03D-04  0.00D+00 EMaxC= 1.00D-01 BMatC= 2.87D-06 BMatP= 1.45D-05
 IDIUse=3 WtCom= 9.98D-01 WtEn= 2.03D-03
 Coeff-Com:  0.129D-02-0.224D-01-0.120D-01 0.454D-01 0.367D+00 0.621D+00
 Coeff-En:   0.000D+00 0.000D+00 0.000D+00 0.000D+00 0.646D-01 0.935D+00
 Coeff:      0.129D-02-0.223D-01-0.120D-01 0.453D-01 0.366D+00 0.621D+00
 Gap=     0.171 Goal=   None    Shift=    0.000
 RMSDP=1.59D-05 MaxDP=2.30D-04 DE=-1.29D-05 OVMax= 1.09D-03

 Cycle   7  Pass 1  IDiag  1:
 E= -268.395468155030     Delta-E=       -0.000003236678 Rises=F Damp=F
 DIIS: error= 6.13D-05 at cycle   7 NSaved=   7.
 NSaved= 7 IEnMin= 7 EnMin= -268.395468155030     IErMin= 7 ErrMin= 6.13D-05
 ErrMax= 6.13D-05  0.00D+00 EMaxC= 1.00D-01 BMatC= 3.52D-07 BMatP= 2.87D-06
 IDIUse=1 WtCom= 1.00D+00 WtEn= 0.00D+00
 Coeff-Com:  0.931D-03-0.129D-01 0.230D-02-0.407D-01 0.124D+00 0.350D+00
 Coeff-Com:  0.577D+00
 Coeff:      0.931D-03-0.129D-01 0.230D-02-0.407D-01 0.124D+00 0.350D+00
 Coeff:      0.577D+00
 Gap=     0.171 Goal=   None    Shift=    0.000
 RMSDP=4.54D-06 MaxDP=9.08D-05 DE=-3.24D-06 OVMax= 3.71D-04

 Cycle   8  Pass 1  IDiag  1:
 E= -268.395468509625     Delta-E=       -0.000000354595 Rises=F Damp=F
 DIIS: error= 1.32D-05 at cycle   8 NSaved=   8.
 NSaved= 8 IEnMin= 8 EnMin= -268.395468509625     IErMin= 8 ErrMin= 1.32D-05
 ErrMax= 1.32D-05  0.00D+00 EMaxC= 1.00D-01 BMatC= 3.15D-08 BMatP= 3.52D-07
 IDIUse=1 WtCom= 1.00D+00 WtEn= 0.00D+00
 Coeff-Com:  0.328D-03-0.388D-02 0.218D-02-0.252D-01 0.161D-01 0.104D+00
 Coeff-Com:  0.280D+00 0.627D+00
 Coeff:      0.328D-03-0.388D-02 0.218D-02-0.252D-01 0.161D-01 0.104D+00
 Coeff:      0.280D+00 0.627D+00
 Gap=     0.171 Goal=   None    Shift=    0.000
 RMSDP=1.34D-06 MaxDP=2.65D-05 DE=-3.55D-07 OVMax= 1.18D-04

 Cycle   9  Pass 1  IDiag  1:
 E= -268.395468536618     Delta-E=       -0.000000026994 Rises=F Damp=F
 DIIS: error= 4.69D-06 at cycle   9 NSaved=   9.
 NSaved= 9 IEnMin= 9 EnMin= -268.395468536618     IErMin= 9 ErrMin= 4.69D-06
 ErrMax= 4.69D-06  0.00D+00 EMaxC= 1.00D-01 BMatC= 4.62D-09 BMatP= 3.15D-08
 IDIUse=1 WtCom= 1.00D+00 WtEn= 0.00D+00
 Coeff-Com:  0.103D-04 0.321D-03 0.619D-03-0.549D-02-0.151D-01-0.115D-01
 Coeff-Com:  0.430D-01 0.326D+00 0.662D+00
 Coeff:      0.103D-04 0.321D-03 0.619D-03-0.549D-02-0.151D-01-0.115D-01
 Coeff:      0.430D-01 0.326D+00 0.662D+00
 Gap=     0.171 Goal=   None    Shift=    0.000
 RMSDP=5.80D-07 MaxDP=1.09D-05 DE=-2.70D-08 OVMax= 4.67D-05

 Cycle  10  Pass 1  IDiag  1:
 E= -268.395468541042     Delta-E=       -0.000000004423 Rises=F Damp=F
 DIIS: error= 7.33D-07 at cycle  10 NSaved=  10.
 NSaved=10 IEnMin=10 EnMin= -268.395468541042     IErMin=10 ErrMin= 7.33D-07
 ErrMax= 7.33D-07  0.00D+00 EMaxC= 1.00D-01 BMatC= 5.74D-11 BMatP= 4.62D-09
 IDIUse=1 WtCom= 1.00D+00 WtEn= 0.00D+00
 Coeff-Com: -0.905D-05 0.191D-03 0.712D-04-0.138D-03-0.293D-02-0.624D-02
 Coeff-Com: -0.336D-02 0.324D-01 0.129D+00 0.851D+00
 Coeff:     -0.905D-05 0.191D-03 0.712D-04-0.138D-03-0.293D-02-0.624D-02
 Coeff:     -0.336D-02 0.324D-01 0.129D+00 0.851D+00
 Gap=     0.171 Goal=   None    Shift=    0.000
 RMSDP=8.27D-08 MaxDP=9.79D-07 DE=-4.42D-09 OVMax= 5.14D-06

 Cycle  11  Pass 1  IDiag  1:
 E= -268.395468541107     Delta-E=       -0.000000000065 Rises=F Damp=F
 DIIS: error= 9.07D-08 at cycle  11 NSaved=  11.
 NSaved=11 IEnMin=11 EnMin= -268.395468541107     IErMin=11 ErrMin= 9.07D-08
 ErrMax= 9.07D-08  0.00D+00 EMaxC= 1.00D-01 BMatC= 1.69D-12 BMatP= 5.74D-11
 IDIUse=1 WtCom= 1.00D+00 WtEn= 0.00D+00
 Coeff-Com: -0.201D-05 0.239D-04-0.129D-04 0.197D-03-0.362D-04-0.792D-03
 Coeff-Com: -0.263D-02-0.527D-02 0.367D-02 0.186D+00 0.818D+00
 Coeff:     -0.201D-05 0.239D-04-0.129D-04 0.197D-03-0.362D-04-0.792D-03
 Coeff:     -0.263D-02-0.527D-02 0.367D-02 0.186D+00 0.818D+00
 Gap=     0.171 Goal=   None    Shift=    0.000
 RMSDP=2.00D-08 MaxDP=3.48D-07 DE=-6.55D-11 OVMax= 5.85D-07

 Cycle  12  Pass 1  IDiag  1:
 E= -268.395468541108     Delta-E=       -0.000000000001 Rises=F Damp=F
 DIIS: error= 3.73D-08 at cycle  12 NSaved=  12.
 NSaved=12 IEnMin=12 EnMin= -268.395468541108     IErMin=12 ErrMin= 3.73D-08
 ErrMax= 3.73D-08  0.00D+00 EMaxC= 1.00D-01 BMatC= 3.24D-13 BMatP= 1.69D-12
[...]
     Eigenvalues ---    0.04478   0.12402   0.14318   0.15278   0.16083
     Eigenvalues ---    0.16486   0.19937   0.22486   0.33150   0.33641
     Eigenvalues ---    0.35297   0.35405   0.37069   0.49383   0.55621
     Eigenvalues ---    0.60194   1.00382
 En-DIIS/RFO-DIIS/Sim-DIIS IScMMF=       -3 using points:    43   42   41   40   39   38   37   36   35   34
 RFO step:  Lambda=-7.35264100D-07.
 NNeg= 0 NGDIIS=10 SimSw=  2.50D-01 Rises=F DC= -1.50D-06 SmlDif=  1.00D-05
 NRisDI= 0 DoIntr=F SqrtH=F CThrHd= 10.0 CDAdj=  3.0
 RMS Error=  0.9361905420D-02 NUsed=10 OKEnD=F EnDIS=F
 InvSVX:  RCond= 2.27D-10 Info=           0 Equed=N FErr=  3.94D-07 BErr=  6.11D-17
 DIIS inversion failure, remove point  10.
 InvSVX:  RCond= 6.03D-10 Info=           0 Equed=N FErr=  1.47D-07 BErr=  7.81D-17
 DIIS inversion failure, remove point   9.
 InvSVX:  RCond= 6.45D-10 Info=           0 Equed=N FErr=  1.21D-07 BErr=  5.84D-17
 DIIS inversion failure, remove point   8.
 InvSVX:  RCond= 1.65D-09 Info=           0 Equed=N FErr=  5.03D-08 BErr=  6.96D-17
 DIIS inversion failure, remove point   7.
 InvSVX:  RCond= 2.08D-08 Info=           0 Equed=N FErr=  2.67D-09 BErr=  6.47D-17
 DIIS inversion failure, remove point   6.
 InvSVX:  RCond= 5.85D-08 Info=           0 Equed=N FErr=  2.02D-10 BErr=  8.08D-17
 DIIS inversion failure, remove point   5.
 InvSVX:  RCond= 1.17D-07 Info=           0 Equed=N FErr=  5.44D-11 BErr=  4.66D-17
 RFO-DIIS uses    4 points instead of   10
 DidBck=F Rises=F RFO-DIIS coefs:    1.78303   -0.64438   -0.33521    0.19656    0.00000
                  RFO-DIIS coefs:    0.00000    0.00000    0.00000    0.00000    0.00000
 Iteration  1 RMS(Cart)=  0.02921044 RMS(Int)=  0.00036787
 Iteration  2 RMS(Cart)=  0.00075974 RMS(Int)=  0.00000013
 Iteration  3 RMS(Cart)=  0.00000016 RMS(Int)=  0.00000009
 ITry= 1 IFail=0 DXMaxC= 7.09D-02 DCOld= 1.00D+10 DXMaxT= 1.66D+00 DXLimC= 3.00D+00 Rises=F
 Variable       Old X    -DE/DX   Delta X   Delta X   Delta X     New X
                                 (Linear)    (Quad)   (Total)
    R1        2.05087  -0.00000  -0.00001  -0.00002  -0.00003   2.05084
    R2        2.56412   0.00011  -0.00004   0.00025   0.00021   2.56433
    R3        2.52073  -0.00009  -0.00022   0.00001  -0.00021   2.52053
    R4        1.84047  -0.00006  -0.00015  -0.00000  -0.00015   1.84032
    R5        2.05168   0.00001   0.00003   0.00001   0.00003   2.05171
    R6        2.04529   0.00003   0.00017  -0.00006   0.00011   2.04540
    R7        2.08766  -0.00007  -0.00040   0.00015  -0.00025   2.08741
    R8        2.08800  -0.00004  -0.00025   0.00008  -0.00017   2.08783
    R9        2.27897   0.00020   0.00039  -0.00016   0.00024   2.27921
   R10        3.66170  -0.00002  -0.00005  -0.00132  -0.00136   3.66033
    A1        1.92775  -0.00001  -0.00009  -0.00006  -0.00015   1.92760
    A2        2.13367   0.00004   0.00005   0.00030   0.00035   2.13401
    A3        2.22177  -0.00004   0.00004  -0.00024  -0.00020   2.22157
    A4        1.94373   0.00003   0.00095  -0.00046   0.00048   1.94421
    A5        2.13733   0.00004   0.00071  -0.00040   0.00031   2.13765
    A6        2.09226   0.00002   0.00011   0.00014   0.00025   2.09251
    A7        2.05358  -0.00006  -0.00082   0.00026  -0.00056   2.05302
    A8        2.04266   0.00005   0.00044  -0.00003   0.00041   2.04307
    A9        2.11601  -0.00002  -0.00020  -0.00000  -0.00020   2.11580
   A10        2.12451  -0.00003  -0.00024   0.00003  -0.00020   2.12431
   A11        2.02503   0.00004   0.00534  -0.00023   0.00511   2.03014
   A12        2.80129  -0.00001   0.00375  -0.00194   0.00181   2.80310
    D1       -3.13331  -0.00001  -0.00086  -0.00029  -0.00115  -3.13446
    D2        0.00829  -0.00000  -0.00038  -0.00056  -0.00094   0.00735
    D3       -3.13839  -0.00001  -0.00063  -0.00017  -0.00080  -3.13919
    D4       -0.00053   0.00000   0.00015   0.00000   0.00015  -0.00038
    D5        0.00319  -0.00002  -0.00116   0.00013  -0.00103   0.00216
    D6        3.14105  -0.00001  -0.00038   0.00030  -0.00008   3.14098
    D7        2.72288   0.00000   0.05507   0.00014   0.05521   2.77809
    D8        3.14117   0.00001   0.00058  -0.00019   0.00039   3.14155
    D9        3.14044  -0.00002  -0.00262  -0.00031  -0.00294   3.13751
   D10       -0.00159  -0.00001  -0.00202  -0.00051  -0.00253  -0.00413
   D11       -0.02414  -0.00000  -0.00053   0.00031  -0.00022  -0.02435
         Item               Value     Threshold  Converged?
 Maximum Force            0.000201     0.000450     YES
 RMS     Force            0.000052     0.000300     YES
 Maximum Displacement     0.070888     0.001800     NO 
 RMS     Displacement     0.029135     0.001200     NO 
 Predicted change in Energy=-3.677844D-07
 Optimization stopped.
    -- Number of steps exceeded,  NStep=  43
    -- Flag reset to prevent archiving.
                           ----------------------------
                           ! Non-Optimized Parameters !
                           ! (Angstroms and Degrees)  !
 --------------------------                            --------------------------
 ! Name  Definition              Value          Derivative Info.                !
 --------------------------------------------------------------------------------
 ! R1    R(1,2)                  1.0853         -DE/DX =    0.0                 !
 ! R2    R(1,3)                  1.357          -DE/DX =    0.0001              !
 ! R3    R(1,4)                  1.3338         -DE/DX =   -0.0001              !
 ! R4    R(3,11)                 0.9739         -DE/DX =   -0.0001              !
 ! R5    R(4,5)                  1.0857         -DE/DX =    0.0                 !
 ! R6    R(4,6)                  1.0824         -DE/DX =    0.0                 !
 ! R7    R(7,8)                  1.1046         -DE/DX =   -0.0001              !
 ! R8    R(7,9)                  1.1048         -DE/DX =    0.0                 !
 ! R9    R(7,10)                 1.2061         -DE/DX =    0.0002              !
 ! R10   R(10,11)                1.937          -DE/DX =    0.0                 !
 ! A1    A(2,1,3)              110.4435         -DE/DX =    0.0                 !
 ! A2    A(2,1,4)              122.27           -DE/DX =    0.0                 !
 ! A3    A(3,1,4)              127.2865         -DE/DX =    0.0                 !
 ! A4    A(1,3,11)             111.3952         -DE/DX =    0.0                 !
 ! A5    A(1,4,5)              122.4782         -DE/DX =    0.0                 !
 ! A6    A(1,4,6)              119.8923         -DE/DX =    0.0                 !
 ! A7    A(5,4,6)              117.6294         -DE/DX =   -0.0001              !
 ! A8    A(8,7,9)              117.0594         -DE/DX =    0.0001              !
 ! A9    A(8,7,10)             121.2267         -DE/DX =    0.0                 !
 ! A10   A(9,7,10)             121.7139         -DE/DX =    0.0                 !
 ! A11   A(7,10,11)            116.3185         -DE/DX =    0.0                 !
 ! A12   A(3,11,10)            160.606          -DE/DX =    0.0                 !
 ! D1    D(2,1,3,11)          -179.5912         -DE/DX =    0.0                 !
 ! D2    D(4,1,3,11)             0.4213         -DE/DX =    0.0                 !
 ! D3    D(2,1,4,5)           -179.8624         -DE/DX =    0.0                 !
 ! D4    D(2,1,4,6)             -0.0215         -DE/DX =    0.0                 !
 ! D5    D(3,1,4,5)              0.1237         -DE/DX =    0.0                 !
 ! D6    D(3,1,4,6)            179.9646         -DE/DX =    0.0                 !
 ! D7    D(1,3,11,10)          159.1729         -DE/DX =    0.0                 !
 ! D8    D(8,7,9,10)           179.9978         -DE/DX =    0.0                 !
 ! D9    D(8,7,10,11)          179.7658         -DE/DX =    0.0                 !
 ! D10   D(9,7,10,11)           -0.2365         -DE/DX =    0.0                 !
 ! D11   D(7,10,11,3)           -1.3953         -DE/DX =    0.0                 !
 --------------------------------------------------------------------------------
 Lowest energy point so far.  Saving SCF results.
 Largest change from initial coordinates is atom    8       1.078 Angstoms.
 GradGradGradGradGradGradGradGradGradGradGradGradGradGradGradGradGradGrad

 Leave Link  103 at Tue Oct 15 21:39:03 2019, MaxMem=   280000000 cpu:               2.9 elap:               0.2
 (Enter /home/soft/g16/l202.exe)
                          Input orientation:                          
 ---------------------------------------------------------------------
 Center     Atomic      Atomic             Coordinates (Angstroms)
 Number     Number       Type             X           Y           Z
 ---------------------------------------------------------------------
      1          6           0       -1.849337    0.445014   -0.010733
      2          1           0       -2.788803    0.106476    0.414256
      3          8           0       -0.827717   -0.343135    0.409052
      4          6           0       -1.775518    1.497646   -0.826725
      5          1           0       -0.838019    1.837488   -1.256082
      6          1           0       -2.673558    2.043939   -1.084620
      7          6           0        2.625809   -0.230861    0.715605
      8          1           0        3.725172   -0.125460    0.688300
      9          1           0        2.194494   -0.773364    1.576131
     10          8           0        1.931654    0.228029   -0.157294
     11          1           0        0.023772   -0.046328    0.041052
 ---------------------------------------------------------------------
                    Distance matrix (angstroms):
                    1          2          3          4          5
     1  C    0.000000
     2  H    1.085274   0.000000
     3  O    1.356874   2.011973   0.000000
     4  C    1.333914   2.121824   2.411213   0.000000
     5  H    2.124298   3.097094   2.743701   1.085700   0.000000
     6  H    2.095027   2.452280   3.366944   1.082323   1.855055
     7  C    4.583809   5.433473   3.468922   4.973751   4.490403
     8  H    5.647055   6.523860   4.566635   5.931893   5.334463
     9  H    4.511669   5.192044   3.268169   5.166450   4.902460
    10  O    3.790046   4.756485   2.874213   3.975322   3.386558
    11  H    1.937171   2.841338   0.973936   2.524745   2.444177
                    6          7          8          9         10
     6  H    0.000000
     7  C    6.041425   0.000000
     8  H    6.985219   1.104741   0.000000
     9  H    6.222117   1.104920   1.884409   0.000000
    10  O    5.036412   1.205978   2.014123   2.019068   0.000000
    11  H    3.593319   2.694378   3.758398   2.756282   1.937686
                   11
    11  H    0.000000
 Stoichiometry    C3H6O2
 Framework group  C1[X(C3H6O2)]
 Deg. of freedom    27
 Full point group                 C1      NOp   1
 RotChk:  IX=0 Diff= 2.47D-15
 Largest Abelian subgroup         C1      NOp   1
 Largest concise Abelian subgroup C1      NOp   1
                         Standard orientation:                         
 ---------------------------------------------------------------------
 Center     Atomic      Atomic             Coordinates (Angstroms)
 Number     Number       Type             X           Y           Z
 ---------------------------------------------------------------------
      1          6           0       -1.872394   -0.408055    0.043332
      2          1           0       -2.623514   -1.183765    0.152475
      3          8           0       -0.645123   -0.958308   -0.135923
      4          6           0       -2.177605    0.889688    0.088488
      5          1           0       -1.429440    1.668483   -0.023186
      6          1           0       -3.204523    1.197160    0.237891
      7          6           0        2.698287   -0.088106    0.176767
      8          1           0        3.724996    0.316888    0.224761
      9          1           0        2.557258   -1.137873    0.491327
     10          8           0        1.775693    0.589699   -0.202421
     11          1           0        0.040928   -0.273180   -0.228034
 ---------------------------------------------------------------------
 Rotational constants (GHZ):          12.4042913           1.7714259           1.5678921
 Leave Link  202 at Tue Oct 15 21:39:03 2019, MaxMem=   280000000 cpu:               0.2 elap:               0.0
 (Enter /home/soft/g16/l601.exe)
 Copying SCF densities to generalized density rwf, IOpCl= 0 IROHF=0.

 **********************************************************************

            Population analysis using the SCF density.

 **********************************************************************

 Orbital symmetries:
       Occupied  (A) (A) (A) (A) (A) (A) (A) (A) (A) (A) (A) (A)
                 (A) (A) (A) (A) (A) (A) (A) (A)
       Virtual   (A) (A) (A) (A) (A) (A) (A) (A) (A) (A) (A) (A)
                 (A) (A) (A) (A) (A) (A) (A) (A) (A) (A) (A) (A)
                 (A) (A) (A) (A) (A) (A) (A) (A) (A) (A) (A) (A)
                 (A) (A) (A) (A) (A) (A) (A) (A) (A) (A) (A) (A)
                 (A) (A) (A) (A) (A) (A) (A) (A) (A) (A) (A) (A)
                 (A) (A) (A) (A) (A) (A) (A) (A) (A) (A) (A) (A)
                 (A) (A) (A) (A) (A) (A) (A) (A) (A) (A) (A) (A)
                 (A) (A) (A) (A) (A) (A) (A) (A) (A) (A) (A) (A)
                 (A) (A) (A) (A) (A) (A) (A) (A) (A) (A) (A) (A)
 The electronic state is 1-A.
 Alpha  occ. eigenvalues --  -19.17636 -19.13770 -10.30119 -10.21978 -10.14520
 Alpha  occ. eigenvalues --   -1.10201  -1.04947  -0.74293  -0.66782  -0.61508
 Alpha  occ. eigenvalues --   -0.53261  -0.49861  -0.48469  -0.47287  -0.43786
 Alpha  occ. eigenvalues --   -0.38192  -0.37892  -0.35852  -0.30777  -0.22711
 Alpha virt. eigenvalues --   -0.08483  -0.00026   0.02064   0.02462   0.02980
 Alpha virt. eigenvalues --    0.04117   0.04675   0.05493   0.07845   0.08541
 Alpha virt. eigenvalues --    0.09299   0.10306   0.11495   0.12935   0.13508
 Alpha virt. eigenvalues --    0.16205   0.18050   0.18975   0.19489   0.20169
 Alpha virt. eigenvalues --    0.22402   0.23203   0.24727   0.25587   0.26755
 Alpha virt. eigenvalues --    0.28563   0.30646   0.33074   0.35533   0.37089
 Alpha virt. eigenvalues --    0.38617   0.44576   0.47328   0.48976   0.50022
 Alpha virt. eigenvalues --    0.50750   0.54237   0.55631   0.60746   0.63517
 Alpha virt. eigenvalues --    0.64067   0.65254   0.66093   0.71908   0.75415
 Alpha virt. eigenvalues --    0.79607   0.84250   0.86692   0.92455   1.01325
 Alpha virt. eigenvalues --    1.04460   1.05367   1.07257   1.12668   1.17074
 Alpha virt. eigenvalues --    1.19482   1.21422   1.21914   1.33365   1.39960
 Alpha virt. eigenvalues --    1.44036   1.48482   1.49327   1.51985   1.53133
 Alpha virt. eigenvalues --    1.61881   1.76116   1.76862   1.89916   1.94667
 Alpha virt. eigenvalues --    2.03741   2.19577   2.29873   2.32303   2.38660
 Alpha virt. eigenvalues --    2.41713   2.48543   2.58042   2.64779   2.66603
 Alpha virt. eigenvalues --    2.76842   2.80058   2.88154   2.89450   3.02738
 Alpha virt. eigenvalues --    3.09092   3.16215   3.17379   3.18443   3.27198
 Alpha virt. eigenvalues --    3.27835   3.28772   3.33236   3.38680   3.58316
 Alpha virt. eigenvalues --    3.73337   4.01080   4.93911   4.98216   5.05327
 Alpha virt. eigenvalues --    5.14786   5.54886   5.57879  23.41320  23.67117
 Alpha virt. eigenvalues --   24.19167  49.84424  49.87166
          Condensed to atoms (all electrons):
               1          2          3          4          5          6
     1  C    5.142121   0.404987   0.253405   0.422506   0.003831  -0.008854
     2  H    0.404987   0.481519  -0.070310  -0.043590   0.004523  -0.004056
     3  O    0.253405  -0.070310   8.151743  -0.106661  -0.017370   0.007940
     4  C    0.422506  -0.043590  -0.106661   5.495856   0.353925   0.360899
     5  H    0.003831   0.004523  -0.017370   0.353925   0.459450  -0.026913
     6  H   -0.008854  -0.004056   0.007940   0.360899  -0.026913   0.451965
     7  C    0.005430   0.000344  -0.003604  -0.006873   0.000758   0.000099
     8  H   -0.000332  -0.000001   0.001558   0.000445  -0.000008   0.000000
     9  H    0.001655   0.000009  -0.004328  -0.001915   0.000023  -0.000000
    10  O   -0.014102  -0.000459   0.013957   0.019837  -0.000428   0.000092
    11  H    0.040772   0.011198   0.180672  -0.072916   0.008317   0.000746
               7          8          9         10         11
     1  C    0.005430  -0.000332   0.001655  -0.014102   0.040772
     2  H    0.000344  -0.000001   0.000009  -0.000459   0.011198
     3  O   -0.003604   0.001558  -0.004328   0.013957   0.180672
     4  C   -0.006873   0.000445  -0.001915   0.019837  -0.072916
     5  H    0.000758  -0.000008   0.000023  -0.000428   0.008317
     6  H    0.000099   0.000000  -0.000000   0.000092   0.000746
     7  C    5.115369   0.368115   0.383089   0.315731   0.009384
     8  H    0.368115   0.561095  -0.078991  -0.064037  -0.001549
     9  H    0.383089  -0.078991   0.550426  -0.076716   0.006550
    10  O    0.315731  -0.064037  -0.076716   8.042779  -0.015652
    11  H    0.009384  -0.001549   0.006550  -0.015652   0.425413
 Mulliken charges:
               1
     1  C   -0.251418
     2  H    0.215834
     3  O   -0.407003
     4  C   -0.421514
     5  H    0.213892
     6  H    0.218083
     7  C   -0.187842
     8  H    0.213706
     9  H    0.220199
    10  O   -0.221003
    11  H    0.407064
 Sum of Mulliken charges =  -0.00000
 Mulliken charges with hydrogens summed into heavy atoms:
               1
     1  C   -0.035584
     3  O    0.000061
     4  C    0.010462
     7  C    0.246063
    10  O   -0.221003
 Electronic spatial extent (au):  <R**2>=            725.5933
 Charge=             -0.0000 electrons
 Dipole moment (field-independent basis, Debye):
    X=              3.1728    Y=             -0.2831    Z=              0.7805  Tot=              3.2797
 Quadrupole moment (field-independent basis, Debye-Ang):
   XX=            -18.9223   YY=            -32.8714   ZZ=            -33.1838
   XY=             -1.8666   XZ=              1.1597   YZ=             -0.1973
 Traceless Quadrupole moment (field-independent basis, Debye-Ang):
   XX=              9.4035   YY=             -4.5455   ZZ=             -4.8580
   XY=             -1.8666   XZ=              1.1597   YZ=             -0.1973
 Octapole moment (field-independent basis, Debye-Ang**2):
  XXX=             38.7100  YYY=             -0.3311  ZZZ=             -1.6698  XYY=              1.2128
  XXY=             -8.9864  XXZ=              6.1666  XZZ=              8.6432  YZZ=             -1.7638
  YYZ=              0.8470  XYZ=              0.6002
 Hexadecapole moment (field-independent basis, Debye-Ang**3):
 XXXX=           -646.6653 YYYY=           -139.3532 ZZZZ=            -41.5564 XXXY=              8.7987
 XXXZ=              2.2746 YYYX=              4.2527 YYYZ=             -1.1243 ZZZX=              0.8558
 ZZZY=             -0.7205 XXYY=           -148.7172 XXZZ=           -150.5044 YYZZ=            -31.7952
 XXYZ=              1.4390 YYXZ=              0.2721 ZZXY=              4.7256
 N-N= 1.553506142130D+02 E-N=-9.397458795425D+02  KE= 2.674476348467D+02
 No NMR shielding tensors so no spin-rotation constants.
 Leave Link  601 at Tue Oct 15 21:39:03 2019, MaxMem=   280000000 cpu:               2.6 elap:               0.1
 (Enter /home/soft/g16/l9999.exe)


 ... THE UNIVERSE IS NOT ONLY QUEERER THAN WE SUPPOSE,
 BUT QUEERER THAN WE CAN SUPPOSE ... 

                                   -- J. B. S. HALDANE
 Error termination request processed by link 9999.
 Error termination via Lnk1e in /home/soft/g16/l9999.exe at Tue Oct 15 21:39:03 2019.
 Job cpu time:       0 days  0 hours 59 minutes 44.2 seconds.
 Elapsed time:       0 days  0 hours  3 minutes  6.9 seconds.
 File lengths (MBytes):  RWF=     72 Int=      0 D2E=      0 Chk=      8 Scr=      8
