 Entering Gaussian System, Link 0=g16
 Input=irc31.gjf
 Output=irc31.log
 Initial command:
 /home/soft/g16/l1.exe "/tmp/gaussian/Gau-84684.inp" -scrdir="/tmp/gaussian/"
 Entering Link 1 = /home/soft/g16/l1.exe PID=     84685.
  
 Copyright (c) 1988,1990,1992,1993,1995,1998,2003,2009,2016,
            Gaussian, Inc.  All Rights Reserved.
  
 This is part of the Gaussian(R) 16 program.  It is based on
 the Gaussian(R) 09 system (copyright 2009, Gaussian, Inc.),
 the Gaussian(R) 03 system (copyright 2003, Gaussian, Inc.),
 the Gaussian(R) 98 system (copyright 1998, Gaussian, Inc.),
 the Gaussian(R) 94 system (copyright 1995, Gaussian, Inc.),
 the Gaussian 92(TM) system (copyright 1992, Gaussian, Inc.),
 the Gaussian 90(TM) system (copyright 1990, Gaussian, Inc.),
 the Gaussian 88(TM) system (copyright 1988, Gaussian, Inc.),
 the Gaussian 86(TM) system (copyright 1986, Carnegie Mellon
 University), and the Gaussian 82(TM) system (copyright 1983,
 Carnegie Mellon University). Gaussian is a federally registered
 trademark of Gaussian, Inc.
  
 This software contains proprietary and confidential information,
 including trade secrets, belonging to Gaussian, Inc.
  
 This software is provided under written license and may be
 used, copied, transmitted, or stored only in accord with that
 written license.
  
 The following legend is applicable only to US Government
 contracts under FAR:
  
                    RESTRICTED RIGHTS LEGEND
  
 Use, reproduction and disclosure by the US Government is
 subject to restrictions as set forth in subparagraphs (a)
 and (c) of the Commercial Computer Software - Restricted
 Rights clause in FAR 52.227-19.
  
 Gaussian, Inc.
 340 Quinnipiac St., Bldg. 40, Wallingford CT 06492
  
  
 ---------------------------------------------------------------
 Warning -- This program may not be used in any manner that
 competes with the business of Gaussian, Inc. or will provide
 assistance to any competitor of Gaussian, Inc.  The licensee
 of this program is prohibited from giving any competitor of
 Gaussian, Inc. access to this program.  By using this program,
 the user acknowledges that Gaussian, Inc. is engaged in the
 business of creating and licensing software in the field of
 computational chemistry and represents and warrants to the
 licensee that it is not a competitor of Gaussian, Inc. and that
 it will not use this program in any manner prohibited above.
 ---------------------------------------------------------------
  

 Cite this work as:
 Gaussian 16, Revision A.03,
 M. J. Frisch, G. W. Trucks, H. B. Schlegel, G. E. Scuseria, 
 M. A. Robb, J. R. Cheeseman, G. Scalmani, V. Barone, 
 G. A. Petersson, H. Nakatsuji, X. Li, M. Caricato, A. V. Marenich, 
 J. Bloino, B. G. Janesko, R. Gomperts, B. Mennucci, H. P. Hratchian, 
 J. V. Ortiz, A. F. Izmaylov, J. L. Sonnenberg, D. Williams-Young, 
 F. Ding, F. Lipparini, F. Egidi, J. Goings, B. Peng, A. Petrone, 
 T. Henderson, D. Ranasinghe, V. G. Zakrzewski, J. Gao, N. Rega, 
 G. Zheng, W. Liang, M. Hada, M. Ehara, K. Toyota, R. Fukuda, 
 J. Hasegawa, M. Ishida, T. Nakajima, Y. Honda, O. Kitao, H. Nakai, 
 T. Vreven, K. Throssell, J. A. Montgomery, Jr., J. E. Peralta, 
 F. Ogliaro, M. J. Bearpark, J. J. Heyd, E. N. Brothers, K. N. Kudin, 
 V. N. Staroverov, T. A. Keith, R. Kobayashi, J. Normand, 
 K. Raghavachari, A. P. Rendell, J. C. Burant, S. S. Iyengar, 
 J. Tomasi, M. Cossi, J. M. Millam, M. Klene, C. Adamo, R. Cammi, 
 J. W. Ochterski, R. L. Martin, K. Morokuma, O. Farkas, 
 J. B. Foresman, and D. J. Fox, Gaussian, Inc., Wallingford CT, 2016.
 
 ******************************************
 Gaussian 16:  ES64L-G16RevA.03 25-Dec-2016
                15-Oct-2019 
 ******************************************
 %chk=irc3.chk
 %nprocshared=24
 Will use up to   24 processors via shared memory.
 --------------------------------------------------------
 #p irc=(calcfc,maxpoint=30,stepsize=15) b3lyp/6-311+g(d)
 --------------------------------------------------------
 1/10=4,18=10,26=3,38=1,39=15,42=30,44=3,172=1/1,23;
 2/12=2,17=6,18=5,29=1,40=1/2;
 3/5=4,6=6,7=11,11=2,25=1,30=1,71=2,74=-5,140=1/1,2,3;
 4//1;
 5/5=2,38=5/2;
 8/6=4,10=90,11=11/1;
 11/6=1,8=1,9=11,15=111,16=1/1,2,10;
 10/6=1,13=1/2;
 6/7=2,8=2,9=2,10=2,28=1/1;
 7/10=1,18=20,25=1/1,2,3,16;
 1/10=4,18=10,26=3,39=15,42=30,44=3/23(2);
 2/29=1/2;
 99/5=20/99;
 2/29=1/2;
 3/5=4,6=6,7=11,11=2,25=1,30=1,71=2,74=-5,140=1/1,2,3;
 4/5=5,16=3,69=1/1;
 5/5=2,38=5/2;
 8/6=4,10=90,11=11/1;
 11/6=1,8=1,9=11,15=111,16=1/1,2,10;
 10/6=1,13=1/2;
 7/10=1,18=20,25=1/1,2,3,16;
 1/18=10,26=3,39=15,42=30,44=3/23(-8);
 2/29=1/2;
 6/7=2,8=2,9=2,10=2,19=2,28=1/1;
 99/5=20,9=1/99;
 Leave Link    1 at Tue Oct 15 20:48:38 2019, MaxMem=           0 cpu:               2.6 elap:               0.1
 (Enter /home/soft/g16/l101.exe)
 -------------------
 Title Card Required
 -------------------
 Symbolic Z-matrix:
 Charge =  0 Multiplicity = 1
 C                    -1.2314    0.20073   0.23178 
 H                    -1.8926    0.4152    1.07594 
 O                    -1.09721  -1.04336  -0.07763 
 C                    -0.42065   1.18302  -0.3319 
 H                    -0.13308   1.06849  -1.37039 
 H                    -0.54778   2.20605   0.00728 
 C                     1.2911    0.39193   0.29304 
 H                     1.89269   1.14152  -0.2357 
 H                     1.23766   0.56771   1.37787 
 O                     1.30066  -0.81446  -0.1425 
 H                    -0.01879  -1.19049  -0.25151 
 
 ITRead=  0  0  0  0  0  0  0  0  0  0  0
 MicOpt= -1 -1 -1 -1 -1 -1 -1 -1 -1 -1 -1
 NAtoms=     11 NQM=       11 NQMF=       0 NMMI=      0 NMMIF=      0
                NMic=       0 NMicF=      0.
                    Isotopes and Nuclear Properties:
 (Nuclear quadrupole moments (NQMom) in fm**2, nuclear magnetic moments (NMagM)
  in nuclear magnetons)

  Atom         1           2           3           4           5           6           7           8           9          10
 IAtWgt=          12           1          16          12           1           1          12           1           1          16
 AtmWgt=  12.0000000   1.0078250  15.9949146  12.0000000   1.0078250   1.0078250  12.0000000   1.0078250   1.0078250  15.9949146
 NucSpn=           0           1           0           0           1           1           0           1           1           0
 AtZEff=  -0.0000000  -0.0000000  -0.0000000  -0.0000000  -0.0000000  -0.0000000  -0.0000000  -0.0000000  -0.0000000  -0.0000000
 NQMom=    0.0000000   0.0000000   0.0000000   0.0000000   0.0000000   0.0000000   0.0000000   0.0000000   0.0000000   0.0000000
 NMagM=    0.0000000   2.7928460   0.0000000   0.0000000   2.7928460   2.7928460   0.0000000   2.7928460   2.7928460   0.0000000
 AtZNuc=   6.0000000   1.0000000   8.0000000   6.0000000   1.0000000   1.0000000   6.0000000   1.0000000   1.0000000   8.0000000

  Atom        11
 IAtWgt=           1
 AtmWgt=   1.0078250
 NucSpn=           1
 AtZEff=  -0.0000000
 NQMom=    0.0000000
 NMagM=    2.7928460
 AtZNuc=   1.0000000
 Leave Link  101 at Tue Oct 15 20:48:39 2019, MaxMem=   280000000 cpu:               3.4 elap:               0.2
 (Enter /home/soft/g16/l123.exe)
 IRC-IRC-IRC-IRC-IRC-IRC-IRC-IRC-IRC-IRC-IRC-IRC-IRC-IRC-IRC-IRC-IRC-IRC
 ------------------------------------------------------------------------
 INPUT DATA FOR L123
 ------------------------------------------------------------------------
 GENERAL PARAMETERS:
 Follow reaction path in both directions.
 Maximum points per path      =  30
 Step size                    =   0.150 bohr
 Integration scheme           = HPC                                 
    Redo corrector integration= Yes                                 
    DWI Weight Power          =  2
    DWI will use Hessian update vectors when possible.
    Max correction cycles     =  20
 Initial Hessian              = CalcFC
 Hessian evaluation           = All updating
 Hessian updating method      = Bofill                              
 ------------------------------------------------------------------------
 IRC-IRC-IRC-IRC-IRC-IRC-IRC-IRC-IRC-IRC-IRC-IRC-IRC-IRC-IRC-IRC-IRC-IRC
 Leave Link  123 at Tue Oct 15 20:48:39 2019, MaxMem=   280000000 cpu:               0.2 elap:               0.0
 (Enter /home/soft/g16/l202.exe)
                          Input orientation:                          
 ---------------------------------------------------------------------
 Center     Atomic      Atomic             Coordinates (Angstroms)
 Number     Number       Type             X           Y           Z
 ---------------------------------------------------------------------
      1          6           0       -1.231399    0.200731    0.231782
      2          1           0       -1.892598    0.415195    1.075944
      3          8           0       -1.097210   -1.043364   -0.077634
      4          6           0       -0.420652    1.183024   -0.331899
      5          1           0       -0.133078    1.068486   -1.370393
      6          1           0       -0.547777    2.206046    0.007279
      7          6           0        1.291100    0.391933    0.293044
      8          1           0        1.892694    1.141520   -0.235700
      9          1           0        1.237659    0.567706    1.377868
     10          8           0        1.300659   -0.814459   -0.142498
     11          1           0       -0.018790   -1.190492   -0.251507
 ---------------------------------------------------------------------
                    Distance matrix (angstroms):
                    1          2          3          4          5
     1  C    0.000000
     2  H    1.093521   0.000000
     3  O    1.288999   2.022567   0.000000
     4  C    1.392820   2.176743   2.340766   0.000000
     5  H    2.127504   3.083385   2.657195   1.083645   0.000000
     6  H    2.130500   2.481479   3.296627   1.085254   1.834121
     7  C    2.530477   3.278629   2.810961   1.986573   2.291949
     8  H    3.295995   4.071412   3.706512   2.315717   2.323061
     9  H    2.746713   3.148480   3.188361   2.460064   3.111694
    10  O    2.753546   3.632291   2.409643   2.643619   2.666235
    11  H    1.907745   2.802055   1.102211   2.408637   2.523480
                    6          7          8          9         10
     6  H    0.000000
     7  C    2.598872   0.000000
     8  H    2.673603   1.096981   0.000000
     9  H    2.783964   1.100271   1.833558   0.000000
    10  O    3.544376   1.282642   2.045738   2.055690   0.000000
    11  H    3.447212   2.125186   3.015344   2.706434   1.376310
                   11
    11  H    0.000000
 Symmetry turned off by external request.
 Stoichiometry    C3H6O2
 Framework group  C1[X(C3H6O2)]
 Deg. of freedom    27
 Full point group                 C1      NOp   1
 Rotational constants (GHZ):           7.8121119           4.8482834           3.3264499
 Leave Link  202 at Tue Oct 15 20:48:39 2019, MaxMem=   280000000 cpu:               0.2 elap:               0.0
 (Enter /home/soft/g16/l301.exe)
 Standard basis: 6-311+G(d) (5D, 7F)
 Ernie: Thresh=  0.10000D-02 Tol=  0.10000D-05 Strict=F.
   128 basis functions,   210 primitive gaussians,   133 cartesian basis functions
    20 alpha electrons       20 beta electrons
       nuclear repulsion energy       180.2958426922 Hartrees.
 IExCor=  402 DFT=T Ex+Corr=B3LYP ExCW=0 ScaHFX=  0.200000
 ScaDFX=  0.800000  0.720000  1.000000  0.810000 ScalE2=  1.000000  1.000000
 IRadAn=      5 IRanWt=     -1 IRanGd=            0 ICorTp=0 IEmpDi=  4
 NAtoms=   11 NActive=   11 NUniq=   11 SFac= 1.00D+00 NAtFMM=   60 NAOKFM=F Big=F
 Integral buffers will be    131072 words long.
 Raffenetti 2 integral format.
 Two-electron integral symmetry is turned off.
 Leave Link  301 at Tue Oct 15 20:48:39 2019, MaxMem=   280000000 cpu:               1.7 elap:               0.1
 (Enter /home/soft/g16/l302.exe)
 NPDir=0 NMtPBC=     1 NCelOv=     1 NCel=       1 NClECP=     1 NCelD=      1
         NCelK=      1 NCelE2=     1 NClLst=     1 CellRange=     0.0.
 One-electron integrals computed using PRISM.
 NBasis=   128 RedAO= T EigKep=  8.85D-05  NBF=   128
 NBsUse=   128 1.00D-06 EigRej= -1.00D+00 NBFU=   128
 Precomputing XC quadrature grid using
 IXCGrd= 4 IRadAn=           5 IRanWt=          -1 IRanGd=           0 AccXCQ= 0.00D+00.
 Generated NRdTot=       0 NPtTot=           0 NUsed=           0 NTot=          32
 NSgBfM=   133   133   133   133   133 MxSgAt=    11 MxSgA2=    11.
 Leave Link  302 at Tue Oct 15 20:48:39 2019, MaxMem=   280000000 cpu:               4.2 elap:               0.3
 (Enter /home/soft/g16/l303.exe)
 DipDrv:  MaxL=1.
 Leave Link  303 at Tue Oct 15 20:48:39 2019, MaxMem=   280000000 cpu:               1.6 elap:               0.1
 (Enter /home/soft/g16/l401.exe)
 ExpMin= 4.38D-02 ExpMax= 8.59D+03 ExpMxC= 1.30D+03 IAcc=3 IRadAn=         5 AccDes= 0.00D+00
 Harris functional with IExCor=  402 and IRadAn=       5 diagonalized for initial guess.
 HarFok:  IExCor=  402 AccDes= 0.00D+00 IRadAn=         5 IDoV= 1 UseB2=F ITyADJ=14
 ICtDFT=  3500011 ScaDFX=  1.000000  1.000000  1.000000  1.000000
 FoFCou: FMM=F IPFlag=           0 FMFlag=      100000 FMFlg1=           0
         NFxFlg=           0 DoJE=T BraDBF=F KetDBF=T FulRan=T
         wScrn=  0.000000 ICntrl=       500 IOpCl=  0 I1Cent=   200000004 NGrid=           0
         NMat0=    1 NMatS0=      1 NMatT0=    0 NMatD0=    1 NMtDS0=    0 NMtDT0=    0
 Symmetry not used in FoFCou.
 Harris En= -268.404006294945    
 JPrj=0 DoOrth=F DoCkMO=F.
 Leave Link  401 at Tue Oct 15 20:48:39 2019, MaxMem=   280000000 cpu:               7.8 elap:               0.4
 (Enter /home/soft/g16/l502.exe)
 Keep R1 ints in memory in canonical form, NReq=57089522.
 FoFCou: FMM=F IPFlag=           0 FMFlag=           0 FMFlg1=           0
         NFxFlg=           0 DoJE=F BraDBF=F KetDBF=F FulRan=T
         wScrn=  0.000000 ICntrl=       600 IOpCl=  0 I1Cent=           0 NGrid=           0
         NMat0=    1 NMatS0=   8256 NMatT0=    0 NMatD0=    1 NMtDS0=    0 NMtDT0=    0
 Symmetry not used in FoFCou.
 Two-electron integral symmetry not used.
 Closed shell SCF:
 Using DIIS extrapolation, IDIIS=  1040.
 NGot=   280000000 LenX=   245875378 LenY=   245857248
 Requested convergence on RMS density matrix=1.00D-08 within 128 cycles.
 Requested convergence on MAX density matrix=1.00D-06.
 Requested convergence on             energy=1.00D-06.
 No special actions if energy rises.

 Cycle   1  Pass 1  IDiag  1:
 E= -268.224717032009    
 DIIS: error= 3.15D-02 at cycle   1 NSaved=   1.
 NSaved= 1 IEnMin= 1 EnMin= -268.224717032009     IErMin= 1 ErrMin= 3.15D-02
 ErrMax= 3.15D-02  0.00D+00 EMaxC= 1.00D-01 BMatC= 2.01D-01 BMatP= 2.01D-01
 IDIUse=3 WtCom= 6.85D-01 WtEn= 3.15D-01
 Coeff-Com:  0.100D+01
 Coeff-En:   0.100D+01
 Coeff:      0.100D+01
 Gap=     0.122 Goal=   None    Shift=    0.000
 GapD=    0.122 DampG=1.000 DampE=0.500 DampFc=0.5000 IDamp=-1.
 Damping current iteration by 5.00D-01
 RMSDP=1.57D-02 MaxDP=6.60D-01              OVMax= 3.44D-01

 Cycle   2  Pass 1  IDiag  1:
 E= -268.243194242758     Delta-E=       -0.018477210749 Rises=F Damp=T
 DIIS: error= 2.05D-02 at cycle   2 NSaved=   2.
 NSaved= 2 IEnMin= 2 EnMin= -268.243194242758     IErMin= 2 ErrMin= 2.05D-02
 ErrMax= 2.05D-02  0.00D+00 EMaxC= 1.00D-01 BMatC= 3.99D-02 BMatP= 2.01D-01
 IDIUse=3 WtCom= 7.95D-01 WtEn= 2.05D-01
 Coeff-Com:  0.255D+00 0.745D+00
 Coeff-En:   0.443D+00 0.557D+00
 Coeff:      0.293D+00 0.707D+00
 Gap=     0.217 Goal=   None    Shift=    0.000
 RMSDP=6.42D-03 MaxDP=2.77D-01 DE=-1.85D-02 OVMax= 2.26D-01

 Cycle   3  Pass 1  IDiag  1:
 E= -268.346287629554     Delta-E=       -0.103093386797 Rises=F Damp=F
 DIIS: error= 1.54D-02 at cycle   3 NSaved=   3.
 NSaved= 3 IEnMin= 3 EnMin= -268.346287629554     IErMin= 3 ErrMin= 1.54D-02
 ErrMax= 1.54D-02  0.00D+00 EMaxC= 1.00D-01 BMatC= 2.90D-02 BMatP= 3.99D-02
 IDIUse=3 WtCom= 8.46D-01 WtEn= 1.54D-01
 Coeff-Com:  0.848D-01 0.456D+00 0.459D+00
 Coeff-En:   0.000D+00 0.000D+00 0.100D+01
 Coeff:      0.717D-01 0.386D+00 0.543D+00
 Gap=     0.191 Goal=   None    Shift=    0.000
 RMSDP=1.85D-03 MaxDP=2.51D-02 DE=-1.03D-01 OVMax= 9.47D-02

 Cycle   4  Pass 1  IDiag  1:
 E= -268.367303258238     Delta-E=       -0.021015628684 Rises=F Damp=F
 DIIS: error= 5.83D-03 at cycle   4 NSaved=   4.
 NSaved= 4 IEnMin= 4 EnMin= -268.367303258238     IErMin= 4 ErrMin= 5.83D-03
 ErrMax= 5.83D-03  0.00D+00 EMaxC= 1.00D-01 BMatC= 6.13D-03 BMatP= 2.90D-02
 IDIUse=3 WtCom= 9.42D-01 WtEn= 5.83D-02
 Coeff-Com:  0.116D-01 0.109D+00 0.330D+00 0.549D+00
 Coeff-En:   0.000D+00 0.000D+00 0.199D+00 0.801D+00
 Coeff:      0.109D-01 0.103D+00 0.322D+00 0.564D+00
 Gap=     0.188 Goal=   None    Shift=    0.000
 RMSDP=7.34D-04 MaxDP=1.38D-02 DE=-2.10D-02 OVMax= 2.85D-02

 Cycle   5  Pass 1  IDiag  1:
 E= -268.372284522064     Delta-E=       -0.004981263826 Rises=F Damp=F
 DIIS: error= 1.45D-03 at cycle   5 NSaved=   5.
 NSaved= 5 IEnMin= 5 EnMin= -268.372284522064     IErMin= 5 ErrMin= 1.45D-03
 ErrMax= 1.45D-03  0.00D+00 EMaxC= 1.00D-01 BMatC= 3.28D-04 BMatP= 6.13D-03
 IDIUse=3 WtCom= 9.85D-01 WtEn= 1.45D-02
 Coeff-Com: -0.333D-03 0.234D-01 0.135D+00 0.315D+00 0.526D+00
 Coeff-En:   0.000D+00 0.000D+00 0.000D+00 0.000D+00 0.100D+01
 Coeff:     -0.328D-03 0.231D-01 0.133D+00 0.311D+00 0.533D+00
 Gap=     0.184 Goal=   None    Shift=    0.000
 RMSDP=1.53D-04 MaxDP=2.58D-03 DE=-4.98D-03 OVMax= 5.60D-03

 Cycle   6  Pass 1  IDiag  1:
 E= -268.372507271489     Delta-E=       -0.000222749425 Rises=F Damp=F
 DIIS: error= 5.45D-04 at cycle   6 NSaved=   6.
 NSaved= 6 IEnMin= 6 EnMin= -268.372507271489     IErMin= 6 ErrMin= 5.45D-04
 ErrMax= 5.45D-04  0.00D+00 EMaxC= 1.00D-01 BMatC= 5.24D-05 BMatP= 3.28D-04
 IDIUse=3 WtCom= 9.95D-01 WtEn= 5.45D-03
 Coeff-Com: -0.191D-02 0.156D-02 0.399D-01 0.117D+00 0.336D+00 0.507D+00
 Coeff-En:   0.000D+00 0.000D+00 0.000D+00 0.000D+00 0.119D+00 0.881D+00
 Coeff:     -0.190D-02 0.155D-02 0.396D-01 0.117D+00 0.335D+00 0.509D+00
 Gap=     0.184 Goal=   None    Shift=    0.000
 RMSDP=5.62D-05 MaxDP=8.23D-04 DE=-2.23D-04 OVMax= 2.19D-03

 Cycle   7  Pass 1  IDiag  1:
 E= -268.372545950447     Delta-E=       -0.000038678957 Rises=F Damp=F
 DIIS: error= 1.44D-04 at cycle   7 NSaved=   7.
 NSaved= 7 IEnMin= 7 EnMin= -268.372545950447     IErMin= 7 ErrMin= 1.44D-04
 ErrMax= 1.44D-04  0.00D+00 EMaxC= 1.00D-01 BMatC= 2.98D-06 BMatP= 5.24D-05
 IDIUse=3 WtCom= 9.99D-01 WtEn= 1.44D-03
 Coeff-Com: -0.766D-03-0.947D-03 0.103D-01 0.364D-01 0.141D+00 0.271D+00
 Coeff-Com:  0.543D+00
 Coeff-En:   0.000D+00 0.000D+00 0.000D+00 0.000D+00 0.000D+00 0.000D+00
 Coeff-En:   0.100D+01
 Coeff:     -0.765D-03-0.946D-03 0.103D-01 0.363D-01 0.141D+00 0.271D+00
 Coeff:      0.543D+00
 Gap=     0.184 Goal=   None    Shift=    0.000
 RMSDP=1.62D-05 MaxDP=4.16D-04 DE=-3.87D-05 OVMax= 7.00D-04

 Cycle   8  Pass 1  IDiag  1:
 E= -268.372548484676     Delta-E=       -0.000002534229 Rises=F Damp=F
 DIIS: error= 3.57D-05 at cycle   8 NSaved=   8.
 NSaved= 8 IEnMin= 8 EnMin= -268.372548484676     IErMin= 8 ErrMin= 3.57D-05
 ErrMax= 3.57D-05  0.00D+00 EMaxC= 1.00D-01 BMatC= 1.97D-07 BMatP= 2.98D-06
 IDIUse=1 WtCom= 1.00D+00 WtEn= 0.00D+00
 Coeff-Com: -0.928D-04-0.580D-03 0.540D-03 0.402D-02 0.307D-01 0.642D-01
 Coeff-Com:  0.246D+00 0.656D+00
 Coeff:     -0.928D-04-0.580D-03 0.540D-03 0.402D-02 0.307D-01 0.642D-01
 Coeff:      0.246D+00 0.656D+00
 Gap=     0.184 Goal=   None    Shift=    0.000
 RMSDP=5.11D-06 MaxDP=7.93D-05 DE=-2.53D-06 OVMax= 1.99D-04

 Cycle   9  Pass 1  IDiag  1:
 E= -268.372548672625     Delta-E=       -0.000000187949 Rises=F Damp=F
 DIIS: error= 7.66D-06 at cycle   9 NSaved=   9.
 NSaved= 9 IEnMin= 9 EnMin= -268.372548672625     IErMin= 9 ErrMin= 7.66D-06
 ErrMax= 7.66D-06  0.00D+00 EMaxC= 1.00D-01 BMatC= 1.15D-08 BMatP= 1.97D-07
 IDIUse=1 WtCom= 1.00D+00 WtEn= 0.00D+00
 Coeff-Com:  0.388D-05-0.150D-03-0.292D-03-0.118D-03 0.574D-02 0.123D-01
 Coeff-Com:  0.686D-01 0.281D+00 0.633D+00
 Coeff:      0.388D-05-0.150D-03-0.292D-03-0.118D-03 0.574D-02 0.123D-01
 Coeff:      0.686D-01 0.281D+00 0.633D+00
 Gap=     0.184 Goal=   None    Shift=    0.000
 RMSDP=1.04D-06 MaxDP=2.20D-05 DE=-1.88D-07 OVMax= 5.01D-05

 Cycle  10  Pass 1  IDiag  1:
 E= -268.372548681652     Delta-E=       -0.000000009027 Rises=F Damp=F
 DIIS: error= 4.32D-06 at cycle  10 NSaved=  10.
 NSaved=10 IEnMin=10 EnMin= -268.372548681652     IErMin=10 ErrMin= 4.32D-06
 ErrMax= 4.32D-06  0.00D+00 EMaxC= 1.00D-01 BMatC= 3.00D-09 BMatP= 1.15D-08
 IDIUse=1 WtCom= 1.00D+00 WtEn= 0.00D+00
 Coeff-Com:  0.803D-05-0.222D-04-0.316D-03-0.719D-03-0.676D-03-0.131D-02
 Coeff-Com:  0.878D-02 0.882D-01 0.389D+00 0.517D+00
 Coeff:      0.803D-05-0.222D-04-0.316D-03-0.719D-03-0.676D-03-0.131D-02
 Coeff:      0.878D-02 0.882D-01 0.389D+00 0.517D+00
 Gap=     0.184 Goal=   None    Shift=    0.000
 RMSDP=4.43D-07 MaxDP=1.07D-05 DE=-9.03D-09 OVMax= 1.72D-05

 Cycle  11  Pass 1  IDiag  1:
 E= -268.372548684558     Delta-E=       -0.000000002906 Rises=F Damp=F
 DIIS: error= 7.92D-07 at cycle  11 NSaved=  11.
 NSaved=11 IEnMin=11 EnMin= -268.372548684558     IErMin=11 ErrMin= 7.92D-07
 ErrMax= 7.92D-07  0.00D+00 EMaxC= 1.00D-01 BMatC= 5.07D-11 BMatP= 3.00D-09
 IDIUse=1 WtCom= 1.00D+00 WtEn= 0.00D+00
 Coeff-Com: -0.609D-05 0.158D-04-0.406D-04-0.912D-04-0.387D-03-0.700D-03
 Coeff-Com: -0.237D-02-0.263D-02 0.209D-01 0.547D-01 0.931D+00
 Coeff:     -0.609D-05 0.158D-04-0.406D-04-0.912D-04-0.387D-03-0.700D-03
 Coeff:     -0.237D-02-0.263D-02 0.209D-01 0.547D-01 0.931D+00
 Gap=     0.184 Goal=   None    Shift=    0.000
 RMSDP=8.62D-08 MaxDP=1.58D-06 DE=-2.91D-09 OVMax= 4.82D-06

 Cycle  12  Pass 1  IDiag  1:
 E= -268.372548684610     Delta-E=       -0.000000000053 Rises=F Damp=F
 DIIS: error= 5.18D-08 at cycle  12 NSaved=  12.
 NSaved=12 IEnMin=12 EnMin= -268.372548684610     IErMin=12 ErrMin= 5.18D-08
 ErrMax= 5.18D-08  0.00D+00 EMaxC= 1.00D-01 BMatC= 7.21D-13 BMatP= 5.07D-11
 IDIUse=1 WtCom= 1.00D+00 WtEn= 0.00D+00
 Coeff-Com: -0.148D-05 0.341D-05 0.140D-05 0.314D-05-0.206D-04-0.435D-04
 Coeff-Com: -0.436D-03-0.246D-02-0.809D-02-0.113D-01 0.101D+00 0.922D+00
 Coeff:     -0.148D-05 0.341D-05 0.140D-05 0.314D-05-0.206D-04-0.435D-04
 Coeff:     -0.436D-03-0.246D-02-0.809D-02-0.113D-01 0.101D+00 0.922D+00
 Gap=     0.184 Goal=   None    Shift=    0.000
 RMSDP=1.39D-08 MaxDP=2.57D-07 DE=-5.28D-11 OVMax= 6.96D-07

 Cycle  13  Pass 1  IDiag  1:
 E= -268.372548684611     Delta-E=       -0.000000000001 Rises=F Damp=F
 DIIS: error= 1.10D-08 at cycle  13 NSaved=  13.
 NSaved=13 IEnMin=13 EnMin= -268.372548684611     IErMin=13 ErrMin= 1.10D-08
 ErrMax= 1.10D-08  0.00D+00 EMaxC= 1.00D-01 BMatC= 2.68D-14 BMatP= 7.21D-13
 IDIUse=1 WtCom= 1.00D+00 WtEn= 0.00D+00
 Coeff-Com:  0.471D-08 0.454D-07 0.136D-05 0.287D-05 0.114D-04 0.125D-04
 Coeff-Com:  0.229D-04-0.275D-03-0.197D-02-0.389D-02-0.237D-01 0.128D+00
 Coeff-Com:  0.902D+00
 Coeff:      0.471D-08 0.454D-07 0.136D-05 0.287D-05 0.114D-04 0.125D-04
 Coeff:      0.229D-04-0.275D-03-0.197D-02-0.389D-02-0.237D-01 0.128D+00
 Coeff:      0.902D+00
 Gap=     0.184 Goal=   None    Shift=    0.000
 RMSDP=3.32D-09 MaxDP=3.82D-08 DE=-9.66D-13 OVMax= 1.78D-07

 SCF Done:  E(RB3LYP) =  -268.372548685     A.U. after   13 cycles
            NFock= 13  Conv=0.33D-08     -V/T= 2.0036
 KE= 2.674194160943D+02 PE=-9.894010639507D+02 EE= 2.733132564795D+02
 Leave Link  502 at Tue Oct 15 20:48:43 2019, MaxMem=   280000000 cpu:              61.5 elap:               3.2
 (Enter /home/soft/g16/l801.exe)
 DoSCS=F DFT=T ScalE2(SS,OS)=  1.000000  1.000000
 Range of M.O.s used for correlation:     1   128
 NBasis=   128 NAE=    20 NBE=    20 NFC=     0 NFV=     0
 NROrb=    128 NOA=    20 NOB=    20 NVA=   108 NVB=   108

 **** Warning!!: The largest alpha MO coefficient is  0.38229641D+02

 Leave Link  801 at Tue Oct 15 20:48:43 2019, MaxMem=   280000000 cpu:               0.6 elap:               0.0
 (Enter /home/soft/g16/l1101.exe)
 Using compressed storage, NAtomX=    11.
 Will process     12 centers per pass.
 Leave Link 1101 at Tue Oct 15 20:48:43 2019, MaxMem=   280000000 cpu:               3.2 elap:               0.2
 (Enter /home/soft/g16/l1102.exe)
 Symmetrizing basis deriv contribution to polar:
 IMax=3 JMax=2 DiffMx= 0.00D+00
 Leave Link 1102 at Tue Oct 15 20:48:43 2019, MaxMem=   280000000 cpu:               1.2 elap:               0.1
 (Enter /home/soft/g16/l1110.exe)
 Forming Gx(P) for the SCF density, NAtomX=    11.
 Integral derivatives from FoFJK, PRISM(SPDF).
 Do as many integral derivatives as possible in FoFJK.
 G2DrvN: MDV=     279999094.
 G2DrvN: will do    12 centers at a time, making    1 passes.
 Calling FoFCou, ICntrl=  3107 FMM=F I1Cent=   0 AccDes= 0.00D+00.
 FoFJK:  IHMeth= 1 ICntrl=    3107 DoSepK=F KAlg= 0 I1Cent=           0 FoldK=F
 IRaf=         0 NMat=       1 IRICut=       1 DoRegI=T DoRafI=F ISym2E= 0 IDoP0=0 IntGTp=1.
 FoFCou: FMM=F IPFlag=           0 FMFlag=      100000 FMFlg1=           0
         NFxFlg=           0 DoJE=F BraDBF=F KetDBF=F FulRan=T
         wScrn=  0.000000 ICntrl=      3107 IOpCl=  0 I1Cent=           0 NGrid=           0
         NMat0=    1 NMatS0=      1 NMatT0=    0 NMatD0=    1 NMtDS0=    0 NMtDT0=    0
 Symmetry not used in FoFCou.
 End of G2Drv F.D. properties file   721 does not exist.
 End of G2Drv F.D. properties file   722 does not exist.
 End of G2Drv F.D. properties file   788 does not exist.
 Leave Link 1110 at Tue Oct 15 20:48:47 2019, MaxMem=   280000000 cpu:              92.1 elap:               3.9
 (Enter /home/soft/g16/l1002.exe)
 Minotr:  Closed shell wavefunction.
          IDoAtm=11111111111
          Direct CPHF calculation.
          Differentiating once with respect to nuclear coordinates.
          Requested convergence is 1.0D-08 RMS, and 1.0D-07 maximum.
          Secondary convergence is 1.0D-12 RMS, and 1.0D-12 maximum.
          NewPWx=T KeepS1=F KeepF1=F KeepIn=T MapXYZ=F SortEE=F KeepMc=T.
         3335 words used for storage of precomputed grid.
 Keep R1 ints in memory in canonical form, NReq=57016185.
 FoFCou: FMM=F IPFlag=           0 FMFlag=           0 FMFlg1=           0
         NFxFlg=           0 DoJE=F BraDBF=F KetDBF=F FulRan=T
         wScrn=  0.000000 ICntrl=       600 IOpCl=  0 I1Cent=           0 NGrid=           0
         NMat0=    1 NMatS0=   8256 NMatT0=    0 NMatD0=    1 NMtDS0=    0 NMtDT0=    0
 Symmetry not used in FoFCou.
 Two-electron integral symmetry not used.
          MDV=     280000000 using IRadAn=       1.
          Solving linear equations simultaneously, MaxMat=       0.
          There are    36 degrees of freedom in the 1st order CPHF.  IDoFFX=6 NUNeed=     0.
     30 vectors produced by pass  0 Test12= 6.00D-15 2.78D-09 XBig12= 1.70D-01 1.19D-01.
 AX will form    30 AO Fock derivatives at one time.
     30 vectors produced by pass  1 Test12= 6.00D-15 2.78D-09 XBig12= 3.07D-02 5.41D-02.
     30 vectors produced by pass  2 Test12= 6.00D-15 2.78D-09 XBig12= 4.00D-04 2.84D-03.
     30 vectors produced by pass  3 Test12= 6.00D-15 2.78D-09 XBig12= 1.39D-06 1.92D-04.
     30 vectors produced by pass  4 Test12= 6.00D-15 2.78D-09 XBig12= 2.14D-09 5.29D-06.
     28 vectors produced by pass  5 Test12= 6.00D-15 2.78D-09 XBig12= 2.27D-12 1.57D-07.
      2 vectors produced by pass  6 Test12= 6.00D-15 2.78D-09 XBig12= 2.26D-15 6.24D-09.
 InvSVY:  IOpt=1 It=  1 EMax= 1.55D-15
 Solved reduced A of dimension   180 with    30 vectors.
 End of Minotr F.D. properties file   721 does not exist.
 End of Minotr F.D. properties file   722 does not exist.
 End of Minotr F.D. properties file   788 does not exist.
 Leave Link 1002 at Tue Oct 15 20:48:52 2019, MaxMem=   280000000 cpu:             108.4 elap:               4.6
 (Enter /home/soft/g16/l601.exe)
 Copying SCF densities to generalized density rwf, IOpCl= 0 IROHF=0.

 **********************************************************************

            Population analysis using the SCF density.

 **********************************************************************

 Alpha  occ. eigenvalues --  -19.16533 -19.10674 -10.28113 -10.26287 -10.19900
 Alpha  occ. eigenvalues --   -1.09559  -1.02067  -0.78577  -0.64466  -0.63879
 Alpha  occ. eigenvalues --   -0.54136  -0.52034  -0.47316  -0.45659  -0.43739
 Alpha  occ. eigenvalues --   -0.42398  -0.36919  -0.35560  -0.27187  -0.25781
 Alpha virt. eigenvalues --   -0.07359   0.00052   0.01590   0.01851   0.03355
 Alpha virt. eigenvalues --    0.04918   0.06028   0.06669   0.07055   0.07883
 Alpha virt. eigenvalues --    0.08480   0.11290   0.12242   0.14157   0.16295
 Alpha virt. eigenvalues --    0.16585   0.19488   0.19801   0.20372   0.21588
 Alpha virt. eigenvalues --    0.23177   0.23635   0.25411   0.27161   0.28425
 Alpha virt. eigenvalues --    0.29246   0.30207   0.31414   0.33278   0.34522
 Alpha virt. eigenvalues --    0.41093   0.42693   0.45017   0.47524   0.48752
 Alpha virt. eigenvalues --    0.50282   0.52971   0.57370   0.60798   0.64040
 Alpha virt. eigenvalues --    0.64402   0.65317   0.66807   0.68581   0.70199
 Alpha virt. eigenvalues --    0.71611   0.79477   0.87629   0.93159   1.02056
 Alpha virt. eigenvalues --    1.04254   1.10722   1.12488   1.13833   1.17361
 Alpha virt. eigenvalues --    1.22222   1.31278   1.32183   1.36166   1.42130
 Alpha virt. eigenvalues --    1.48603   1.52039   1.57584   1.58804   1.61986
 Alpha virt. eigenvalues --    1.68108   1.73796   1.76060   1.88430   1.91192
 Alpha virt. eigenvalues --    1.99907   2.11314   2.37153   2.38106   2.42203
 Alpha virt. eigenvalues --    2.48506   2.50887   2.58486   2.63234   2.68203
 Alpha virt. eigenvalues --    2.80510   2.86023   3.00001   3.02261   3.08578
 Alpha virt. eigenvalues --    3.09328   3.12336   3.17072   3.18116   3.20512
 Alpha virt. eigenvalues --    3.26617   3.28918   3.33178   3.39377   3.61069
 Alpha virt. eigenvalues --    3.91279   4.00540   4.96884   5.04591   5.05677
 Alpha virt. eigenvalues --    5.11737   5.55255   5.58580  23.46885  23.61563
 Alpha virt. eigenvalues --   23.94402  49.86756  49.90686
          Condensed to atoms (all electrons):
               1          2          3          4          5          6
     1  C    5.249660   0.362173   0.344763   0.177938  -0.054371  -0.049865
     2  H    0.362173   0.480058  -0.059949  -0.000365   0.002022  -0.001842
     3  O    0.344763  -0.059949   8.011623  -0.116538  -0.008456   0.011028
     4  C    0.177938  -0.000365  -0.116538   6.072913   0.416120   0.365876
     5  H   -0.054371   0.002022  -0.008456   0.416120   0.391835  -0.022917
     6  H   -0.049865  -0.001842   0.011028   0.365876  -0.022917   0.439456
     7  C    0.043815  -0.012977  -0.036055  -0.091013  -0.023597   0.000605
     8  H    0.032498  -0.000353   0.006012  -0.080117  -0.010943  -0.001028
     9  H   -0.039895  -0.000755  -0.003541  -0.025445   0.004033   0.002460
    10  O   -0.057558  -0.002574   0.014022  -0.114899  -0.002666   0.007400
    11  H   -0.039349   0.004013   0.194702   0.032040   0.000630  -0.001733
               7          8          9         10         11
     1  C    0.043815   0.032498  -0.039895  -0.057558  -0.039349
     2  H   -0.012977  -0.000353  -0.000755  -0.002574   0.004013
     3  O   -0.036055   0.006012  -0.003541   0.014022   0.194702
     4  C   -0.091013  -0.080117  -0.025445  -0.114899   0.032040
     5  H   -0.023597  -0.010943   0.004033  -0.002666   0.000630
     6  H    0.000605  -0.001028   0.002460   0.007400  -0.001733
     7  C    5.441595   0.395781   0.395781   0.290675  -0.022969
     8  H    0.395781   0.567740  -0.081359  -0.061627  -0.005014
     9  H    0.395781  -0.081359   0.580710  -0.064714   0.006859
    10  O    0.290675  -0.061627  -0.064714   8.278449   0.096843
    11  H   -0.022969  -0.005014   0.006859   0.096843   0.258749
 Mulliken charges:
               1
     1  C    0.030192
     2  H    0.230550
     3  O   -0.357612
     4  C   -0.636511
     5  H    0.308309
     6  H    0.250560
     7  C   -0.381640
     8  H    0.238409
     9  H    0.225866
    10  O   -0.383351
    11  H    0.475228
 Sum of Mulliken charges =  -0.00000
 Mulliken charges with hydrogens summed into heavy atoms:
               1
     1  C    0.260742
     3  O    0.117616
     4  C   -0.077641
     7  C    0.082634
    10  O   -0.383351
 APT charges:
               1
     1  C   -0.216894
     2  H    0.553408
     3  O   -0.337647
     4  C   -1.085016
     5  H    0.448423
     6  H    0.547639
     7  C   -0.813332
     8  H    0.516038
     9  H    0.414217
    10  O   -0.413233
    11  H    0.386397
 Sum of APT charges =  -0.00000
 APT charges with hydrogens summed into heavy atoms:
               1
     1  C    0.336514
     3  O    0.048750
     4  C   -0.088954
     7  C    0.116922
    10  O   -0.413233
 Electronic spatial extent (au):  <R**2>=            398.9156
 Charge=             -0.0000 electrons
 Dipole moment (field-independent basis, Debye):
    X=             -1.0165    Y=              3.5126    Z=              0.8175  Tot=              3.7469
 Quadrupole moment (field-independent basis, Debye-Ang):
   XX=            -33.0232   YY=            -32.3034   ZZ=            -29.8043
   XY=              1.1692   XZ=             -0.6832   YZ=              0.0781
 Traceless Quadrupole moment (field-independent basis, Debye-Ang):
   XX=             -1.3129   YY=             -0.5931   ZZ=              1.9060
   XY=              1.1692   XZ=             -0.6832   YZ=              0.0781
 Octapole moment (field-independent basis, Debye-Ang**2):
  XXX=             -3.5126  YYY=             -1.2194  ZZZ=             -0.2896  XYY=              0.8910
  XXY=              7.0609  XXZ=              4.2255  XZZ=             -0.7153  YZZ=             -0.7582
  YYZ=             -0.7641  XYZ=             -1.6935
 Hexadecapole moment (field-independent basis, Debye-Ang**3):
 XXXX=           -270.9873 YYYY=           -173.9120 ZZZZ=            -58.3402 XXXY=              7.4151
 XXXZ=             -5.5703 YYYX=             -0.7198 YYYZ=              3.5877 ZZZX=             -1.5612
 ZZZY=             -0.4141 XXYY=            -84.7792 XXZZ=            -54.4076 YYZZ=            -41.2153
 XXYZ=              0.4401 YYXZ=             -1.7770 ZZXY=              1.2725
 N-N= 1.802958426922D+02 E-N=-9.894010634946D+02  KE= 2.674194160943D+02
  Exact polarizability:   0.000   0.000   0.000   0.000   0.000   0.000
 Approx polarizability:  99.934  -0.791  79.805  -3.229   1.840  52.860
 No NMR shielding tensors so no spin-rotation constants.
 Leave Link  601 at Tue Oct 15 20:48:52 2019, MaxMem=   280000000 cpu:               2.9 elap:               0.1
 (Enter /home/soft/g16/l701.exe)
 ... and contract with generalized density number  0.
 Compute integral second derivatives.
 Leave Link  701 at Tue Oct 15 20:48:52 2019, MaxMem=   280000000 cpu:               3.4 elap:               0.2
 (Enter /home/soft/g16/l702.exe)
 L702 exits ... SP integral derivatives will be done elsewhere.
 Leave Link  702 at Tue Oct 15 20:48:52 2019, MaxMem=   280000000 cpu:               0.5 elap:               0.0
 (Enter /home/soft/g16/l703.exe)
 Integral derivatives from FoFJK, PRISM(SPDF).
 Compute integral second derivatives, UseDBF=F ICtDFT=           0.
 Calling FoFJK, ICntrl=    100147 FMM=F ISym2X=0 I1Cent= 0 IOpClX= 0 NMat=1 NMatS=1 NMatT=0.
 FoFJK:  IHMeth= 1 ICntrl=  100147 DoSepK=F KAlg= 0 I1Cent=           0 FoldK=F
 IRaf=         0 NMat=       1 IRICut=       1 DoRegI=T DoRafI=F ISym2E= 0 IDoP0=0 IntGTp=1.
 FoFCou: FMM=F IPFlag=           0 FMFlag=      100000 FMFlg1=         800
         NFxFlg=           0 DoJE=F BraDBF=F KetDBF=F FulRan=T
         wScrn=  0.000000 ICntrl=    100147 IOpCl=  0 I1Cent=           0 NGrid=           0
         NMat0=    1 NMatS0=      1 NMatT0=    0 NMatD0=    1 NMtDS0=    0 NMtDT0=    0
 Symmetry not used in FoFCou.
 Leave Link  703 at Tue Oct 15 20:48:58 2019, MaxMem=   280000000 cpu:             147.9 elap:               6.2
 (Enter /home/soft/g16/l716.exe)
 Dipole        =-3.99932380D-01 1.38194509D+00 3.21619918D-01
 Polarizability= 0.00000000D+00 0.00000000D+00 0.00000000D+00
                 0.00000000D+00 0.00000000D+00 0.00000000D+00
 -------------------------------------------------------------------
 Center     Atomic                   Forces (Hartrees/Bohr)
 Number     Number              X              Y              Z
 -------------------------------------------------------------------
      1        6           0.000010629    0.000005593    0.000026690
      2        1           0.000003259   -0.000003955    0.000004729
      3        8           0.000029659    0.000039176   -0.000057417
      4        6          -0.000033888    0.000021335   -0.000012192
      5        1           0.000002136   -0.000004948    0.000002475
      6        1          -0.000001085    0.000001098   -0.000007798
      7        6           0.000053805    0.000002294    0.000022208
      8        1          -0.000004749    0.000008769    0.000001307
      9        1          -0.000006240    0.000002354   -0.000000242
     10        8          -0.000026439    0.000025852   -0.000025122
     11        1          -0.000027087   -0.000097566    0.000045362
 -------------------------------------------------------------------
 Cartesian Forces:  Max     0.000097566 RMS     0.000028239
 Z-matrix is all fixed cartesians, so copy forces.
 Force constants in Cartesian coordinates: 
                1             2             3             4             5 
      1  0.452340D+00
      2  0.279817D-01  0.711047D+00
      3 -0.267089D+00  0.413548D-01  0.475896D+00
      4 -0.152536D+00  0.158265D-01  0.121686D+00  0.142417D+00
      5  0.163856D-01 -0.608688D-01 -0.273565D-01 -0.294567D-01  0.762926D-01
      6  0.129545D+00 -0.286271D-01 -0.209938D+00 -0.147990D+00  0.419591D-01
      7 -0.105338D+00  0.184116D-01  0.366649D-01  0.510626D-02  0.293087D-01
      8  0.280426D-01 -0.399919D+00 -0.912641D-01  0.119315D-01 -0.201481D-01
      9  0.332159D-01 -0.694740D-01 -0.106114D+00  0.563837D-02 -0.297946D-01
     10 -0.145441D+00 -0.609267D-01  0.993040D-01  0.349630D-02 -0.102817D-01
     11 -0.120396D+00 -0.227091D+00  0.799459D-01  0.350909D-02  0.777094D-02
     12  0.103209D+00  0.800758D-01 -0.151831D+00  0.192363D-01  0.183112D-01
     13 -0.112473D-01 -0.514414D-02  0.251406D-01  0.193501D-03 -0.420541D-02
     14 -0.417653D-02  0.754886D-02  0.223343D-01 -0.304422D-02 -0.189298D-02
     15  0.903073D-03 -0.614060D-02 -0.851426D-02  0.126994D-02  0.834946D-03
     16  0.446402D-02 -0.211878D-01 -0.133596D-01 -0.164788D-02  0.113057D-02
     17  0.870429D-02 -0.169388D-01 -0.949250D-02 -0.284268D-03  0.610043D-03
     18 -0.564710D-02  0.130864D-01  0.262923D-02 -0.155687D-02 -0.204035D-04
     19 -0.371702D-01 -0.542675D-01  0.143370D-02  0.171505D-03  0.117950D-03
     20  0.253330D-01  0.713976D-01 -0.478621D-02  0.352775D-02 -0.143515D-02
     21 -0.202994D-02 -0.466676D-03 -0.472660D-02 -0.772363D-03 -0.516165D-03
     22  0.225109D-02  0.826411D-02 -0.359149D-03  0.116148D-02  0.643688D-04
     23 -0.151826D-02 -0.476250D-02 -0.813223D-03 -0.155252D-03  0.156317D-03
     24 -0.661359D-03  0.529415D-02 -0.493922D-03  0.869809D-03 -0.801398D-04
     25  0.131452D-02  0.863058D-02 -0.599741D-02  0.253458D-04 -0.101295D-03
     26 -0.175448D-02 -0.921212D-03  0.279564D-04  0.325505D-03  0.178823D-03
     27  0.960974D-03  0.159667D-02  0.117089D-04 -0.142817D-03  0.897226D-04
     28 -0.131187D-01 -0.318521D-01 -0.147711D-02  0.838157D-03  0.218375D-02
     29 -0.153528D-01 -0.684295D-01  0.345285D-02 -0.247575D-02  0.206940D-02
     30 -0.185690D-03 -0.208072D-01  0.444011D-02 -0.116970D-02  0.102601D-02
     31  0.448212D-02  0.942638D-01  0.405213D-02  0.773985D-03 -0.514592D-02
     32  0.367511D-01 -0.110623D-01 -0.134032D-01  0.295842D-03 -0.273314D-02
     33  0.777870D-02 -0.158923D-01 -0.135846D-02  0.293128D-02 -0.445319D-02
                6             7             8             9            10 
      6  0.208976D+00
      7  0.859638D-02  0.248843D+00
      8 -0.125223D-01 -0.606786D-02  0.530108D+00
      9  0.132691D-02 -0.521470D-01  0.100328D+00  0.957782D-01
     10  0.100029D-01  0.354931D-01 -0.514872D-01 -0.263201D-01  0.205033D+00
     11 -0.384301D-02 -0.178729D-01 -0.617062D-01  0.559512D-02  0.106679D+00
     12 -0.165587D-02 -0.340270D-02 -0.100687D-01  0.194060D-01 -0.211100D+00
     13  0.379649D-02 -0.353258D-02  0.836107D-02 -0.284246D-02 -0.371226D-01
     14 -0.752887D-04  0.693191D-03 -0.449658D-03 -0.226139D-02  0.247434D-02
     15  0.190542D-02 -0.257961D-02  0.190453D-02  0.175268D-02  0.892415D-01
     16 -0.222543D-02  0.571175D-03 -0.408147D-02  0.852430D-02 -0.408544D-01
     17  0.643148D-03 -0.376327D-02 -0.223935D-02  0.191144D-02  0.258969D-01
     18 -0.833331D-03  0.399311D-02  0.315797D-02  0.419283D-02  0.197772D-01
     19  0.962782D-03 -0.304004D-01  0.350885D-01  0.124615D-01  0.582922D-01
     20  0.285892D-02  0.451080D-01 -0.557508D-01 -0.229535D-01 -0.877133D-01
     21 -0.154516D-02  0.826752D-02  0.102400D-02  0.375364D-02  0.820193D-02
     22  0.951399D-03  0.536229D-02 -0.539614D-02 -0.298112D-02 -0.239795D-01
     23 -0.160042D-03 -0.502139D-02  0.546885D-02  0.137371D-02  0.754734D-02
     24  0.106520D-02  0.238774D-02 -0.369108D-02 -0.209886D-02 -0.113657D-01
     25  0.356349D-03  0.111224D-02 -0.501425D-02 -0.704133D-03 -0.146728D-01
     26  0.196505D-03 -0.705172D-03  0.125552D-02  0.538246D-03  0.913206D-03
     27  0.390856D-03 -0.159615D-02 -0.882660D-03 -0.847752D-03 -0.401151D-02
     28  0.142697D-02 -0.905214D-01  0.314671D-01  0.118494D-01  0.917401D-02
     29 -0.728564D-03 -0.592519D-01  0.530230D-01  0.163104D-01  0.712758D-01
     30  0.262040D-03 -0.248366D-01  0.114154D-01  0.123609D-01  0.197562D-01
     31 -0.542223D-02 -0.666953D-01 -0.428438D-01  0.133054D-01 -0.494179D-01
     32  0.298603D-03 -0.839035D-03 -0.496423D-01 -0.157335D-02 -0.437807D-02
     33  0.458543D-04  0.246524D-01  0.598919D-03 -0.295102D-01  0.651387D-02
               11            12            13            14            15 
     11  0.673944D+00
     12  0.365724D-01  0.550612D+00
     13  0.420899D-02  0.779494D-01  0.617501D-01
     14 -0.593174D-01 -0.330144D-01 -0.647942D-02  0.544515D-01
     15 -0.300812D-01 -0.313058D+00 -0.871562D-01  0.316928D-01  0.328100D+00
     16  0.356743D-01  0.234170D-01 -0.146246D-02  0.714745D-02  0.655104D-03
     17 -0.303833D+00 -0.844927D-01 -0.307887D-03  0.127306D-02  0.788216D-03
     18 -0.864392D-01 -0.792622D-01  0.224671D-02 -0.258659D-01 -0.359056D-02
     19 -0.191251D-01 -0.210455D-02 -0.138220D-01  0.425767D-02 -0.526391D-02
     20 -0.195584D-01 -0.120833D-01  0.904213D-02 -0.208908D-02  0.414177D-02
     21 -0.111164D-01 -0.247990D-01 -0.171372D-01  0.462634D-02 -0.846655D-02
     22 -0.383696D-02  0.762047D-03  0.669182D-03 -0.993822D-03  0.429881D-03
     23  0.363850D-02  0.360912D-03  0.120314D-03  0.230840D-03 -0.751967D-03
     24 -0.228160D-02 -0.879514D-03 -0.137780D-02 -0.251803D-03  0.121522D-02
     25  0.537006D-03 -0.128291D-01 -0.149592D-02  0.574793D-03 -0.822029D-03
     26  0.144525D-02  0.536884D-02  0.136746D-02 -0.360040D-03  0.264941D-03
     27  0.138464D-02 -0.187959D-02  0.321727D-03  0.270786D-03  0.419248D-03
     28  0.203205D-01  0.357358D-02  0.114959D-03  0.827035D-03  0.341617D-03
     29 -0.139227D-01  0.729877D-03 -0.793829D-02  0.119358D-02 -0.362364D-02
     30  0.789623D-02  0.212002D-02 -0.332051D-03  0.117242D-02  0.907953D-03
     31 -0.969825D-02  0.128919D-02  0.595505D-02 -0.128049D-02  0.298070D-02
     32 -0.136966D-02 -0.176000D-02  0.975190D-03 -0.588743D-03  0.970182D-03
     33  0.236721D-02  0.122698D-02 -0.609146D-03  0.137215D-02 -0.671149D-03
               16            17            18            19            20 
     16  0.389099D-01
     17 -0.292916D-01  0.321772D+00
     18 -0.203207D-01  0.911072D-01  0.763394D-01
     19  0.455924D-02 -0.158708D-02  0.200627D-02  0.219557D+00
     20  0.862612D-02 -0.137301D-02  0.432304D-02  0.196463D+00  0.598346D+00
     21  0.609071D-02 -0.126166D-02  0.172465D-02 -0.953842D-01  0.782607D-01
     22  0.193695D-03  0.311375D-03  0.380900D-03 -0.113361D+00 -0.102512D+00
     23 -0.571235D-03  0.117701D-03 -0.221610D-03 -0.905177D-01 -0.142837D+00
     24  0.701487D-03 -0.175144D-04  0.105101D-03  0.815129D-01  0.757464D-01
     25  0.477013D-03  0.261382D-03  0.232591D-03 -0.415591D-01 -0.155113D-01
     26 -0.516112D-03  0.146953D-04 -0.312955D-03 -0.363783D-02 -0.573968D-01
     27 -0.689113D-03  0.430791D-03 -0.389007D-03  0.223680D-01 -0.183882D-01
     28 -0.407910D-02  0.108199D-02 -0.193435D-02 -0.885372D-01  0.403457D-02
     29  0.350720D-02 -0.404264D-03  0.141130D-02 -0.546786D-01 -0.370282D+00
     30 -0.229005D-02  0.585350D-03  0.745896D-04 -0.986642D-02 -0.111440D+00
     31 -0.113115D-02 -0.102184D-02  0.822206D-03  0.422703D-01 -0.863987D-01
     32 -0.437450D-03  0.100036D-02 -0.225745D-03 -0.121139D-01 -0.190213D-01
     33 -0.503691D-03 -0.201751D-03 -0.990687D-03 -0.812619D-02  0.432078D-02
               21            22            23            24            25 
     21  0.587698D+00
     22  0.791926D-01  0.119296D+00
     23  0.811432D-01  0.102960D+00  0.178901D+00
     24 -0.127213D+00 -0.779911D-01 -0.855887D-01  0.122569D+00
     25  0.176791D-01  0.514195D-02 -0.471027D-03  0.187723D-01  0.407324D-01
     26 -0.165669D-01 -0.126902D-02  0.480957D-02  0.175410D-01  0.187378D-02
     27 -0.286356D+00  0.783565D-03 -0.515172D-03 -0.130846D-01 -0.198647D-01
     28  0.776161D-02  0.967088D-02 -0.224563D-01 -0.923530D-02  0.127188D-01
     29 -0.133008D+00  0.336225D-02 -0.441121D-01 -0.497293D-02  0.926771D-02
     30 -0.138677D+00 -0.194807D-02  0.342499D-02  0.184852D-01  0.186617D-02
     31 -0.118698D-01 -0.640617D-02  0.100838D-01 -0.361306D-02 -0.379440D-02
     32 -0.211880D-02 -0.954261D-03 -0.161118D-02 -0.169778D-02 -0.473929D-04
     33 -0.139341D-02  0.779068D-03  0.174783D-02  0.329225D-03  0.131084D-02
               26            27            28            29            30 
     26  0.679251D-01
     27  0.381500D-01  0.307290D+00
     28  0.321036D-04 -0.384932D-03  0.125993D+00
     29 -0.167995D-01 -0.219849D-01 -0.181819D-01  0.471974D+00
     30 -0.439491D-01 -0.568951D-02 -0.109170D-01  0.150718D+00  0.123052D+00
     31  0.337057D-02  0.225495D-02  0.377469D-01  0.704663D-01  0.299231D-01
     32 -0.151457D-03 -0.151688D-03  0.125433D-01 -0.143109D-01 -0.417665D-04
     33 -0.125855D-02  0.133864D-03 -0.100454D-02 -0.830464D-02 -0.173364D-01
               31            32            33 
     31  0.362166D-01
     32 -0.317954D-01  0.994906D-01
     33 -0.337226D-01  0.197035D-01  0.495243D-01
 Leave Link  716 at Tue Oct 15 20:48:58 2019, MaxMem=   280000000 cpu:               0.8 elap:               0.1
 (Enter /home/soft/g16/l123.exe)
 IRC-IRC-IRC-IRC-IRC-IRC-IRC-IRC-IRC-IRC-IRC-IRC-IRC-IRC-IRC-IRC-IRC-IRC
          ******** Start new reaction path calculation ********
 Current Structure is TS -> form Hessian eigenvectors.
                            Diagonalizing Hessian.
 Supplied step size of   0.1500 bohr.
    Integration on MW PES will use step size of   0.2034 sqrt(amu)*bohr.
 Point Number:   0          Path Number:   1
 Calculating another point on the path.
 Point Number  1 in FORWARD path direction.
 Using LQA Reaction Path Following.
 IRC-IRC-IRC-IRC-IRC-IRC-IRC-IRC-IRC-IRC-IRC-IRC-IRC-IRC-IRC-IRC-IRC-IRC
 Leave Link  123 at Tue Oct 15 20:48:58 2019, MaxMem=   280000000 cpu:               1.6 elap:               0.1
 (Enter /home/soft/g16/l202.exe)
                          Input orientation:                          
 ---------------------------------------------------------------------
 Center     Atomic      Atomic             Coordinates (Angstroms)
 Number     Number       Type             X           Y           Z
 ---------------------------------------------------------------------
      1          6           0       -1.223161    0.263216    0.239660
      2          1           0       -1.883323    0.470033    1.084267
      3          8           0       -1.092637   -0.990424   -0.069427
      4          6           0       -0.424260    1.241685   -0.326434
      5          1           0       -0.115928    1.122453   -1.358050
      6          1           0       -0.545433    2.264574    0.013970
      7          6           0        1.308817    0.439559    0.303322
      8          1           0        1.888431    1.205617   -0.230370
      9          1           0        1.241968    0.622832    1.387063
     10          8           0        1.314870   -0.754144   -0.132941
     11          1           0       -0.081000   -1.150302   -0.263559
 ---------------------------------------------------------------------
                    Distance matrix (angstroms):
                    1          2          3          4          5
     1  C    0.000000
     2  H    1.091763   0.000000
     3  O    1.297762   2.022159   0.000000
     4  C    1.384235   2.171265   2.344162   0.000000
     5  H    2.125307   3.084517   2.660594   1.083289   0.000000
     6  H    2.125014   2.481102   3.301727   1.084832   1.836124
     7  C    2.538910   3.286421   2.819712   2.010860   2.292684
     8  H    3.284974   4.061464   3.706113   2.314967   2.301312
     9  H    2.742758   3.143641   3.189725   2.468881   3.103087
    10  O    2.759611   3.634369   2.419908   2.654307   2.658889
    11  H    1.885682   2.773173   1.042429   2.417310   2.522805
                    6          7          8          9         10
     6  H    0.000000
     7  C    2.617757   0.000000
     8  H    2.665481   1.098920   0.000000
     9  H    2.788460   1.101160   1.836748   0.000000
    10  O    3.548939   1.270940   2.044291   2.052264   0.000000
    11  H    3.457471   2.186460   3.070850   2.760218   1.456865
                   11
    11  H    0.000000
 Symmetry turned off by external request.
 Stoichiometry    C3H6O2
 Framework group  C1[X(C3H6O2)]
 Deg. of freedom    27
 Full point group                 C1      NOp   1
 Rotational constants (GHZ):           7.7992160           4.8121664           3.3083939
 Leave Link  202 at Tue Oct 15 20:48:58 2019, MaxMem=   280000000 cpu:               1.1 elap:               0.1
 (Enter /home/soft/g16/l301.exe)
 Standard basis: 6-311+G(d) (5D, 7F)
 Ernie: Thresh=  0.10000D-02 Tol=  0.10000D-05 Strict=F.
   128 basis functions,   210 primitive gaussians,   133 cartesian basis functions
    20 alpha electrons       20 beta electrons
       nuclear repulsion energy       180.1477027882 Hartrees.
 IExCor=  402 DFT=T Ex+Corr=B3LYP ExCW=0 ScaHFX=  0.200000
 ScaDFX=  0.800000  0.720000  1.000000  0.810000 ScalE2=  1.000000  1.000000
 IRadAn=      5 IRanWt=     -1 IRanGd=            0 ICorTp=0 IEmpDi=  4
 NAtoms=   11 NActive=   11 NUniq=   11 SFac= 1.00D+00 NAtFMM=   60 NAOKFM=F Big=F
 Integral buffers will be    131072 words long.
 Raffenetti 2 integral format.
 Two-electron integral symmetry is turned off.
 Leave Link  301 at Tue Oct 15 20:48:58 2019, MaxMem=   280000000 cpu:               1.4 elap:               0.1
 (Enter /home/soft/g16/l302.exe)
 NPDir=0 NMtPBC=     1 NCelOv=     1 NCel=       1 NClECP=     1 NCelD=      1
         NCelK=      1 NCelE2=     1 NClLst=     1 CellRange=     0.0.
 One-electron integrals computed using PRISM.
 NBasis=   128 RedAO= T EigKep=  8.61D-05  NBF=   128
 NBsUse=   128 1.00D-06 EigRej= -1.00D+00 NBFU=   128
 Precomputing XC quadrature grid using
 IXCGrd= 4 IRadAn=           5 IRanWt=          -1 IRanGd=           0 AccXCQ= 0.00D+00.
 Generated NRdTot=       0 NPtTot=           0 NUsed=           0 NTot=          32
 NSgBfM=   133   133   133   133   133 MxSgAt=    11 MxSgA2=    11.
 Leave Link  302 at Tue Oct 15 20:48:59 2019, MaxMem=   280000000 cpu:               3.9 elap:               0.2
 (Enter /home/soft/g16/l303.exe)
 DipDrv:  MaxL=1.
 Leave Link  303 at Tue Oct 15 20:48:59 2019, MaxMem=   280000000 cpu:               1.1 elap:               0.1
 (Enter /home/soft/g16/l401.exe)
 Initial guess from the checkpoint file:  "irc3.chk"
 B after Tr=     0.011856    0.106081    0.014819
         Rot=    1.000000   -0.000130   -0.000035    0.000154 Ang=  -0.02 deg.
 Guess basis will be translated and rotated to current coordinates.
 JPrj=2 DoOrth=T DoCkMO=T.
 Generating alternative initial guess.
 ExpMin= 4.38D-02 ExpMax= 8.59D+03 ExpMxC= 1.30D+03 IAcc=2 IRadAn=         4 AccDes= 0.00D+00
 Harris functional with IExCor=  402 and IRadAn=       4 diagonalized for initial guess.
 HarFok:  IExCor=  402 AccDes= 0.00D+00 IRadAn=         4 IDoV= 1 UseB2=F ITyADJ=14
 ICtDFT=  3500011 ScaDFX=  1.000000  1.000000  1.000000  1.000000
 FoFCou: FMM=F IPFlag=           0 FMFlag=      100000 FMFlg1=           0
         NFxFlg=           0 DoJE=T BraDBF=F KetDBF=T FulRan=T
         wScrn=  0.000000 ICntrl=       500 IOpCl=  0 I1Cent=   200000004 NGrid=           0
         NMat0=    1 NMatS0=      1 NMatT0=    0 NMatD0=    1 NMtDS0=    0 NMtDT0=    0
 Symmetry not used in FoFCou.
 Harris En= -268.405512048688    
 Leave Link  401 at Tue Oct 15 20:48:59 2019, MaxMem=   280000000 cpu:               5.9 elap:               0.3
 (Enter /home/soft/g16/l502.exe)
 Keep R1 ints in memory in canonical form, NReq=57089522.
 FoFCou: FMM=F IPFlag=           0 FMFlag=           0 FMFlg1=           0
         NFxFlg=           0 DoJE=F BraDBF=F KetDBF=F FulRan=T
         wScrn=  0.000000 ICntrl=       600 IOpCl=  0 I1Cent=           0 NGrid=           0
         NMat0=    1 NMatS0=   8256 NMatT0=    0 NMatD0=    1 NMtDS0=    0 NMtDT0=    0
 Symmetry not used in FoFCou.
 Two-electron integral symmetry not used.
 Closed shell SCF:
 Using DIIS extrapolation, IDIIS=  1040.
 NGot=   280000000 LenX=   245875378 LenY=   245857248
 Requested convergence on RMS density matrix=1.00D-08 within 128 cycles.
 Requested convergence on MAX density matrix=1.00D-06.
 Requested convergence on             energy=1.00D-06.
 No special actions if energy rises.

 Cycle   1  Pass 1  IDiag  1:
 E= -268.369490474584    
 DIIS: error= 3.39D-03 at cycle   1 NSaved=   1.
 NSaved= 1 IEnMin= 1 EnMin= -268.369490474584     IErMin= 1 ErrMin= 3.39D-03
 ErrMax= 3.39D-03  0.00D+00 EMaxC= 1.00D-01 BMatC= 2.52D-03 BMatP= 2.52D-03
 IDIUse=3 WtCom= 9.66D-01 WtEn= 3.39D-02
 Coeff-Com:  0.100D+01
 Coeff-En:   0.100D+01
 Coeff:      0.100D+01
 Gap=     0.496 Goal=   None    Shift=    0.000
 GapD=    0.496 DampG=2.000 DampE=1.000 DampFc=2.0000 IDamp=-1.
 RMSDP=7.29D-04 MaxDP=8.12D-03              OVMax= 4.31D-02

 Cycle   2  Pass 1  IDiag  1:
 E= -268.371348881733     Delta-E=       -0.001858407149 Rises=F Damp=F
 DIIS: error= 3.88D-03 at cycle   2 NSaved=   2.
 NSaved= 2 IEnMin= 2 EnMin= -268.371348881733     IErMin= 1 ErrMin= 3.39D-03
 ErrMax= 3.88D-03  0.00D+00 EMaxC= 1.00D-01 BMatC= 1.96D-03 BMatP= 2.52D-03
 IDIUse=3 WtCom= 9.61D-01 WtEn= 3.88D-02
 Coeff-Com:  0.450D+00 0.550D+00
 Coeff-En:   0.275D-01 0.973D+00
 Coeff:      0.434D+00 0.566D+00
 Gap=     0.190 Goal=   None    Shift=    0.000
 RMSDP=5.75D-04 MaxDP=9.50D-03 DE=-1.86D-03 OVMax= 2.59D-02

 Cycle   3  Pass 1  IDiag  1:
 E= -268.371903370838     Delta-E=       -0.000554489105 Rises=F Damp=F
 DIIS: error= 2.83D-03 at cycle   3 NSaved=   3.
 NSaved= 3 IEnMin= 3 EnMin= -268.371903370838     IErMin= 3 ErrMin= 2.83D-03
 ErrMax= 2.83D-03  0.00D+00 EMaxC= 1.00D-01 BMatC= 1.25D-03 BMatP= 1.96D-03
 IDIUse=3 WtCom= 9.72D-01 WtEn= 2.83D-02
 Coeff-Com:  0.188D-02 0.442D+00 0.556D+00
 Coeff-En:   0.000D+00 0.416D+00 0.584D+00
 Coeff:      0.183D-02 0.442D+00 0.557D+00
 Gap=     0.184 Goal=   None    Shift=    0.000
 RMSDP=2.72D-04 MaxDP=4.16D-03 DE=-5.54D-04 OVMax= 1.33D-02

 Cycle   4  Pass 1  IDiag  1:
 E= -268.372872566684     Delta-E=       -0.000969195846 Rises=F Damp=F
 DIIS: error= 4.78D-04 at cycle   4 NSaved=   4.
 NSaved= 4 IEnMin= 4 EnMin= -268.372872566684     IErMin= 4 ErrMin= 4.78D-04
 ErrMax= 4.78D-04  0.00D+00 EMaxC= 1.00D-01 BMatC= 2.80D-05 BMatP= 1.25D-03
 IDIUse=3 WtCom= 9.95D-01 WtEn= 4.78D-03
 Coeff-Com: -0.141D-01 0.210D+00 0.289D+00 0.515D+00
 Coeff-En:   0.000D+00 0.000D+00 0.000D+00 0.100D+01
 Coeff:     -0.140D-01 0.209D+00 0.288D+00 0.517D+00
 Gap=     0.184 Goal=   None    Shift=    0.000
 RMSDP=4.91D-05 MaxDP=7.15D-04 DE=-9.69D-04 OVMax= 2.06D-03

 Cycle   5  Pass 1  IDiag  1:
 E= -268.372888279409     Delta-E=       -0.000015712725 Rises=F Damp=F
 DIIS: error= 2.42D-04 at cycle   5 NSaved=   5.
 NSaved= 5 IEnMin= 5 EnMin= -268.372888279409     IErMin= 5 ErrMin= 2.42D-04
 ErrMax= 2.42D-04  0.00D+00 EMaxC= 1.00D-01 BMatC= 6.60D-06 BMatP= 2.80D-05
 IDIUse=3 WtCom= 9.98D-01 WtEn= 2.42D-03
 Coeff-Com: -0.813D-02 0.479D-01 0.757D-01 0.341D+00 0.543D+00
 Coeff-En:   0.000D+00 0.000D+00 0.000D+00 0.219D+00 0.781D+00
 Coeff:     -0.811D-02 0.478D-01 0.755D-01 0.341D+00 0.544D+00
 Gap=     0.184 Goal=   None    Shift=    0.000
 RMSDP=1.96D-05 MaxDP=3.16D-04 DE=-1.57D-05 OVMax= 7.94D-04

 Cycle   6  Pass 1  IDiag  1:
 E= -268.372893099982     Delta-E=       -0.000004820573 Rises=F Damp=F
 DIIS: error= 6.02D-05 at cycle   6 NSaved=   6.
 NSaved= 6 IEnMin= 6 EnMin= -268.372893099982     IErMin= 6 ErrMin= 6.02D-05
 ErrMax= 6.02D-05  0.00D+00 EMaxC= 1.00D-01 BMatC= 3.70D-07 BMatP= 6.60D-06
 IDIUse=1 WtCom= 1.00D+00 WtEn= 0.00D+00
 Coeff-Com: -0.296D-02 0.794D-02 0.174D-01 0.124D+00 0.275D+00 0.578D+00
 Coeff:     -0.296D-02 0.794D-02 0.174D-01 0.124D+00 0.275D+00 0.578D+00
 Gap=     0.184 Goal=   None    Shift=    0.000
 RMSDP=5.66D-06 MaxDP=1.42D-04 DE=-4.82D-06 OVMax= 2.98D-04

 Cycle   7  Pass 1  IDiag  1:
 E= -268.372893394092     Delta-E=       -0.000000294111 Rises=F Damp=F
 DIIS: error= 2.77D-05 at cycle   7 NSaved=   7.
 NSaved= 7 IEnMin= 7 EnMin= -268.372893394092     IErMin= 7 ErrMin= 2.77D-05
 ErrMax= 2.77D-05  0.00D+00 EMaxC= 1.00D-01 BMatC= 7.41D-08 BMatP= 3.70D-07
 IDIUse=1 WtCom= 1.00D+00 WtEn= 0.00D+00
 Coeff-Com:  0.263D-03-0.777D-02-0.761D-02-0.159D-01 0.225D-01 0.325D+00
 Coeff-Com:  0.683D+00
 Coeff:      0.263D-03-0.777D-02-0.761D-02-0.159D-01 0.225D-01 0.325D+00
 Coeff:      0.683D+00
 Gap=     0.184 Goal=   None    Shift=    0.000
 RMSDP=2.38D-06 MaxDP=4.42D-05 DE=-2.94D-07 OVMax= 1.13D-04

 Cycle   8  Pass 1  IDiag  1:
 E= -268.372893467081     Delta-E=       -0.000000072989 Rises=F Damp=F
 DIIS: error= 5.30D-06 at cycle   8 NSaved=   8.
 NSaved= 8 IEnMin= 8 EnMin= -268.372893467081     IErMin= 8 ErrMin= 5.30D-06
 ErrMax= 5.30D-06  0.00D+00 EMaxC= 1.00D-01 BMatC= 5.16D-09 BMatP= 7.41D-08
 IDIUse=1 WtCom= 1.00D+00 WtEn= 0.00D+00
 Coeff-Com:  0.280D-03-0.427D-02-0.414D-02-0.128D-01 0.288D-02 0.154D+00
 Coeff-Com:  0.368D+00 0.496D+00
 Coeff:      0.280D-03-0.427D-02-0.414D-02-0.128D-01 0.288D-02 0.154D+00
 Coeff:      0.368D+00 0.496D+00
 Gap=     0.184 Goal=   None    Shift=    0.000
 RMSDP=7.08D-07 MaxDP=1.55D-05 DE=-7.30D-08 OVMax= 2.40D-05

 Cycle   9  Pass 1  IDiag  1:
 E= -268.372893471434     Delta-E=       -0.000000004353 Rises=F Damp=F
 DIIS: error= 1.38D-06 at cycle   9 NSaved=   9.
 NSaved= 9 IEnMin= 9 EnMin= -268.372893471434     IErMin= 9 ErrMin= 1.38D-06
 ErrMax= 1.38D-06  0.00D+00 EMaxC= 1.00D-01 BMatC= 3.40D-10 BMatP= 5.16D-09
 IDIUse=1 WtCom= 1.00D+00 WtEn= 0.00D+00
 Coeff-Com:  0.793D-04-0.101D-02-0.801D-03-0.426D-02-0.193D-02 0.247D-01
 Coeff-Com:  0.692D-01 0.185D+00 0.729D+00
 Coeff:      0.793D-04-0.101D-02-0.801D-03-0.426D-02-0.193D-02 0.247D-01
 Coeff:      0.692D-01 0.185D+00 0.729D+00
 Gap=     0.184 Goal=   None    Shift=    0.000
 RMSDP=2.57D-07 MaxDP=4.80D-06 DE=-4.35D-09 OVMax= 8.98D-06

 Cycle  10  Pass 1  IDiag  1:
 E= -268.372893471784     Delta-E=       -0.000000000350 Rises=F Damp=F
 DIIS: error= 5.04D-07 at cycle  10 NSaved=  10.
 NSaved=10 IEnMin=10 EnMin= -268.372893471784     IErMin=10 ErrMin= 5.04D-07
 ErrMax= 5.04D-07  0.00D+00 EMaxC= 1.00D-01 BMatC= 3.49D-11 BMatP= 3.40D-10
 IDIUse=1 WtCom= 1.00D+00 WtEn= 0.00D+00
 Coeff-Com:  0.199D-04-0.173D-03-0.575D-04-0.105D-02-0.109D-02 0.224D-03
 Coeff-Com:  0.375D-02 0.552D-01 0.392D+00 0.551D+00
 Coeff:      0.199D-04-0.173D-03-0.575D-04-0.105D-02-0.109D-02 0.224D-03
 Coeff:      0.375D-02 0.552D-01 0.392D+00 0.551D+00
 Gap=     0.184 Goal=   None    Shift=    0.000
 RMSDP=5.14D-08 MaxDP=1.41D-06 DE=-3.50D-10 OVMax= 2.45D-06

 Cycle  11  Pass 1  IDiag  1:
 E= -268.372893471819     Delta-E=       -0.000000000035 Rises=F Damp=F
 DIIS: error= 7.04D-08 at cycle  11 NSaved=  11.
 NSaved=11 IEnMin=11 EnMin= -268.372893471819     IErMin=11 ErrMin= 7.04D-08
 ErrMax= 7.04D-08  0.00D+00 EMaxC= 1.00D-01 BMatC= 1.12D-12 BMatP= 3.49D-11
 IDIUse=1 WtCom= 1.00D+00 WtEn= 0.00D+00
 Coeff-Com: -0.291D-05 0.602D-04 0.675D-04 0.174D-03-0.158D-03-0.279D-02
 Coeff-Com: -0.767D-02-0.344D-02 0.448D-01 0.168D+00 0.801D+00
 Coeff:     -0.291D-05 0.602D-04 0.675D-04 0.174D-03-0.158D-03-0.279D-02
 Coeff:     -0.767D-02-0.344D-02 0.448D-01 0.168D+00 0.801D+00
 Gap=     0.184 Goal=   None    Shift=    0.000
 RMSDP=1.30D-08 MaxDP=1.89D-07 DE=-3.50D-11 OVMax= 7.79D-07

 Cycle  12  Pass 1  IDiag  1:
 E= -268.372893471822     Delta-E=       -0.000000000003 Rises=F Damp=F
 DIIS: error= 1.34D-08 at cycle  12 NSaved=  12.
 NSaved=12 IEnMin=12 EnMin= -268.372893471822     IErMin=12 ErrMin= 1.34D-08
 ErrMax= 1.34D-08  0.00D+00 EMaxC= 1.00D-01 BMatC= 2.02D-14 BMatP= 1.12D-12
 IDIUse=1 WtCom= 1.00D+00 WtEn= 0.00D+00
 Coeff-Com: -0.111D-05 0.139D-04 0.110D-04 0.641D-04 0.430D-04-0.357D-03
 Coeff-Com: -0.114D-02-0.242D-02-0.702D-02-0.977D-03 0.110D+00 0.902D+00
 Coeff:     -0.111D-05 0.139D-04 0.110D-04 0.641D-04 0.430D-04-0.357D-03
 Coeff:     -0.114D-02-0.242D-02-0.702D-02-0.977D-03 0.110D+00 0.902D+00
 Gap=     0.184 Goal=   None    Shift=    0.000
 RMSDP=3.14D-09 MaxDP=3.50D-08 DE=-2.84D-12 OVMax= 2.00D-07

 SCF Done:  E(RB3LYP) =  -268.372893472     A.U. after   12 cycles
            NFock= 12  Conv=0.31D-08     -V/T= 2.0033
 KE= 2.674774057381D+02 PE=-9.891338922957D+02 EE= 2.731358902975D+02
 Leave Link  502 at Tue Oct 15 20:49:02 2019, MaxMem=   280000000 cpu:              56.0 elap:               2.9
 (Enter /home/soft/g16/l801.exe)
 DoSCS=F DFT=T ScalE2(SS,OS)=  1.000000  1.000000
 Range of M.O.s used for correlation:     1   128
 NBasis=   128 NAE=    20 NBE=    20 NFC=     0 NFV=     0
 NROrb=    128 NOA=    20 NOB=    20 NVA=   108 NVB=   108

 **** Warning!!: The largest alpha MO coefficient is  0.38763670D+02

 Leave Link  801 at Tue Oct 15 20:49:02 2019, MaxMem=   280000000 cpu:               0.8 elap:               0.1
 (Enter /home/soft/g16/l1101.exe)
 Leave Link 1101 at Tue Oct 15 20:49:02 2019, MaxMem=   280000000 cpu:               0.6 elap:               0.1
 (Enter /home/soft/g16/l1102.exe)
 Symmetrizing basis deriv contribution to polar:
 IMax=3 JMax=2 DiffMx= 0.00D+00
 Leave Link 1102 at Tue Oct 15 20:49:02 2019, MaxMem=   280000000 cpu:               1.3 elap:               0.1
 (Enter /home/soft/g16/l1110.exe)
 Leave Link 1110 at Tue Oct 15 20:49:02 2019, MaxMem=   280000000 cpu:               0.6 elap:               0.1
 (Enter /home/soft/g16/l1002.exe)
 Minotr:  Closed shell wavefunction.
 Leave Link 1002 at Tue Oct 15 20:49:02 2019, MaxMem=   280000000 cpu:               0.6 elap:               0.0
 (Enter /home/soft/g16/l701.exe)
 ... and contract with generalized density number  0.
 Compute integral first derivatives.
 Leave Link  701 at Tue Oct 15 20:49:02 2019, MaxMem=   280000000 cpu:               2.5 elap:               0.1
 (Enter /home/soft/g16/l702.exe)
 L702 exits ... SP integral derivatives will be done elsewhere.
 Leave Link  702 at Tue Oct 15 20:49:02 2019, MaxMem=   280000000 cpu:               0.5 elap:               0.0
 (Enter /home/soft/g16/l703.exe)
 Integral derivatives from FoFJK, PRISM(SPDF).
 Compute integral first derivatives, UseDBF=F ICtDFT=           0.
 Calling FoFJK, ICntrl=      2147 FMM=F ISym2X=0 I1Cent= 0 IOpClX= 0 NMat=1 NMatS=1 NMatT=0.
 FoFJK:  IHMeth= 1 ICntrl=    2147 DoSepK=F KAlg= 0 I1Cent=           0 FoldK=F
 IRaf=         0 NMat=       1 IRICut=       1 DoRegI=T DoRafI=F ISym2E= 0 IDoP0=0 IntGTp=1.
 FoFCou: FMM=F IPFlag=           0 FMFlag=      100000 FMFlg1=         800
         NFxFlg=           0 DoJE=F BraDBF=F KetDBF=F FulRan=T
         wScrn=  0.000000 ICntrl=      2147 IOpCl=  0 I1Cent=           0 NGrid=           0
         NMat0=    1 NMatS0=      1 NMatT0=    0 NMatD0=    1 NMtDS0=    0 NMtDT0=    0
 Symmetry not used in FoFCou.
 Leave Link  703 at Tue Oct 15 20:49:03 2019, MaxMem=   280000000 cpu:              14.5 elap:               0.7
 (Enter /home/soft/g16/l716.exe)
 Dipole        =-3.94766670D-01 1.35289785D+00 3.11428611D-01
 Polarizability= 0.00000000D+00 0.00000000D+00 0.00000000D+00
                 0.00000000D+00 0.00000000D+00 0.00000000D+00
 -------------------------------------------------------------------
 Center     Atomic                   Forces (Hartrees/Bohr)
 Number     Number              X              Y              Z
 -------------------------------------------------------------------
      1        6           0.000625408    0.003193366   -0.000103890
      2        1           0.000065809   -0.000052939    0.000014949
      3        8          -0.008737509   -0.001450240    0.001563803
      4        6          -0.006726277    0.001751394   -0.001980495
      5        1           0.000457694   -0.000089669    0.000364414
      6        1          -0.000264458    0.000137560   -0.000088157
      7        6           0.006965524   -0.004557632    0.001592610
      8        1          -0.000670135    0.000209967   -0.000015004
      9        1          -0.000153083   -0.000118934    0.000010687
     10        8           0.005550738    0.002792399    0.001097389
     11        1           0.002886288   -0.001815272   -0.002456307
 -------------------------------------------------------------------
 Cartesian Forces:  Max     0.008737509 RMS     0.002881545
 Z-matrix is all fixed cartesians, so copy forces.
 Leave Link  716 at Tue Oct 15 20:49:03 2019, MaxMem=   280000000 cpu:               0.6 elap:               0.0
 (Enter /home/soft/g16/l123.exe)
 IRC-IRC-IRC-IRC-IRC-IRC-IRC-IRC-IRC-IRC-IRC-IRC-IRC-IRC-IRC-IRC-IRC-IRC
 Pt  1 Step number   1 out of a maximum of  20
 Using modified Bulirsch-Stoer corrector integration.
   Using distance weighted interpolants to fit PES.
 PreDWI: IReCr0= 2 IReCr1= 1 IReCr2= 1 IReCr3= 1
 Modified Bulirsch-Stoer Extrapolation Cycles:
    EPS =    0.000010000000000
    Cycle     1 NS=    48
      PEZero:  N= 2 I= 1 D=  5.30D-04 Err=  7.78D-04
    Cycle     2 NS=    64 Truncation Error =  0.000778460
      PEZero:  N= 3 I= 2 D=  5.30D-04 Err=  5.19D-04
      PEZero:  N= 3 I= 1 D=  1.06D-03 Err=  1.77D-06
    Cycle     3 NS=    96 Truncation Error =  0.000001767
 BS completed in    3 cycles and     208 integration steps.
 Maximum DWI energy   std dev =  0.000023301 at pt     1
 Maximum DWI gradient std dev =  0.652014007 at pt     4
 SUMMARY OF CORRECTOR INTEGRATION:
   Predictor End Point Energy =  -268.372893
   Old End Point Energy       =  -268.372893
   Corrected End Point Energy =  -268.373017
   Predictor End-Start Dist.  =     0.203358
   Old End-Start Dist.        =     0.203358
   New End-Start Dist.        =     0.197683
   New End-Old End Dist.      =     0.045860
 CORRECTOR INTEGRATION CONVERGENCE:
   Recorrection delta-x convergence threshold:    0.010000
   Delta-x Convergence NOT Met
 IRC-IRC-IRC-IRC-IRC-IRC-IRC-IRC-IRC-IRC-IRC-IRC-IRC-IRC-IRC-IRC-IRC-IRC
 Leave Link  123 at Tue Oct 15 20:49:03 2019, MaxMem=   280000000 cpu:               1.6 elap:               0.1
 (Enter /home/soft/g16/l202.exe)
                          Input orientation:                          
 ---------------------------------------------------------------------
 Center     Atomic      Atomic             Coordinates (Angstroms)
 Number     Number       Type             X           Y           Z
 ---------------------------------------------------------------------
      1          6           0       -1.223184    0.262643    0.239749
      2          1           0       -1.882151    0.470928    1.085378
      3          8           0       -1.094986   -0.990161   -0.069208
      4          6           0       -0.425956    1.242594   -0.327308
      5          1           0       -0.115227    1.122583   -1.357949
      6          1           0       -0.547269    2.265483    0.013039
      7          6           0        1.310585    0.439471    0.304267
      8          1           0        1.888612    1.205400   -0.229934
      9          1           0        1.242590    0.621455    1.387713
     10          8           0        1.315675   -0.754629   -0.133254
     11          1           0       -0.062179   -1.150666   -0.266380
 ---------------------------------------------------------------------
                    Distance matrix (angstroms):
                    1          2          3          4          5
     1  C    0.000000
     2  H    1.092113   0.000000
     3  O    1.296691   2.021752   0.000000
     4  C    1.384713   2.170635   2.345083   0.000000
     5  H    2.125960   3.084887   2.661667   1.083133   0.000000
     6  H    2.125942   2.480373   3.302420   1.084830   1.836434
     7  C    2.540750   3.287049   2.823137   2.014811   2.294023
     8  H    3.285219   4.060560   3.707853   2.316913   2.301009
     9  H    2.743466   3.142940   3.191267   2.472075   3.103781
    10  O    2.760395   3.634990   2.422987   2.657035   2.659189
    11  H    1.897772   2.787313   1.063639   2.421516   2.522300
                    6          7          8          9         10
     6  H    0.000000
     7  C    2.621213   0.000000
     8  H    2.667645   1.098241   0.000000
     9  H    2.792160   1.100726   1.837150   0.000000
    10  O    3.551485   1.271741   2.044338   2.052386   0.000000
    11  H    3.461714   2.176845   3.059078   2.752972   1.439809
                   11
    11  H    0.000000
 Symmetry turned off by external request.
 Stoichiometry    C3H6O2
 Framework group  C1[X(C3H6O2)]
 Deg. of freedom    27
 Full point group                 C1      NOp   1
 Rotational constants (GHZ):           7.7933727           4.8026448           3.3037096
 Leave Link  202 at Tue Oct 15 20:49:03 2019, MaxMem=   280000000 cpu:               0.5 elap:               0.0
 (Enter /home/soft/g16/l301.exe)
 Standard basis: 6-311+G(d) (5D, 7F)
 Ernie: Thresh=  0.10000D-02 Tol=  0.10000D-05 Strict=F.
   128 basis functions,   210 primitive gaussians,   133 cartesian basis functions
    20 alpha electrons       20 beta electrons
       nuclear repulsion energy       180.0164616141 Hartrees.
 IExCor=  402 DFT=T Ex+Corr=B3LYP ExCW=0 ScaHFX=  0.200000
 ScaDFX=  0.800000  0.720000  1.000000  0.810000 ScalE2=  1.000000  1.000000
 IRadAn=      5 IRanWt=     -1 IRanGd=            0 ICorTp=0 IEmpDi=  4
 NAtoms=   11 NActive=   11 NUniq=   11 SFac= 1.00D+00 NAtFMM=   60 NAOKFM=F Big=F
 Integral buffers will be    131072 words long.
 Raffenetti 2 integral format.
 Two-electron integral symmetry is turned off.
 Leave Link  301 at Tue Oct 15 20:49:03 2019, MaxMem=   280000000 cpu:               1.7 elap:               0.1
 (Enter /home/soft/g16/l302.exe)
 NPDir=0 NMtPBC=     1 NCelOv=     1 NCel=       1 NClECP=     1 NCelD=      1
         NCelK=      1 NCelE2=     1 NClLst=     1 CellRange=     0.0.
 One-electron integrals computed using PRISM.
 NBasis=   128 RedAO= T EigKep=  8.63D-05  NBF=   128
 NBsUse=   128 1.00D-06 EigRej= -1.00D+00 NBFU=   128
 Precomputing XC quadrature grid using
 IXCGrd= 4 IRadAn=           5 IRanWt=          -1 IRanGd=           0 AccXCQ= 0.00D+00.
 Generated NRdTot=       0 NPtTot=           0 NUsed=           0 NTot=          32
 NSgBfM=   133   133   133   133   133 MxSgAt=    11 MxSgA2=    11.
 Leave Link  302 at Tue Oct 15 20:49:04 2019, MaxMem=   280000000 cpu:               3.4 elap:               0.2
 (Enter /home/soft/g16/l303.exe)
 DipDrv:  MaxL=1.
 Leave Link  303 at Tue Oct 15 20:49:04 2019, MaxMem=   280000000 cpu:               1.0 elap:               0.1
 (Enter /home/soft/g16/l401.exe)
 Initial guess from the checkpoint file:  "irc3.chk"
 B after Tr=     0.000370   -0.000015   -0.000065
         Rot=    1.000000   -0.000030    0.000009   -0.000047 Ang=  -0.01 deg.
 Guess basis will be translated and rotated to current coordinates.
 JPrj=2 DoOrth=T DoCkMO=T.
 Generating alternative initial guess.
 ExpMin= 4.38D-02 ExpMax= 8.59D+03 ExpMxC= 1.30D+03 IAcc=2 IRadAn=         4 AccDes= 0.00D+00
 Harris functional with IExCor=  402 and IRadAn=       4 diagonalized for initial guess.
 HarFok:  IExCor=  402 AccDes= 0.00D+00 IRadAn=         4 IDoV= 1 UseB2=F ITyADJ=14
 ICtDFT=  3500011 ScaDFX=  1.000000  1.000000  1.000000  1.000000
 FoFCou: FMM=F IPFlag=           0 FMFlag=      100000 FMFlg1=           0
         NFxFlg=           0 DoJE=T BraDBF=F KetDBF=T FulRan=T
         wScrn=  0.000000 ICntrl=       500 IOpCl=  0 I1Cent=   200000004 NGrid=           0
         NMat0=    1 NMatS0=      1 NMatT0=    0 NMatD0=    1 NMtDS0=    0 NMtDT0=    0
 Symmetry not used in FoFCou.
 Harris En= -268.405086527426    
 Leave Link  401 at Tue Oct 15 20:49:04 2019, MaxMem=   280000000 cpu:               7.7 elap:               0.4
 (Enter /home/soft/g16/l502.exe)
 Keep R1 ints in memory in canonical form, NReq=57089522.
 FoFCou: FMM=F IPFlag=           0 FMFlag=           0 FMFlg1=           0
         NFxFlg=           0 DoJE=F BraDBF=F KetDBF=F FulRan=T
         wScrn=  0.000000 ICntrl=       600 IOpCl=  0 I1Cent=           0 NGrid=           0
         NMat0=    1 NMatS0=   8256 NMatT0=    0 NMatD0=    1 NMtDS0=    0 NMtDT0=    0
 Symmetry not used in FoFCou.
 Two-electron integral symmetry not used.
 Closed shell SCF:
 Using DIIS extrapolation, IDIIS=  1040.
 NGot=   280000000 LenX=   245875378 LenY=   245857248
 Requested convergence on RMS density matrix=1.00D-08 within 128 cycles.
 Requested convergence on MAX density matrix=1.00D-06.
 Requested convergence on             energy=1.00D-06.
 No special actions if energy rises.

 Cycle   1  Pass 1  IDiag  1:
 E= -268.372763143050    
 DIIS: error= 7.85D-04 at cycle   1 NSaved=   1.
 NSaved= 1 IEnMin= 1 EnMin= -268.372763143050     IErMin= 1 ErrMin= 7.85D-04
 ErrMax= 7.85D-04  0.00D+00 EMaxC= 1.00D-01 BMatC= 1.96D-04 BMatP= 1.96D-04
 IDIUse=3 WtCom= 9.92D-01 WtEn= 7.85D-03
 Coeff-Com:  0.100D+01
 Coeff-En:   0.100D+01
 Coeff:      0.100D+01
 Gap=     0.502 Goal=   None    Shift=    0.000
 RMSDP=1.87D-04 MaxDP=2.53D-03              OVMax= 7.01D-03

 Cycle   2  Pass 1  IDiag  1:
 E= -268.372851732583     Delta-E=       -0.000088589533 Rises=F Damp=F
 DIIS: error= 1.07D-03 at cycle   2 NSaved=   2.
 NSaved= 2 IEnMin= 2 EnMin= -268.372851732583     IErMin= 1 ErrMin= 7.85D-04
 ErrMax= 1.07D-03  0.00D+00 EMaxC= 1.00D-01 BMatC= 1.58D-04 BMatP= 1.96D-04
 IDIUse=3 WtCom= 9.89D-01 WtEn= 1.07D-02
 Coeff-Com:  0.461D+00 0.539D+00
 Coeff-En:   0.228D+00 0.772D+00
 Coeff:      0.458D+00 0.542D+00
 Gap=     0.185 Goal=   None    Shift=    0.000
 RMSDP=1.36D-04 MaxDP=2.25D-03 DE=-8.86D-05 OVMax= 5.74D-03

 Cycle   3  Pass 1  IDiag  1:
 E= -268.372910362375     Delta-E=       -0.000058629792 Rises=F Damp=F
 DIIS: error= 6.70D-04 at cycle   3 NSaved=   3.
 NSaved= 3 IEnMin= 3 EnMin= -268.372910362375     IErMin= 3 ErrMin= 6.70D-04
 ErrMax= 6.70D-04  0.00D+00 EMaxC= 1.00D-01 BMatC= 7.63D-05 BMatP= 1.58D-04
 IDIUse=3 WtCom= 9.93D-01 WtEn= 6.70D-03
 Coeff-Com:  0.143D-01 0.406D+00 0.580D+00
 Coeff-En:   0.000D+00 0.371D+00 0.629D+00
 Coeff:      0.142D-01 0.405D+00 0.580D+00
 Gap=     0.186 Goal=   None    Shift=    0.000
 RMSDP=7.01D-05 MaxDP=1.18D-03 DE=-5.86D-05 OVMax= 3.20D-03

 Cycle   4  Pass 1  IDiag  1:
 E= -268.372967160560     Delta-E=       -0.000056798185 Rises=F Damp=F
 DIIS: error= 1.19D-04 at cycle   4 NSaved=   4.
 NSaved= 4 IEnMin= 4 EnMin= -268.372967160560     IErMin= 4 ErrMin= 1.19D-04
 ErrMax= 1.19D-04  0.00D+00 EMaxC= 1.00D-01 BMatC= 2.04D-06 BMatP= 7.63D-05
 IDIUse=3 WtCom= 9.99D-01 WtEn= 1.19D-03
 Coeff-Com: -0.838D-02 0.192D+00 0.304D+00 0.512D+00
 Coeff-En:   0.000D+00 0.000D+00 0.000D+00 0.100D+01
 Coeff:     -0.837D-02 0.192D+00 0.304D+00 0.513D+00
 Gap=     0.186 Goal=   None    Shift=    0.000
 RMSDP=1.45D-05 MaxDP=2.09D-04 DE=-5.68D-05 OVMax= 6.14D-04

 Cycle   5  Pass 1  IDiag  1:
 E= -268.372968461721     Delta-E=       -0.000001301161 Rises=F Damp=F
 DIIS: error= 6.25D-05 at cycle   5 NSaved=   5.
 NSaved= 5 IEnMin= 5 EnMin= -268.372968461721     IErMin= 5 ErrMin= 6.25D-05
 ErrMax= 6.25D-05  0.00D+00 EMaxC= 1.00D-01 BMatC= 4.57D-07 BMatP= 2.04D-06
 IDIUse=1 WtCom= 1.00D+00 WtEn= 0.00D+00
 Coeff-Com: -0.674D-02 0.587D-01 0.103D+00 0.340D+00 0.505D+00
 Coeff:     -0.674D-02 0.587D-01 0.103D+00 0.340D+00 0.505D+00
 Gap=     0.186 Goal=   None    Shift=    0.000
 RMSDP=4.98D-06 MaxDP=9.08D-05 DE=-1.30D-06 OVMax= 1.93D-04

 Cycle   6  Pass 1  IDiag  1:
 E= -268.372968806588     Delta-E=       -0.000000344867 Rises=F Damp=F
 DIIS: error= 1.47D-05 at cycle   6 NSaved=   6.
 NSaved= 6 IEnMin= 6 EnMin= -268.372968806588     IErMin= 6 ErrMin= 1.47D-05
 ErrMax= 1.47D-05  0.00D+00 EMaxC= 1.00D-01 BMatC= 2.15D-08 BMatP= 4.57D-07
 IDIUse=1 WtCom= 1.00D+00 WtEn= 0.00D+00
 Coeff-Com: -0.327D-02 0.220D-01 0.399D-01 0.155D+00 0.277D+00 0.510D+00
 Coeff:     -0.327D-02 0.220D-01 0.399D-01 0.155D+00 0.277D+00 0.510D+00
 Gap=     0.186 Goal=   None    Shift=    0.000
 RMSDP=1.17D-06 MaxDP=2.87D-05 DE=-3.45D-07 OVMax= 6.10D-05

 Cycle   7  Pass 1  IDiag  1:
 E= -268.372968823849     Delta-E=       -0.000000017262 Rises=F Damp=F
 DIIS: error= 5.93D-06 at cycle   7 NSaved=   7.
 NSaved= 7 IEnMin= 7 EnMin= -268.372968823849     IErMin= 7 ErrMin= 5.93D-06
 ErrMax= 5.93D-06  0.00D+00 EMaxC= 1.00D-01 BMatC= 2.74D-09 BMatP= 2.15D-08
 IDIUse=1 WtCom= 1.00D+00 WtEn= 0.00D+00
 Coeff-Com: -0.942D-04-0.272D-02-0.343D-02-0.459D-02 0.214D-01 0.269D+00
 Coeff-Com:  0.720D+00
 Coeff:     -0.942D-04-0.272D-02-0.343D-02-0.459D-02 0.214D-01 0.269D+00
 Coeff:      0.720D+00
 Gap=     0.186 Goal=   None    Shift=    0.000
 RMSDP=5.39D-07 MaxDP=1.18D-05 DE=-1.73D-08 OVMax= 2.15D-05

 Cycle   8  Pass 1  IDiag  1:
 E= -268.372968826451     Delta-E=       -0.000000002602 Rises=F Damp=F
 DIIS: error= 1.35D-06 at cycle   8 NSaved=   8.
 NSaved= 8 IEnMin= 8 EnMin= -268.372968826451     IErMin= 8 ErrMin= 1.35D-06
 ErrMax= 1.35D-06  0.00D+00 EMaxC= 1.00D-01 BMatC= 2.92D-10 BMatP= 2.74D-09
 IDIUse=1 WtCom= 1.00D+00 WtEn= 0.00D+00
 Coeff-Com:  0.159D-03-0.254D-02-0.370D-02-0.123D-01-0.570D-02 0.105D+00
 Coeff-Com:  0.378D+00 0.542D+00
 Coeff:      0.159D-03-0.254D-02-0.370D-02-0.123D-01-0.570D-02 0.105D+00
 Coeff:      0.378D+00 0.542D+00
 Gap=     0.186 Goal=   None    Shift=    0.000
 RMSDP=1.85D-07 MaxDP=3.53D-06 DE=-2.60D-09 OVMax= 5.72D-06

 Cycle   9  Pass 1  IDiag  1:
 E= -268.372968826713     Delta-E=       -0.000000000262 Rises=F Damp=F
 DIIS: error= 3.08D-07 at cycle   9 NSaved=   9.
 NSaved= 9 IEnMin= 9 EnMin= -268.372968826713     IErMin= 9 ErrMin= 3.08D-07
 ErrMax= 3.08D-07  0.00D+00 EMaxC= 1.00D-01 BMatC= 1.77D-11 BMatP= 2.92D-10
 IDIUse=1 WtCom= 1.00D+00 WtEn= 0.00D+00
 Coeff-Com:  0.719D-04-0.895D-03-0.123D-02-0.560D-02-0.461D-02 0.173D-01
 Coeff-Com:  0.946D-01 0.223D+00 0.677D+00
 Coeff:      0.719D-04-0.895D-03-0.123D-02-0.560D-02-0.461D-02 0.173D-01
 Coeff:      0.946D-01 0.223D+00 0.677D+00
 Gap=     0.186 Goal=   None    Shift=    0.000
 RMSDP=5.69D-08 MaxDP=9.60D-07 DE=-2.62D-10 OVMax= 1.69D-06

 Cycle  10  Pass 1  IDiag  1:
 E= -268.372968826729     Delta-E=       -0.000000000016 Rises=F Damp=F
 DIIS: error= 1.03D-07 at cycle  10 NSaved=  10.
 NSaved=10 IEnMin=10 EnMin= -268.372968826729     IErMin=10 ErrMin= 1.03D-07
 ErrMax= 1.03D-07  0.00D+00 EMaxC= 1.00D-01 BMatC= 1.36D-12 BMatP= 1.77D-11
 IDIUse=1 WtCom= 1.00D+00 WtEn= 0.00D+00
 Coeff-Com:  0.235D-04-0.242D-03-0.301D-03-0.180D-02-0.184D-02 0.753D-03
 Coeff-Com:  0.170D-01 0.695D-01 0.324D+00 0.593D+00
[...]
 Modified Bulirsch-Stoer Extrapolation Cycles:
    EPS =    0.000010000000000
    Cycle     1 NS=    48
      PEZero:  N= 2 I= 1 D=  1.06D-03 Err=  1.35D-04
    Cycle     2 NS=    64 Truncation Error =  0.000135489
      PEZero:  N= 3 I= 2 D=  1.06D-03 Err=  9.02D-05
      PEZero:  N= 3 I= 1 D=  2.12D-03 Err=  7.32D-07
    Cycle     3 NS=    96 Truncation Error =  0.000000732
 BS completed in    3 cycles and     208 integration steps.
 Maximum DWI energy   std dev =  0.000004959 at pt    -1
 Maximum DWI gradient std dev =  0.630968866 at pt    55
 SUMMARY OF CORRECTOR INTEGRATION:
   Predictor End Point Energy =  -268.394869
   Old End Point Energy       =  -268.394868
   Corrected End Point Energy =  -268.394901
   Predictor End-Start Dist.  =     0.203257
   Old End-Start Dist.        =     0.202983
   New End-Start Dist.        =     0.202009
   New End-Old End Dist.      =     0.030850
 CORRECTOR INTEGRATION CONVERGENCE:
   Recorrection delta-x convergence threshold:    0.010000
   Delta-x Convergence NOT Met
 IRC-IRC-IRC-IRC-IRC-IRC-IRC-IRC-IRC-IRC-IRC-IRC-IRC-IRC-IRC-IRC-IRC-IRC
 Leave Link  123 at Tue Oct 15 20:55:00 2019, MaxMem=   280000000 cpu:               4.0 elap:               0.2
 (Enter /home/soft/g16/l202.exe)
                          Input orientation:                          
 ---------------------------------------------------------------------
 Center     Atomic      Atomic             Coordinates (Angstroms)
 Number     Number       Type             X           Y           Z
 ---------------------------------------------------------------------
      1          6           0       -1.377311    0.341953    0.211660
      2          1           0       -2.053643    0.508350    1.044514
      3          8           0       -1.228929   -0.979353   -0.022847
      4          6           0       -0.805972    1.357450   -0.447685
      5          1           0       -0.186039    1.210634   -1.323747
      6          1           0       -1.029537    2.376334   -0.156425
      7          6           0        1.711850    0.263467    0.442895
      8          1           0        2.089844    1.181344   -0.041618
      9          1           0        1.490707    0.338480    1.522701
     10          8           0        1.586724   -0.774624   -0.162632
     11          1           0       -0.453700   -1.156203   -0.570756
 ---------------------------------------------------------------------
                    Distance matrix (angstroms):
                    1          2          3          4          5
     1  C    0.000000
     2  H    1.085706   0.000000
     3  O    1.350133   2.008151   0.000000
     4  C    1.338805   2.122336   2.412473   0.000000
     5  H    2.128665   3.096741   2.752454   1.083216   0.000000
     6  H    2.096459   2.445488   3.364258   1.083023   1.852832
     7  C    3.098798   3.821105   3.226406   2.886063   2.760459
     8  H    3.576296   4.336022   3.960205   2.929446   2.612347
     9  H    3.153469   3.580493   3.394381   3.193033   3.416782
    10  O    3.189411   4.044193   2.826545   3.217451   2.903813
    11  H    1.926060   2.817739   0.965640   2.541199   2.498110
                    6          7          8          9         10
     6  H    0.000000
     7  C    3.512634   0.000000
     8  H    3.342412   1.104596   0.000000
     9  H    3.650198   1.104768   1.875228   0.000000
    10  O    4.095534   1.208285   2.023261   2.022021   0.000000
    11  H    3.603065   2.780748   3.494815   3.224494   2.115537
                   11
    11  H    0.000000
 Symmetry turned off by external request.
 Stoichiometry    C3H6O2
 Framework group  C1[X(C3H6O2)]
 Deg. of freedom    27
 Full point group                 C1      NOp   1
 Rotational constants (GHZ):           7.4142598           3.2422800           2.4967885
 Leave Link  202 at Tue Oct 15 20:55:00 2019, MaxMem=   280000000 cpu:               0.9 elap:               0.1
 (Enter /home/soft/g16/l301.exe)
 Standard basis: 6-311+G(d) (5D, 7F)
 Ernie: Thresh=  0.10000D-02 Tol=  0.10000D-05 Strict=F.
   128 basis functions,   210 primitive gaussians,   133 cartesian basis functions
    20 alpha electrons       20 beta electrons
       nuclear repulsion energy       167.0683767024 Hartrees.
 IExCor=  402 DFT=T Ex+Corr=B3LYP ExCW=0 ScaHFX=  0.200000
 ScaDFX=  0.800000  0.720000  1.000000  0.810000 ScalE2=  1.000000  1.000000
 IRadAn=      5 IRanWt=     -1 IRanGd=            0 ICorTp=0 IEmpDi=  4
 NAtoms=   11 NActive=   11 NUniq=   11 SFac= 1.00D+00 NAtFMM=   60 NAOKFM=F Big=F
 Integral buffers will be    131072 words long.
 Raffenetti 2 integral format.
 Two-electron integral symmetry is turned off.
 Leave Link  301 at Tue Oct 15 20:55:00 2019, MaxMem=   280000000 cpu:               1.7 elap:               0.1
 (Enter /home/soft/g16/l302.exe)
 NPDir=0 NMtPBC=     1 NCelOv=     1 NCel=       1 NClECP=     1 NCelD=      1
         NCelK=      1 NCelE2=     1 NClLst=     1 CellRange=     0.0.
 One-electron integrals computed using PRISM.
 NBasis=   128 RedAO= T EigKep=  7.99D-05  NBF=   128
 NBsUse=   128 1.00D-06 EigRej= -1.00D+00 NBFU=   128
 Precomputing XC quadrature grid using
 IXCGrd= 4 IRadAn=           5 IRanWt=          -1 IRanGd=           0 AccXCQ= 0.00D+00.
 Generated NRdTot=       0 NPtTot=           0 NUsed=           0 NTot=          32
 NSgBfM=   133   133   133   133   133 MxSgAt=    11 MxSgA2=    11.
 Leave Link  302 at Tue Oct 15 20:55:00 2019, MaxMem=   280000000 cpu:               3.7 elap:               0.2
 (Enter /home/soft/g16/l303.exe)
 DipDrv:  MaxL=1.
 Leave Link  303 at Tue Oct 15 20:55:00 2019, MaxMem=   280000000 cpu:               1.2 elap:               0.1
 (Enter /home/soft/g16/l401.exe)
 Initial guess from the checkpoint file:  "irc3.chk"
 B after Tr=     0.000443   -0.000093   -0.000146
         Rot=    1.000000   -0.000086    0.000199   -0.000083 Ang=  -0.03 deg.
 Guess basis will be translated and rotated to current coordinates.
 JPrj=2 DoOrth=T DoCkMO=T.
 Generating alternative initial guess.
 ExpMin= 4.38D-02 ExpMax= 8.59D+03 ExpMxC= 1.30D+03 IAcc=2 IRadAn=         4 AccDes= 0.00D+00
 Harris functional with IExCor=  402 and IRadAn=       4 diagonalized for initial guess.
 HarFok:  IExCor=  402 AccDes= 0.00D+00 IRadAn=         4 IDoV= 1 UseB2=F ITyADJ=14
 ICtDFT=  3500011 ScaDFX=  1.000000  1.000000  1.000000  1.000000
 FoFCou: FMM=F IPFlag=           0 FMFlag=      100000 FMFlg1=           0
         NFxFlg=           0 DoJE=T BraDBF=F KetDBF=T FulRan=T
         wScrn=  0.000000 ICntrl=       500 IOpCl=  0 I1Cent=   200000004 NGrid=           0
         NMat0=    1 NMatS0=      1 NMatT0=    0 NMatD0=    1 NMtDS0=    0 NMtDT0=    0
 Symmetry not used in FoFCou.
 Harris En= -268.434851621980    
 Leave Link  401 at Tue Oct 15 20:55:01 2019, MaxMem=   280000000 cpu:               7.2 elap:               0.3
 (Enter /home/soft/g16/l502.exe)
 Keep R1 ints in memory in canonical form, NReq=57089522.
 FoFCou: FMM=F IPFlag=           0 FMFlag=           0 FMFlg1=           0
         NFxFlg=           0 DoJE=F BraDBF=F KetDBF=F FulRan=T
         wScrn=  0.000000 ICntrl=       600 IOpCl=  0 I1Cent=           0 NGrid=           0
         NMat0=    1 NMatS0=   8256 NMatT0=    0 NMatD0=    1 NMtDS0=    0 NMtDT0=    0
 Symmetry not used in FoFCou.
 Two-electron integral symmetry not used.
 Closed shell SCF:
 Using DIIS extrapolation, IDIIS=  1040.
 NGot=   280000000 LenX=   245875378 LenY=   245857248
 Requested convergence on RMS density matrix=1.00D-08 within 128 cycles.
 Requested convergence on MAX density matrix=1.00D-06.
 Requested convergence on             energy=1.00D-06.
 No special actions if energy rises.

 Cycle   1  Pass 1  IDiag  1:
 E= -268.394829839845    
 DIIS: error= 3.50D-04 at cycle   1 NSaved=   1.
 NSaved= 1 IEnMin= 1 EnMin= -268.394829839845     IErMin= 1 ErrMin= 3.50D-04
 ErrMax= 3.50D-04  0.00D+00 EMaxC= 1.00D-01 BMatC= 3.43D-05 BMatP= 3.43D-05
 IDIUse=3 WtCom= 9.97D-01 WtEn= 3.50D-03
 Coeff-Com:  0.100D+01
 Coeff-En:   0.100D+01
 Coeff:      0.100D+01
 Gap=     0.434 Goal=   None    Shift=    0.000
 RMSDP=1.15D-04 MaxDP=3.25D-03              OVMax= 2.18D-03

 Cycle   2  Pass 1  IDiag  1:
 E= -268.394857784465     Delta-E=       -0.000027944620 Rises=F Damp=F
 DIIS: error= 2.89D-04 at cycle   2 NSaved=   2.
 NSaved= 2 IEnMin= 2 EnMin= -268.394857784465     IErMin= 2 ErrMin= 2.89D-04
 ErrMax= 2.89D-04  0.00D+00 EMaxC= 1.00D-01 BMatC= 1.17D-05 BMatP= 3.43D-05
 IDIUse=3 WtCom= 9.97D-01 WtEn= 2.89D-03
 Coeff-Com:  0.302D+00 0.698D+00
 Coeff-En:   0.000D+00 0.100D+01
 Coeff:      0.302D+00 0.698D+00
 Gap=     0.189 Goal=   None    Shift=    0.000
 RMSDP=3.98D-05 MaxDP=8.87D-04 DE=-2.79D-05 OVMax= 1.93D-03

 Cycle   3  Pass 1  IDiag  1:
 E= -268.394858289866     Delta-E=       -0.000000505402 Rises=F Damp=F
 DIIS: error= 3.11D-04 at cycle   3 NSaved=   3.
 NSaved= 3 IEnMin= 3 EnMin= -268.394858289866     IErMin= 2 ErrMin= 2.89D-04
 ErrMax= 3.11D-04  0.00D+00 EMaxC= 1.00D-01 BMatC= 1.09D-05 BMatP= 1.17D-05
 IDIUse=3 WtCom= 9.97D-01 WtEn= 3.11D-03
 Coeff-Com:  0.750D-02 0.490D+00 0.503D+00
 Coeff-En:   0.000D+00 0.487D+00 0.513D+00
 Coeff:      0.747D-02 0.490D+00 0.503D+00
 Gap=     0.189 Goal=   None    Shift=    0.000
 RMSDP=1.95D-05 MaxDP=4.08D-04 DE=-5.05D-07 OVMax= 1.15D-03

 Cycle   4  Pass 1  IDiag  1:
 E= -268.394865973506     Delta-E=       -0.000007683640 Rises=F Damp=F
 DIIS: error= 3.76D-05 at cycle   4 NSaved=   4.
 NSaved= 4 IEnMin= 4 EnMin= -268.394865973506     IErMin= 4 ErrMin= 3.76D-05
 ErrMax= 3.76D-05  0.00D+00 EMaxC= 1.00D-01 BMatC= 1.76D-07 BMatP= 1.09D-05
 IDIUse=1 WtCom= 1.00D+00 WtEn= 0.00D+00
 Coeff-Com: -0.975D-02 0.187D+00 0.220D+00 0.602D+00
 Coeff:     -0.975D-02 0.187D+00 0.220D+00 0.602D+00
 Gap=     0.189 Goal=   None    Shift=    0.000
 RMSDP=3.74D-06 MaxDP=9.62D-05 DE=-7.68D-06 OVMax= 3.02D-04

 Cycle   5  Pass 1  IDiag  1:
 E= -268.394866088656     Delta-E=       -0.000000115149 Rises=F Damp=F
 DIIS: error= 1.93D-05 at cycle   5 NSaved=   5.
 NSaved= 5 IEnMin= 5 EnMin= -268.394866088656     IErMin= 5 ErrMin= 1.93D-05
 ErrMax= 1.93D-05  0.00D+00 EMaxC= 1.00D-01 BMatC= 4.82D-08 BMatP= 1.76D-07
 IDIUse=1 WtCom= 1.00D+00 WtEn= 0.00D+00
 Coeff-Com: -0.662D-02 0.572D-01 0.732D-01 0.375D+00 0.501D+00
 Coeff:     -0.662D-02 0.572D-01 0.732D-01 0.375D+00 0.501D+00
 Gap=     0.189 Goal=   None    Shift=    0.000
 RMSDP=1.42D-06 MaxDP=3.04D-05 DE=-1.15D-07 OVMax= 1.21D-04

 Cycle   6  Pass 1  IDiag  1:
 E= -268.394866136300     Delta-E=       -0.000000047644 Rises=F Damp=F
 DIIS: error= 2.71D-06 at cycle   6 NSaved=   6.
 NSaved= 6 IEnMin= 6 EnMin= -268.394866136300     IErMin= 6 ErrMin= 2.71D-06
 ErrMax= 2.71D-06  0.00D+00 EMaxC= 1.00D-01 BMatC= 1.03D-09 BMatP= 4.82D-08
 IDIUse=1 WtCom= 1.00D+00 WtEn= 0.00D+00
 Coeff-Com: -0.212D-02 0.136D-01 0.181D-01 0.119D+00 0.208D+00 0.643D+00
 Coeff:     -0.212D-02 0.136D-01 0.181D-01 0.119D+00 0.208D+00 0.643D+00
 Gap=     0.189 Goal=   None    Shift=    0.000
 RMSDP=3.75D-07 MaxDP=5.53D-06 DE=-4.76D-08 OVMax= 1.39D-05

 Cycle   7  Pass 1  IDiag  1:
 E= -268.394866136812     Delta-E=       -0.000000000512 Rises=F Damp=F
 DIIS: error= 2.69D-06 at cycle   7 NSaved=   7.
 NSaved= 7 IEnMin= 7 EnMin= -268.394866136812     IErMin= 7 ErrMin= 2.69D-06
 ErrMax= 2.69D-06  0.00D+00 EMaxC= 1.00D-01 BMatC= 6.08D-10 BMatP= 1.03D-09
 IDIUse=1 WtCom= 1.00D+00 WtEn= 0.00D+00
 Coeff-Com: -0.359D-03 0.588D-04 0.529D-03 0.196D-01 0.612D-01 0.454D+00
 Coeff-Com:  0.465D+00
 Coeff:     -0.359D-03 0.588D-04 0.529D-03 0.196D-01 0.612D-01 0.454D+00
 Coeff:      0.465D+00
 Gap=     0.189 Goal=   None    Shift=    0.000
 RMSDP=1.32D-07 MaxDP=2.89D-06 DE=-5.12D-10 OVMax= 7.36D-06

 Cycle   8  Pass 1  IDiag  1:
 E= -268.394866137234     Delta-E=       -0.000000000423 Rises=F Damp=F
 DIIS: error= 6.59D-07 at cycle   8 NSaved=   8.
 NSaved= 8 IEnMin= 8 EnMin= -268.394866137234     IErMin= 8 ErrMin= 6.59D-07
 ErrMax= 6.59D-07  0.00D+00 EMaxC= 1.00D-01 BMatC= 3.55D-11 BMatP= 6.08D-10
 IDIUse=1 WtCom= 1.00D+00 WtEn= 0.00D+00
 Coeff-Com:  0.522D-04-0.176D-02-0.201D-02-0.348D-02 0.101D-01 0.193D+00
 Coeff-Com:  0.262D+00 0.542D+00
 Coeff:      0.522D-04-0.176D-02-0.201D-02-0.348D-02 0.101D-01 0.193D+00
 Coeff:      0.262D+00 0.542D+00
 Gap=     0.189 Goal=   None    Shift=    0.000
 RMSDP=4.37D-08 MaxDP=9.42D-07 DE=-4.23D-10 OVMax= 1.69D-06

 Cycle   9  Pass 1  IDiag  1:
 E= -268.394866137270     Delta-E=       -0.000000000035 Rises=F Damp=F
 DIIS: error= 1.20D-07 at cycle   9 NSaved=   9.
 NSaved= 9 IEnMin= 9 EnMin= -268.394866137270     IErMin= 9 ErrMin= 1.20D-07
 ErrMax= 1.20D-07  0.00D+00 EMaxC= 1.00D-01 BMatC= 1.42D-12 BMatP= 3.55D-11
 IDIUse=1 WtCom= 1.00D+00 WtEn= 0.00D+00
 Coeff-Com:  0.434D-04-0.521D-03-0.629D-03-0.336D-02-0.400D-02 0.153D-01
 Coeff-Com:  0.322D-01 0.193D+00 0.768D+00
 Coeff:      0.434D-04-0.521D-03-0.629D-03-0.336D-02-0.400D-02 0.153D-01
 Coeff:      0.322D-01 0.193D+00 0.768D+00
 Gap=     0.189 Goal=   None    Shift=    0.000
 RMSDP=1.35D-08 MaxDP=1.61D-07 DE=-3.54D-11 OVMax= 1.00D-06

 Cycle  10  Pass 1  IDiag  1:
 E= -268.394866137268     Delta-E=        0.000000000002 Rises=F Damp=F
 DIIS: error= 2.26D-08 at cycle  10 NSaved=  10.
 NSaved=10 IEnMin= 9 EnMin= -268.394866137270     IErMin=10 ErrMin= 2.26D-08
 ErrMax= 2.26D-08  0.00D+00 EMaxC= 1.00D-01 BMatC= 7.06D-14 BMatP= 1.42D-12
 IDIUse=1 WtCom= 1.00D+00 WtEn= 0.00D+00
 Coeff-Com:  0.847D-05-0.223D-04-0.275D-04-0.613D-03-0.169D-02-0.102D-01
 Coeff-Com: -0.820D-02 0.196D-02 0.174D+00 0.845D+00
 Coeff:      0.847D-05-0.223D-04-0.275D-04-0.613D-03-0.169D-02-0.102D-01
 Coeff:     -0.820D-02 0.196D-02 0.174D+00 0.845D+00
 Gap=     0.189 Goal=   None    Shift=    0.000
 RMSDP=4.09D-09 MaxDP=6.92D-08 DE= 2.05D-12 OVMax= 3.66D-07

 SCF Done:  E(RB3LYP) =  -268.394866137     A.U. after   10 cycles
            NFock= 10  Conv=0.41D-08     -V/T= 2.0034
 KE= 2.674745630173D+02 PE=-9.630472630237D+02 EE= 2.601094571668D+02
 Leave Link  502 at Tue Oct 15 20:55:03 2019, MaxMem=   280000000 cpu:              46.7 elap:               2.5
 (Enter /home/soft/g16/l801.exe)
 DoSCS=F DFT=T ScalE2(SS,OS)=  1.000000  1.000000
 Range of M.O.s used for correlation:     1   128
 NBasis=   128 NAE=    20 NBE=    20 NFC=     0 NFV=     0
 NROrb=    128 NOA=    20 NOB=    20 NVA=   108 NVB=   108

 **** Warning!!: The largest alpha MO coefficient is  0.41808573D+02

 Leave Link  801 at Tue Oct 15 20:55:03 2019, MaxMem=   280000000 cpu:               0.4 elap:               0.0
 (Enter /home/soft/g16/l1101.exe)
 Leave Link 1101 at Tue Oct 15 20:55:03 2019, MaxMem=   280000000 cpu:               0.5 elap:               0.0
 (Enter /home/soft/g16/l1102.exe)
 Symmetrizing basis deriv contribution to polar:
 IMax=3 JMax=2 DiffMx= 0.00D+00
 Leave Link 1102 at Tue Oct 15 20:55:03 2019, MaxMem=   280000000 cpu:               1.0 elap:               0.1
 (Enter /home/soft/g16/l1110.exe)
 Leave Link 1110 at Tue Oct 15 20:55:03 2019, MaxMem=   280000000 cpu:               0.4 elap:               0.0
 (Enter /home/soft/g16/l1002.exe)
 Minotr:  Closed shell wavefunction.
 Leave Link 1002 at Tue Oct 15 20:55:03 2019, MaxMem=   280000000 cpu:               0.6 elap:               0.0
 (Enter /home/soft/g16/l701.exe)
 ... and contract with generalized density number  0.
 Compute integral first derivatives.
 Leave Link  701 at Tue Oct 15 20:55:04 2019, MaxMem=   280000000 cpu:               3.3 elap:               0.2
 (Enter /home/soft/g16/l702.exe)
 L702 exits ... SP integral derivatives will be done elsewhere.
 Leave Link  702 at Tue Oct 15 20:55:04 2019, MaxMem=   280000000 cpu:               0.4 elap:               0.0
 (Enter /home/soft/g16/l703.exe)
 Integral derivatives from FoFJK, PRISM(SPDF).
 Compute integral first derivatives, UseDBF=F ICtDFT=           0.
 Calling FoFJK, ICntrl=      2147 FMM=F ISym2X=0 I1Cent= 0 IOpClX= 0 NMat=1 NMatS=1 NMatT=0.
 FoFJK:  IHMeth= 1 ICntrl=    2147 DoSepK=F KAlg= 0 I1Cent=           0 FoldK=F
 IRaf=         0 NMat=       1 IRICut=       1 DoRegI=T DoRafI=F ISym2E= 0 IDoP0=0 IntGTp=1.
 FoFCou: FMM=F IPFlag=           0 FMFlag=      100000 FMFlg1=         800
         NFxFlg=           0 DoJE=F BraDBF=F KetDBF=F FulRan=T
         wScrn=  0.000000 ICntrl=      2147 IOpCl=  0 I1Cent=           0 NGrid=           0
         NMat0=    1 NMatS0=      1 NMatT0=    0 NMatD0=    1 NMtDS0=    0 NMtDT0=    0
 Symmetry not used in FoFCou.
 Leave Link  703 at Tue Oct 15 20:55:04 2019, MaxMem=   280000000 cpu:              13.5 elap:               0.6
 (Enter /home/soft/g16/l716.exe)
 Dipole        = 3.45135172D-01 9.72938700D-01 2.83387548D-01
 Polarizability= 0.00000000D+00 0.00000000D+00 0.00000000D+00
                 0.00000000D+00 0.00000000D+00 0.00000000D+00
 -------------------------------------------------------------------
 Center     Atomic                   Forces (Hartrees/Bohr)
 Number     Number              X              Y              Z
 -------------------------------------------------------------------
      1        6          -0.001557790    0.000492389   -0.000548007
      2        1          -0.000080401   -0.000049487   -0.000178840
      3        8          -0.003624240    0.000975968    0.002903284
      4        6          -0.002129128    0.000542914    0.000104326
      5        1           0.000368858   -0.000026761   -0.000325393
      6        1          -0.000023050   -0.000201792   -0.000119214
      7        6           0.002110469   -0.001295188    0.001084231
      8        1           0.000159471    0.000193783   -0.000036878
      9        1           0.000021240   -0.000016869   -0.000018812
     10        8           0.001819096   -0.000014310   -0.000773506
     11        1           0.002935475   -0.000600648   -0.002091191
 -------------------------------------------------------------------
 Cartesian Forces:  Max     0.003624240 RMS     0.001294453
 Z-matrix is all fixed cartesians, so copy forces.
 Leave Link  716 at Tue Oct 15 20:55:04 2019, MaxMem=   280000000 cpu:               0.9 elap:               0.1
 (Enter /home/soft/g16/l123.exe)
 IRC-IRC-IRC-IRC-IRC-IRC-IRC-IRC-IRC-IRC-IRC-IRC-IRC-IRC-IRC-IRC-IRC-IRC
 Error in corrector energy =          -0.0000348646
 Magnitude of corrector gradient =     0.0043926813
 Magnitude of analytic gradient =      0.0074360653
 Magnitude of difference =             0.0058232700
 Angle between gradients (degrees)=   51.4862
 Pt 27 Step number  20 out of a maximum of  20
 Using modified Bulirsch-Stoer corrector integration.
   Using distance weighted interpolants to fit PES.
 PreDWI: IReCr0= 2 IReCr1= 1 IReCr2= 1 IReCr3= 1
 Modified Bulirsch-Stoer Extrapolation Cycles:
    EPS =    0.000010000000000
    Cycle     1 NS=    48
      PEZero:  N= 2 I= 1 D=  1.06D-03 Err=  1.01D-04
    Cycle     2 NS=    64 Truncation Error =  0.000101478
      PEZero:  N= 3 I= 2 D=  1.06D-03 Err=  6.76D-05
      PEZero:  N= 3 I= 1 D=  2.12D-03 Err=  3.91D-07
    Cycle     3 NS=    96 Truncation Error =  0.000000391
 BS completed in    3 cycles and     208 integration steps.
 Maximum DWI energy   std dev =  0.000001233 at pt    -1
 Maximum DWI gradient std dev =  0.249648538 at pt    29
 SUMMARY OF CORRECTOR INTEGRATION:
   Predictor End Point Energy =  -268.394869
   Old End Point Energy       =  -268.394866
   Corrected End Point Energy =  -268.394900
   Predictor End-Start Dist.  =     0.203257
   Old End-Start Dist.        =     0.202009
   New End-Start Dist.        =     0.202981
   New End-Old End Dist.      =     0.030875
 CORRECTOR INTEGRATION CONVERGENCE:
   Recorrection delta-x convergence threshold:    0.010000
   Delta-x Convergence NOT Met
 Maximum number of corrector steps exceded.
 Error termination via Lnk1e in /home/soft/g16/l123.exe at Tue Oct 15 20:55:05 2019.
 Job cpu time:       0 days  2 hours  2 minutes 17.2 seconds.
 Elapsed time:       0 days  0 hours  6 minutes 21.7 seconds.
 File lengths (MBytes):  RWF=    332 Int=      0 D2E=      0 Chk=      8 Scr=      8
