 Entering Gaussian System, Link 0=g16
 Input=irc32p.gjf
 Output=irc32p.log
 Initial command:
 /home/soft/g16/l1.exe "/tmp/gaussian/Gau-135159.inp" -scrdir="/tmp/gaussian/"
 Entering Link 1 = /home/soft/g16/l1.exe PID=    135160.
  
 Copyright (c) 1988,1990,1992,1993,1995,1998,2003,2009,2016,
            Gaussian, Inc.  All Rights Reserved.
  
 This is part of the Gaussian(R) 16 program.  It is based on
 the Gaussian(R) 09 system (copyright 2009, Gaussian, Inc.),
 the Gaussian(R) 03 system (copyright 2003, Gaussian, Inc.),
 the Gaussian(R) 98 system (copyright 1998, Gaussian, Inc.),
 the Gaussian(R) 94 system (copyright 1995, Gaussian, Inc.),
 the Gaussian 92(TM) system (copyright 1992, Gaussian, Inc.),
 the Gaussian 90(TM) system (copyright 1990, Gaussian, Inc.),
 the Gaussian 88(TM) system (copyright 1988, Gaussian, Inc.),
 the Gaussian 86(TM) system (copyright 1986, Carnegie Mellon
 University), and the Gaussian 82(TM) system (copyright 1983,
 Carnegie Mellon University). Gaussian is a federally registered
 trademark of Gaussian, Inc.
  
 This software contains proprietary and confidential information,
 including trade secrets, belonging to Gaussian, Inc.
  
 This software is provided under written license and may be
 used, copied, transmitted, or stored only in accord with that
 written license.
  
 The following legend is applicable only to US Government
 contracts under FAR:
  
                    RESTRICTED RIGHTS LEGEND
  
 Use, reproduction and disclosure by the US Government is
 subject to restrictions as set forth in subparagraphs (a)
 and (c) of the Commercial Computer Software - Restricted
 Rights clause in FAR 52.227-19.
  
 Gaussian, Inc.
 340 Quinnipiac St., Bldg. 40, Wallingford CT 06492
  
  
 ---------------------------------------------------------------
 Warning -- This program may not be used in any manner that
 competes with the business of Gaussian, Inc. or will provide
 assistance to any competitor of Gaussian, Inc.  The licensee
 of this program is prohibited from giving any competitor of
 Gaussian, Inc. access to this program.  By using this program,
 the user acknowledges that Gaussian, Inc. is engaged in the
 business of creating and licensing software in the field of
 computational chemistry and represents and warrants to the
 licensee that it is not a competitor of Gaussian, Inc. and that
 it will not use this program in any manner prohibited above.
 ---------------------------------------------------------------
  

 Cite this work as:
 Gaussian 16, Revision A.03,
 M. J. Frisch, G. W. Trucks, H. B. Schlegel, G. E. Scuseria, 
 M. A. Robb, J. R. Cheeseman, G. Scalmani, V. Barone, 
 G. A. Petersson, H. Nakatsuji, X. Li, M. Caricato, A. V. Marenich, 
 J. Bloino, B. G. Janesko, R. Gomperts, B. Mennucci, H. P. Hratchian, 
 J. V. Ortiz, A. F. Izmaylov, J. L. Sonnenberg, D. Williams-Young, 
 F. Ding, F. Lipparini, F. Egidi, J. Goings, B. Peng, A. Petrone, 
 T. Henderson, D. Ranasinghe, V. G. Zakrzewski, J. Gao, N. Rega, 
 G. Zheng, W. Liang, M. Hada, M. Ehara, K. Toyota, R. Fukuda, 
 J. Hasegawa, M. Ishida, T. Nakajima, Y. Honda, O. Kitao, H. Nakai, 
 T. Vreven, K. Throssell, J. A. Montgomery, Jr., J. E. Peralta, 
 F. Ogliaro, M. J. Bearpark, J. J. Heyd, E. N. Brothers, K. N. Kudin, 
 V. N. Staroverov, T. A. Keith, R. Kobayashi, J. Normand, 
 K. Raghavachari, A. P. Rendell, J. C. Burant, S. S. Iyengar, 
 J. Tomasi, M. Cossi, J. M. Millam, M. Klene, C. Adamo, R. Cammi, 
 J. W. Ochterski, R. L. Martin, K. Morokuma, O. Farkas, 
 J. B. Foresman, and D. J. Fox, Gaussian, Inc., Wallingford CT, 2016.
 
 ******************************************
 Gaussian 16:  ES64L-G16RevA.03 25-Dec-2016
                15-Oct-2019 
 ******************************************
 %chk=irc32p.chk
 %nprocshared=24
 Will use up to   24 processors via shared memory.
 ----------------------------
 #p opt freq b3lyp/6-311+g(d)
 ----------------------------
 1/18=20,19=15,26=3,38=1/1,3;
 2/9=110,12=2,17=6,18=5,40=1/2;
 3/5=4,6=6,7=11,11=2,25=1,30=1,71=1,74=-5/1,2,3;
 4//1;
 5/5=2,38=5/2;
 6/7=2,8=2,9=2,10=2,28=1/1;
 7//1,2,3,16;
 1/18=20,19=15,26=3/3(2);
 2/9=110/2;
 99//99;
 2/9=110/2;
 3/5=4,6=6,7=11,11=2,25=1,30=1,71=1,74=-5/1,2,3;
 4/5=5,16=3,69=1/1;
 5/5=2,38=5/2;
 7//1,2,3,16;
 1/18=20,19=15,26=3/3(-5);
 2/9=110/2;
 6/7=2,8=2,9=2,10=2,19=2,28=1/1;
 99/9=1/99;
 Leave Link    1 at Tue Oct 15 21:36:02 2019, MaxMem=           0 cpu:               2.2 elap:               0.1
 (Enter /home/soft/g16/l101.exe)
 -------------------
 Title Card Required
 -------------------
 Symbolic Z-matrix:
 Charge =  0 Multiplicity = 1
 C                    -1.34831   0.22752   0.13966 
 H                    -2.27107   0.74151   0.49353 
 O                    -1.33327  -0.98248   0.06669 
 C                    -0.169     1.09778  -0.23016 
 H                    -0.12361   1.1463   -1.32719 
 H                    -0.33429   2.11798   0.13194 
 C                     1.16767   0.54674   0.29963 
 H                     1.96943   1.24054   0.0404 
 H                     1.12655   0.48814   1.39644 
 O                     1.52309  -0.70069  -0.2607 
 H                     0.78341  -1.31141  -0.14615 
 
 ITRead=  0  0  0  0  0  0  0  0  0  0  0
 MicOpt= -1 -1 -1 -1 -1 -1 -1 -1 -1 -1 -1
 NAtoms=     11 NQM=       11 NQMF=       0 NMMI=      0 NMMIF=      0
                NMic=       0 NMicF=      0.
                    Isotopes and Nuclear Properties:
 (Nuclear quadrupole moments (NQMom) in fm**2, nuclear magnetic moments (NMagM)
  in nuclear magnetons)

  Atom         1           2           3           4           5           6           7           8           9          10
 IAtWgt=          12           1          16          12           1           1          12           1           1          16
 AtmWgt=  12.0000000   1.0078250  15.9949146  12.0000000   1.0078250   1.0078250  12.0000000   1.0078250   1.0078250  15.9949146
 NucSpn=           0           1           0           0           1           1           0           1           1           0
 AtZEff=  -0.0000000  -0.0000000  -0.0000000  -0.0000000  -0.0000000  -0.0000000  -0.0000000  -0.0000000  -0.0000000  -0.0000000
 NQMom=    0.0000000   0.0000000   0.0000000   0.0000000   0.0000000   0.0000000   0.0000000   0.0000000   0.0000000   0.0000000
 NMagM=    0.0000000   2.7928460   0.0000000   0.0000000   2.7928460   2.7928460   0.0000000   2.7928460   2.7928460   0.0000000
 AtZNuc=   6.0000000   1.0000000   8.0000000   6.0000000   1.0000000   1.0000000   6.0000000   1.0000000   1.0000000   8.0000000

  Atom        11
 IAtWgt=           1
 AtmWgt=   1.0078250
 NucSpn=           1
 AtZEff=  -0.0000000
 NQMom=    0.0000000
 NMagM=    2.7928460
 AtZNuc=   1.0000000
 Leave Link  101 at Tue Oct 15 21:36:02 2019, MaxMem=   280000000 cpu:               4.6 elap:               0.2
 (Enter /home/soft/g16/l103.exe)

 GradGradGradGradGradGradGradGradGradGradGradGradGradGradGradGradGradGrad
 Berny optimization.
 Initialization pass.
                           ----------------------------
                           !    Initial Parameters    !
                           ! (Angstroms and Degrees)  !
 --------------------------                            --------------------------
 ! Name  Definition              Value          Derivative Info.                !
 --------------------------------------------------------------------------------
 ! R1    R(1,2)                  1.114          estimate D2E/DX2                !
 ! R2    R(1,3)                  1.2123         estimate D2E/DX2                !
 ! R3    R(1,4)                  1.5116         estimate D2E/DX2                !
 ! R4    R(4,5)                  1.099          estimate D2E/DX2                !
 ! R5    R(4,6)                  1.0951         estimate D2E/DX2                !
 ! R6    R(4,7)                  1.5398         estimate D2E/DX2                !
 ! R7    R(7,8)                  1.0915         estimate D2E/DX2                !
 ! R8    R(7,9)                  1.0991         estimate D2E/DX2                !
 ! R9    R(7,10)                 1.4129         estimate D2E/DX2                !
 ! R10   R(10,11)                0.966          estimate D2E/DX2                !
 ! A1    A(2,1,3)              119.3364         estimate D2E/DX2                !
 ! A2    A(2,1,4)              117.2807         estimate D2E/DX2                !
 ! A3    A(3,1,4)              123.3828         estimate D2E/DX2                !
 ! A4    A(1,4,5)              107.5684         estimate D2E/DX2                !
 ! A5    A(1,4,6)              109.7365         estimate D2E/DX2                !
 ! A6    A(1,4,7)              112.7706         estimate D2E/DX2                !
 ! A7    A(5,4,6)              107.1672         estimate D2E/DX2                !
 ! A8    A(5,4,7)              108.8676         estimate D2E/DX2                !
 ! A9    A(6,4,7)              110.5268         estimate D2E/DX2                !
 ! A10   A(4,7,8)              109.175          estimate D2E/DX2                !
 ! A11   A(4,7,9)              109.2648         estimate D2E/DX2                !
 ! A12   A(4,7,10)             113.4445         estimate D2E/DX2                !
 ! A13   A(8,7,9)              107.3596         estimate D2E/DX2                !
 ! A14   A(8,7,10)             106.3929         estimate D2E/DX2                !
 ! A15   A(9,7,10)             110.982          estimate D2E/DX2                !
 ! A16   A(7,10,11)            108.5729         estimate D2E/DX2                !
 ! D1    D(2,1,4,5)           -103.137          estimate D2E/DX2                !
 ! D2    D(2,1,4,6)             13.1275         estimate D2E/DX2                !
 ! D3    D(2,1,4,7)            136.8117         estimate D2E/DX2                !
 ! D4    D(3,1,4,5)             76.7379         estimate D2E/DX2                !
 ! D5    D(3,1,4,6)           -166.9977         estimate D2E/DX2                !
 ! D6    D(3,1,4,7)            -43.3135         estimate D2E/DX2                !
 ! D7    D(1,4,7,8)           -177.4054         estimate D2E/DX2                !
 ! D8    D(1,4,7,9)            -60.2651         estimate D2E/DX2                !
 ! D9    D(1,4,7,10)            64.1381         estimate D2E/DX2                !
 ! D10   D(5,4,7,8)             63.2937         estimate D2E/DX2                !
 ! D11   D(5,4,7,9)           -179.566          estimate D2E/DX2                !
 ! D12   D(5,4,7,10)           -55.1628         estimate D2E/DX2                !
 ! D13   D(6,4,7,8)            -54.1595         estimate D2E/DX2                !
 ! D14   D(6,4,7,9)             62.9808         estimate D2E/DX2                !
 ! D15   D(6,4,7,10)          -172.616          estimate D2E/DX2                !
 ! D16   D(4,7,10,11)          -52.9194         estimate D2E/DX2                !
 ! D17   D(8,7,10,11)         -172.9694         estimate D2E/DX2                !
 ! D18   D(9,7,10,11)           70.5487         estimate D2E/DX2                !
 --------------------------------------------------------------------------------
 Trust Radius=3.00D-01 FncErr=1.00D-07 GrdErr=1.00D-06 EigMax=2.50D+02 EigMin=1.00D-04
 Number of steps in this run=     54 maximum allowed number of steps=    100.
 GradGradGradGradGradGradGradGradGradGradGradGradGradGradGradGradGradGrad

 Leave Link  103 at Tue Oct 15 21:36:02 2019, MaxMem=   280000000 cpu:               0.7 elap:               0.1
 (Enter /home/soft/g16/l202.exe)
                          Input orientation:                          
 ---------------------------------------------------------------------
 Center     Atomic      Atomic             Coordinates (Angstroms)
 Number     Number       Type             X           Y           Z
 ---------------------------------------------------------------------
      1          6           0       -1.348308    0.227523    0.139662
      2          1           0       -2.271068    0.741509    0.493528
      3          8           0       -1.333266   -0.982482    0.066687
      4          6           0       -0.168997    1.097784   -0.230159
      5          1           0       -0.123609    1.146298   -1.327185
      6          1           0       -0.334286    2.117983    0.131942
      7          6           0        1.167671    0.546738    0.299634
      8          1           0        1.969433    1.240536    0.040403
      9          1           0        1.126547    0.488137    1.396435
     10          8           0        1.523088   -0.700690   -0.260699
     11          1           0        0.783408   -1.311413   -0.146147
 ---------------------------------------------------------------------
                    Distance matrix (angstroms):
                    1          2          3          4          5
     1  C    0.000000
     2  H    1.113952   0.000000
     3  O    1.212297   2.008435   0.000000
     4  C    1.511587   2.251523   2.402321   0.000000
     5  H    2.120301   2.844368   2.817420   1.099036   0.000000
     6  H    2.145260   2.403445   3.258083   1.095100   1.765675
     7  C    2.541189   3.449704   2.940657   1.539810   2.161809
     8  H    3.470368   4.293740   3.981246   2.160200   2.502000
     9  H    2.787885   3.524660   3.159372   2.167005   3.068252
    10  O    3.044139   4.128488   2.888831   2.469533   2.694507
    11  H    2.644660   3.735438   2.152627   2.591981   2.873652
                    6          7          8          9         10
     6  H    0.000000
     7  C    2.180093   0.000000
     8  H    2.466863   1.091503   0.000000
     9  H    2.527721   1.099135   1.765045   0.000000
    10  O    3.398371   1.412930   2.014509   2.077654   0.000000
    11  H    3.617642   1.949129   2.820266   2.394929   0.966039
                   11
    11  H    0.000000
 Stoichiometry    C3H6O2
 Framework group  C1[X(C3H6O2)]
 Deg. of freedom    27
 Full point group                 C1      NOp   1
 Largest Abelian subgroup         C1      NOp   1
 Largest concise Abelian subgroup C1      NOp   1
                         Standard orientation:                         
 ---------------------------------------------------------------------
 Center     Atomic      Atomic             Coordinates (Angstroms)
 Number     Number       Type             X           Y           Z
 ---------------------------------------------------------------------
      1          6           0       -1.351817    0.266411    0.075063
      2          1           0       -2.250236    0.850846    0.378654
      3          8           0       -1.415451   -0.943610    0.036788
      4          6           0       -0.104021    1.045104   -0.273559
      5          1           0       -0.015554    1.056890   -1.368965
      6          1           0       -0.213475    2.084606    0.053088
      7          6           0        1.172424    0.423420    0.322437
      8          1           0        2.027893    1.054454    0.074753
      9          1           0        1.087539    0.401284    1.418065
     10          8           0        1.463405   -0.861344   -0.188528
     11          1           0        0.680686   -1.418057   -0.085314
 ---------------------------------------------------------------------
 Rotational constants (GHZ):           8.6521007           4.1199712           3.0201027
 Leave Link  202 at Tue Oct 15 21:36:02 2019, MaxMem=   280000000 cpu:               0.8 elap:               0.1
 (Enter /home/soft/g16/l301.exe)
 Standard basis: 6-311+G(d) (5D, 7F)
 Ernie: Thresh=  0.10000D-02 Tol=  0.10000D-05 Strict=F.
 There are   133 symmetry adapted cartesian basis functions of A   symmetry.
 There are   128 symmetry adapted basis functions of A   symmetry.
   128 basis functions,   210 primitive gaussians,   133 cartesian basis functions
    20 alpha electrons       20 beta electrons
       nuclear repulsion energy       177.2886281027 Hartrees.
 IExCor=  402 DFT=T Ex+Corr=B3LYP ExCW=0 ScaHFX=  0.200000
 ScaDFX=  0.800000  0.720000  1.000000  0.810000 ScalE2=  1.000000  1.000000
 IRadAn=      5 IRanWt=     -1 IRanGd=            0 ICorTp=0 IEmpDi=  4
 NAtoms=   11 NActive=   11 NUniq=   11 SFac= 1.00D+00 NAtFMM=   60 NAOKFM=F Big=F
 Integral buffers will be    131072 words long.
 Raffenetti 2 integral format.
 Two-electron integral symmetry is turned on.
 Leave Link  301 at Tue Oct 15 21:36:02 2019, MaxMem=   280000000 cpu:               1.9 elap:               0.1
 (Enter /home/soft/g16/l302.exe)
 NPDir=0 NMtPBC=     1 NCelOv=     1 NCel=       1 NClECP=     1 NCelD=      1
         NCelK=      1 NCelE2=     1 NClLst=     1 CellRange=     0.0.
 One-electron integrals computed using PRISM.
 One-electron integral symmetry used in STVInt
 NBasis=   128 RedAO= T EigKep=  9.24D-05  NBF=   128
 NBsUse=   128 1.00D-06 EigRej= -1.00D+00 NBFU=   128
 Precomputing XC quadrature grid using
 IXCGrd= 4 IRadAn=           5 IRanWt=          -1 IRanGd=           0 AccXCQ= 0.00D+00.
 Generated NRdTot=       0 NPtTot=           0 NUsed=           0 NTot=          32
 NSgBfM=   133   133   133   133   133 MxSgAt=    11 MxSgA2=    11.
 Leave Link  302 at Tue Oct 15 21:36:03 2019, MaxMem=   280000000 cpu:               4.8 elap:               0.3
 (Enter /home/soft/g16/l303.exe)
 DipDrv:  MaxL=1.
 Leave Link  303 at Tue Oct 15 21:36:03 2019, MaxMem=   280000000 cpu:               0.6 elap:               0.1
 (Enter /home/soft/g16/l401.exe)
 ExpMin= 4.38D-02 ExpMax= 8.59D+03 ExpMxC= 1.30D+03 IAcc=3 IRadAn=         5 AccDes= 0.00D+00
 Harris functional with IExCor=  402 and IRadAn=       5 diagonalized for initial guess.
 HarFok:  IExCor=  402 AccDes= 0.00D+00 IRadAn=         5 IDoV= 1 UseB2=F ITyADJ=14
 ICtDFT=  3500011 ScaDFX=  1.000000  1.000000  1.000000  1.000000
 FoFCou: FMM=F IPFlag=           0 FMFlag=      100000 FMFlg1=           0
         NFxFlg=           0 DoJE=T BraDBF=F KetDBF=T FulRan=T
         wScrn=  0.000000 ICntrl=       500 IOpCl=  0 I1Cent=   200000004 NGrid=           0
         NMat0=    1 NMatS0=      1 NMatT0=    0 NMatD0=    1 NMtDS0=    0 NMtDT0=    0
 Petite list used in FoFCou.
 Harris En= -268.461540960512    
 JPrj=0 DoOrth=F DoCkMO=F.
 Leave Link  401 at Tue Oct 15 21:36:03 2019, MaxMem=   280000000 cpu:               8.2 elap:               0.4
 (Enter /home/soft/g16/l502.exe)
 Keep R1 ints in memory in canonical form, NReq=57089853.
 FoFCou: FMM=F IPFlag=           0 FMFlag=           0 FMFlg1=           0
         NFxFlg=           0 DoJE=F BraDBF=F KetDBF=F FulRan=T
         wScrn=  0.000000 ICntrl=       600 IOpCl=  0 I1Cent=           0 NGrid=           0
         NMat0=    1 NMatS0=   8256 NMatT0=    0 NMatD0=    1 NMtDS0=    0 NMtDT0=    0
 Symmetry not used in FoFCou.
 Two-electron integral symmetry not used.
 Closed shell SCF:
 Using DIIS extrapolation, IDIIS=  1040.
 NGot=   280000000 LenX=   245875047 LenY=   245856917
 Requested convergence on RMS density matrix=1.00D-08 within 128 cycles.
 Requested convergence on MAX density matrix=1.00D-06.
 Requested convergence on             energy=1.00D-06.
 No special actions if energy rises.

 Cycle   1  Pass 1  IDiag  1:
 E= -268.274125131611    
 DIIS: error= 2.98D-02 at cycle   1 NSaved=   1.
 NSaved= 1 IEnMin= 1 EnMin= -268.274125131611     IErMin= 1 ErrMin= 2.98D-02
 ErrMax= 2.98D-02  0.00D+00 EMaxC= 1.00D-01 BMatC= 2.12D-01 BMatP= 2.12D-01
 IDIUse=3 WtCom= 7.02D-01 WtEn= 2.98D-01
 Coeff-Com:  0.100D+01
 Coeff-En:   0.100D+01
 Coeff:      0.100D+01
 Gap=     0.152 Goal=   None    Shift=    0.000
 GapD=    0.152 DampG=1.000 DampE=0.500 DampFc=0.5000 IDamp=-1.
 Damping current iteration by 5.00D-01
 RMSDP=1.23D-02 MaxDP=5.30D-01              OVMax= 2.25D-01

 Cycle   2  Pass 1  IDiag  1:
 E= -268.309044821884     Delta-E=       -0.034919690273 Rises=F Damp=T
 DIIS: error= 1.48D-02 at cycle   2 NSaved=   2.
 NSaved= 2 IEnMin= 2 EnMin= -268.309044821884     IErMin= 2 ErrMin= 1.48D-02
 ErrMax= 1.48D-02  0.00D+00 EMaxC= 1.00D-01 BMatC= 3.25D-02 BMatP= 2.12D-01
 IDIUse=3 WtCom= 8.52D-01 WtEn= 1.48D-01
 Coeff-Com:  0.229D+00 0.771D+00
 Coeff-En:   0.386D+00 0.614D+00
 Coeff:      0.252D+00 0.748D+00
 Gap=     0.216 Goal=   None    Shift=    0.000
 RMSDP=3.76D-03 MaxDP=1.82D-01 DE=-3.49D-02 OVMax= 1.81D-01

 Cycle   3  Pass 1  IDiag  1:
 E= -268.415038028370     Delta-E=       -0.105993206486 Rises=F Damp=F
 DIIS: error= 1.44D-02 at cycle   3 NSaved=   3.
 NSaved= 3 IEnMin= 3 EnMin= -268.415038028370     IErMin= 3 ErrMin= 1.44D-02
 ErrMax= 1.44D-02  0.00D+00 EMaxC= 1.00D-01 BMatC= 1.98D-02 BMatP= 3.25D-02
 IDIUse=3 WtCom= 8.56D-01 WtEn= 1.44D-01
 Coeff-Com:  0.678D-01 0.444D+00 0.488D+00
 Coeff-En:   0.000D+00 0.000D+00 0.100D+01
 Coeff:      0.581D-01 0.380D+00 0.562D+00
 Gap=     0.221 Goal=   None    Shift=    0.000
 RMSDP=1.24D-03 MaxDP=2.25D-02 DE=-1.06D-01 OVMax= 7.18D-02

 Cycle   4  Pass 1  IDiag  1:
 E= -268.426876584091     Delta-E=       -0.011838555721 Rises=F Damp=F
 DIIS: error= 8.22D-03 at cycle   4 NSaved=   4.
 NSaved= 4 IEnMin= 4 EnMin= -268.426876584091     IErMin= 4 ErrMin= 8.22D-03
 ErrMax= 8.22D-03  0.00D+00 EMaxC= 1.00D-01 BMatC= 6.21D-03 BMatP= 1.98D-02
 IDIUse=3 WtCom= 9.18D-01 WtEn= 8.22D-02
 Coeff-Com:  0.987D-02 0.117D+00 0.370D+00 0.503D+00
 Coeff-En:   0.000D+00 0.000D+00 0.264D+00 0.736D+00
 Coeff:      0.906D-02 0.108D+00 0.361D+00 0.522D+00
 Gap=     0.217 Goal=   None    Shift=    0.000
 RMSDP=5.16D-04 MaxDP=8.37D-03 DE=-1.18D-02 OVMax= 2.36D-02

 Cycle   5  Pass 1  IDiag  1:
 E= -268.431508826548     Delta-E=       -0.004632242457 Rises=F Damp=F
 DIIS: error= 1.47D-03 at cycle   5 NSaved=   5.
 NSaved= 5 IEnMin= 5 EnMin= -268.431508826548     IErMin= 5 ErrMin= 1.47D-03
 ErrMax= 1.47D-03  0.00D+00 EMaxC= 1.00D-01 BMatC= 2.69D-04 BMatP= 6.21D-03
 IDIUse=3 WtCom= 9.85D-01 WtEn= 1.47D-02
 Coeff-Com: -0.462D-04 0.260D-01 0.158D+00 0.288D+00 0.528D+00
 Coeff-En:   0.000D+00 0.000D+00 0.000D+00 0.000D+00 0.100D+01
 Coeff:     -0.455D-04 0.256D-01 0.156D+00 0.283D+00 0.535D+00
 Gap=     0.217 Goal=   None    Shift=    0.000
 RMSDP=1.58D-04 MaxDP=5.50D-03 DE=-4.63D-03 OVMax= 3.46D-03

 Cycle   6  Pass 1  IDiag  1:
 E= -268.431681290498     Delta-E=       -0.000172463951 Rises=F Damp=F
 DIIS: error= 3.81D-04 at cycle   6 NSaved=   6.
 NSaved= 6 IEnMin= 6 EnMin= -268.431681290498     IErMin= 6 ErrMin= 3.81D-04
 ErrMax= 3.81D-04  0.00D+00 EMaxC= 1.00D-01 BMatC= 2.43D-05 BMatP= 2.69D-04
 IDIUse=3 WtCom= 9.96D-01 WtEn= 3.81D-03
 Coeff-Com: -0.101D-02-0.567D-03 0.409D-01 0.900D-01 0.290D+00 0.580D+00
 Coeff-En:   0.000D+00 0.000D+00 0.000D+00 0.000D+00 0.372D-01 0.963D+00
 Coeff:     -0.101D-02-0.565D-03 0.408D-01 0.897D-01 0.290D+00 0.582D+00
 Gap=     0.216 Goal=   None    Shift=    0.000
 RMSDP=4.80D-05 MaxDP=1.28D-03 DE=-1.72D-04 OVMax= 7.33D-04

 Cycle   7  Pass 1  IDiag  1:
 E= -268.431699625398     Delta-E=       -0.000018334899 Rises=F Damp=F
 DIIS: error= 3.12D-05 at cycle   7 NSaved=   7.
 NSaved= 7 IEnMin= 7 EnMin= -268.431699625398     IErMin= 7 ErrMin= 3.12D-05
 ErrMax= 3.12D-05  0.00D+00 EMaxC= 1.00D-01 BMatC= 2.94D-07 BMatP= 2.43D-05
 IDIUse=1 WtCom= 1.00D+00 WtEn= 0.00D+00
 Coeff-Com: -0.428D-04-0.108D-02 0.803D-02 0.186D-01 0.739D-01 0.182D+00
 Coeff-Com:  0.719D+00
 Coeff:     -0.428D-04-0.108D-02 0.803D-02 0.186D-01 0.739D-01 0.182D+00
 Coeff:      0.719D+00
 Gap=     0.216 Goal=   None    Shift=    0.000
 RMSDP=5.30D-06 MaxDP=1.28D-04 DE=-1.83D-05 OVMax= 1.25D-04

 Cycle   8  Pass 1  IDiag  1:
 E= -268.431699832299     Delta-E=       -0.000000206901 Rises=F Damp=F
 DIIS: error= 1.61D-05 at cycle   8 NSaved=   8.
 NSaved= 8 IEnMin= 8 EnMin= -268.431699832299     IErMin= 8 ErrMin= 1.61D-05
 ErrMax= 1.61D-05  0.00D+00 EMaxC= 1.00D-01 BMatC= 4.45D-08 BMatP= 2.94D-07
 IDIUse=1 WtCom= 1.00D+00 WtEn= 0.00D+00
 Coeff-Com:  0.852D-04-0.605D-03 0.896D-03 0.220D-02 0.136D-01 0.404D-01
 Coeff-Com:  0.317D+00 0.627D+00
 Coeff:      0.852D-04-0.605D-03 0.896D-03 0.220D-02 0.136D-01 0.404D-01
 Coeff:      0.317D+00 0.627D+00
 Gap=     0.216 Goal=   None    Shift=    0.000
 RMSDP=2.19D-06 MaxDP=8.14D-05 DE=-2.07D-07 OVMax= 4.74D-05

 Cycle   9  Pass 1  IDiag  1:
 E= -268.431699872260     Delta-E=       -0.000000039961 Rises=F Damp=F
 DIIS: error= 2.76D-06 at cycle   9 NSaved=   9.
 NSaved= 9 IEnMin= 9 EnMin= -268.431699872260     IErMin= 9 ErrMin= 2.76D-06
 ErrMax= 2.76D-06  0.00D+00 EMaxC= 1.00D-01 BMatC= 2.01D-09 BMatP= 4.45D-08
 IDIUse=1 WtCom= 1.00D+00 WtEn= 0.00D+00
 Coeff-Com:  0.435D-04-0.137D-03-0.218D-03-0.608D-03-0.756D-03-0.393D-03
 Coeff-Com:  0.491D-01 0.213D+00 0.740D+00
 Coeff:      0.435D-04-0.137D-03-0.218D-03-0.608D-03-0.756D-03-0.393D-03
 Coeff:      0.491D-01 0.213D+00 0.740D+00
 Gap=     0.216 Goal=   None    Shift=    0.000
 RMSDP=5.85D-07 MaxDP=1.48D-05 DE=-4.00D-08 OVMax= 1.03D-05

 Cycle  10  Pass 1  IDiag  1:
 E= -268.431699874081     Delta-E=       -0.000000001822 Rises=F Damp=F
 DIIS: error= 5.62D-07 at cycle  10 NSaved=  10.
 NSaved=10 IEnMin=10 EnMin= -268.431699874081     IErMin=10 ErrMin= 5.62D-07
 ErrMax= 5.62D-07  0.00D+00 EMaxC= 1.00D-01 BMatC= 6.84D-11 BMatP= 2.01D-09
 IDIUse=1 WtCom= 1.00D+00 WtEn= 0.00D+00
 Coeff-Com:  0.924D-05-0.228D-04-0.834D-04-0.254D-03-0.629D-03-0.145D-02
 Coeff-Com:  0.525D-02 0.445D-01 0.241D+00 0.712D+00
 Coeff:      0.924D-05-0.228D-04-0.834D-04-0.254D-03-0.629D-03-0.145D-02
 Coeff:      0.525D-02 0.445D-01 0.241D+00 0.712D+00
 Gap=     0.216 Goal=   None    Shift=    0.000
 RMSDP=7.90D-08 MaxDP=1.75D-06 DE=-1.82D-09 OVMax= 2.79D-06

 Cycle  11  Pass 1  IDiag  1:
 E= -268.431699874133     Delta-E=       -0.000000000051 Rises=F Damp=F
 DIIS: error= 2.91D-07 at cycle  11 NSaved=  11.
 NSaved=11 IEnMin=11 EnMin= -268.431699874133     IErMin=11 ErrMin= 2.91D-07
 ErrMax= 2.91D-07  0.00D+00 EMaxC= 1.00D-01 BMatC= 1.30D-11 BMatP= 6.84D-11
 IDIUse=1 WtCom= 1.00D+00 WtEn= 0.00D+00
 Coeff-Com: -0.905D-06 0.233D-05-0.881D-05-0.411D-04-0.143D-03-0.476D-03
 Coeff-Com: -0.200D-02-0.269D-02 0.289D-01 0.337D+00 0.639D+00
 Coeff:     -0.905D-06 0.233D-05-0.881D-05-0.411D-04-0.143D-03-0.476D-03
 Coeff:     -0.200D-02-0.269D-02 0.289D-01 0.337D+00 0.639D+00
 Gap=     0.216 Goal=   None    Shift=    0.000
 RMSDP=2.44D-08 MaxDP=6.66D-07 DE=-5.13D-11 OVMax= 8.26D-07

 Cycle  12  Pass 1  IDiag  1:
 E= -268.431699874144     Delta-E=       -0.000000000011 Rises=F Damp=F
 DIIS: error= 3.60D-08 at cycle  12 NSaved=  12.
 NSaved=12 IEnMin=12 EnMin= -268.431699874144     IErMin=12 ErrMin= 3.60D-08
 ErrMax= 3.60D-08  0.00D+00 EMaxC= 1.00D-01 BMatC= 1.89D-13 BMatP= 1.30D-11
 IDIUse=1 WtCom= 1.00D+00 WtEn= 0.00D+00
 Coeff-Com: -0.502D-06 0.128D-05 0.221D-05 0.175D-05-0.169D-05-0.313D-04
 Coeff-Com: -0.590D-03-0.285D-02-0.763D-02 0.244D-01 0.947D-01 0.892D+00
 Coeff:     -0.502D-06 0.128D-05 0.221D-05 0.175D-05-0.169D-05-0.313D-04
 Coeff:     -0.590D-03-0.285D-02-0.763D-02 0.244D-01 0.947D-01 0.892D+00
 Gap=     0.216 Goal=   None    Shift=    0.000
 RMSDP=7.46D-09 MaxDP=2.16D-07 DE=-1.08D-11 OVMax= 3.44D-07

 SCF Done:  E(RB3LYP) =  -268.431699874     A.U. after   12 cycles
            NFock= 12  Conv=0.75D-08     -V/T= 2.0036
 KE= 2.674794751390D+02 PE=-9.836068547996D+02 EE= 2.704070516837D+02
 Leave Link  502 at Tue Oct 15 21:36:06 2019, MaxMem=   280000000 cpu:              56.0 elap:               2.9
 (Enter /home/soft/g16/l601.exe)
 Copying SCF densities to generalized density rwf, IOpCl= 0 IROHF=0.

 **********************************************************************

            Population analysis using the SCF density.

 **********************************************************************

 Orbital symmetries:
       Occupied  (A) (A) (A) (A) (A) (A) (A) (A) (A) (A) (A) (A)
                 (A) (A) (A) (A) (A) (A) (A) (A)
       Virtual   (A) (A) (A) (A) (A) (A) (A) (A) (A) (A) (A) (A)
                 (A) (A) (A) (A) (A) (A) (A) (A) (A) (A) (A) (A)
                 (A) (A) (A) (A) (A) (A) (A) (A) (A) (A) (A) (A)
                 (A) (A) (A) (A) (A) (A) (A) (A) (A) (A) (A) (A)
                 (A) (A) (A) (A) (A) (A) (A) (A) (A) (A) (A) (A)
                 (A) (A) (A) (A) (A) (A) (A) (A) (A) (A) (A) (A)
                 (A) (A) (A) (A) (A) (A) (A) (A) (A) (A) (A) (A)
                 (A) (A) (A) (A) (A) (A) (A) (A) (A) (A) (A) (A)
                 (A) (A) (A) (A) (A) (A) (A) (A) (A) (A) (A) (A)
 The electronic state is 1-A.
 Alpha  occ. eigenvalues --  -19.14960 -19.12140 -10.28682 -10.23384 -10.19978
 Alpha  occ. eigenvalues --   -1.08005  -1.02942  -0.79457  -0.67512  -0.59478
 Alpha  occ. eigenvalues --   -0.52549  -0.51272  -0.47101  -0.44294  -0.43818
 Alpha  occ. eigenvalues --   -0.42116  -0.38656  -0.34876  -0.28540  -0.27837
 Alpha virt. eigenvalues --   -0.06262  -0.00161   0.02302   0.02536   0.02817
 Alpha virt. eigenvalues --    0.05416   0.05682   0.06850   0.07676   0.08758
 Alpha virt. eigenvalues --    0.11046   0.11415   0.14362   0.14485   0.15837
 Alpha virt. eigenvalues --    0.17630   0.18500   0.19274   0.21138   0.21947
 Alpha virt. eigenvalues --    0.22886   0.23827   0.25402   0.25704   0.26656
 Alpha virt. eigenvalues --    0.27703   0.28709   0.30163   0.32068   0.34779
 Alpha virt. eigenvalues --    0.40158   0.43738   0.45040   0.48096   0.50195
 Alpha virt. eigenvalues --    0.51973   0.54203   0.55998   0.59196   0.61094
 Alpha virt. eigenvalues --    0.64317   0.65992   0.68232   0.68978   0.69263
 Alpha virt. eigenvalues --    0.73683   0.81565   0.89895   0.92871   1.04262
 Alpha virt. eigenvalues --    1.06494   1.09478   1.09701   1.12745   1.15262
 Alpha virt. eigenvalues --    1.17854   1.29858   1.36448   1.41680   1.42124
 Alpha virt. eigenvalues --    1.50868   1.54133   1.58859   1.60263   1.61807
 Alpha virt. eigenvalues --    1.65096   1.71164   1.76980   1.89285   1.90159
 Alpha virt. eigenvalues --    2.04948   2.12321   2.27621   2.38476   2.44225
 Alpha virt. eigenvalues --    2.47884   2.52616   2.53176   2.65975   2.81284
 Alpha virt. eigenvalues --    2.82268   2.84654   2.86049   2.91048   2.97813
 Alpha virt. eigenvalues --    3.03149   3.09662   3.16757   3.19715   3.25441
 Alpha virt. eigenvalues --    3.31369   3.37568   3.44047   3.58102   3.74141
 Alpha virt. eigenvalues --    3.94291   4.06512   4.99130   5.02357   5.07917
 Alpha virt. eigenvalues --    5.13444   5.43965   5.62789  23.48927  23.64339
 Alpha virt. eigenvalues --   23.75087  49.86765  49.89999
          Condensed to atoms (all electrons):
               1          2          3          4          5          6
     1  C    5.558038   0.366203   0.272586  -0.135949  -0.026195  -0.079636
     2  H    0.366203   0.567849  -0.052830  -0.091597   0.002135   0.001755
     3  O    0.272586  -0.052830   8.089760  -0.065412  -0.013885   0.012517
     4  C   -0.135949  -0.091597  -0.065412   6.178315   0.382728   0.404968
     5  H   -0.026195   0.002135  -0.013885   0.382728   0.425475  -0.029884
     6  H   -0.079636   0.001755   0.012517   0.404968  -0.029884   0.469442
     7  C    0.021454   0.006503   0.016544   0.001014  -0.027148  -0.033639
     8  H    0.015959  -0.000396   0.000277  -0.099126  -0.007753  -0.001835
     9  H   -0.035164  -0.000424  -0.001183   0.005973   0.006113  -0.001108
    10  O   -0.075326  -0.000197   0.003101   0.022268  -0.009617   0.010749
    11  H    0.005981   0.000149   0.018640  -0.030526   0.000819  -0.000951
               7          8          9         10         11
     1  C    0.021454   0.015959  -0.035164  -0.075326   0.005981
     2  H    0.006503  -0.000396  -0.000424  -0.000197   0.000149
     3  O    0.016544   0.000277  -0.001183   0.003101   0.018640
     4  C    0.001014  -0.099126   0.005973   0.022268  -0.030526
     5  H   -0.027148  -0.007753   0.006113  -0.009617   0.000819
     6  H   -0.033639  -0.001835  -0.001108   0.010749  -0.000951
     7  C    5.464556   0.454817   0.361955   0.193373   0.005447
     8  H    0.454817   0.492372  -0.047718  -0.064612   0.008839
     9  H    0.361955  -0.047718   0.547476  -0.057195  -0.005188
    10  O    0.193373  -0.064612  -0.057195   8.119972   0.235640
    11  H    0.005447   0.008839  -0.005188   0.235640   0.398720
 Mulliken charges:
               1
     1  C    0.112048
     2  H    0.200850
     3  O   -0.280116
     4  C   -0.572656
     5  H    0.297213
     6  H    0.247623
     7  C   -0.464876
     8  H    0.249175
     9  H    0.226464
    10  O   -0.378156
    11  H    0.362430
 Sum of Mulliken charges =  -0.00000
 Mulliken charges with hydrogens summed into heavy atoms:
               1
     1  C    0.312898
     3  O   -0.280116
     4  C   -0.027820
     7  C    0.010764
    10  O   -0.015726
 Electronic spatial extent (au):  <R**2>=            426.0538
 Charge=              0.0000 electrons
 Dipole moment (field-independent basis, Debye):
    X=             -1.1040    Y=              3.2688    Z=              0.5505  Tot=              3.4939
 Quadrupole moment (field-independent basis, Debye-Ang):
   XX=            -34.9947   YY=            -30.6718   ZZ=            -30.2654
   XY=             -0.4411   XZ=              0.9931   YZ=             -0.4011
 Traceless Quadrupole moment (field-independent basis, Debye-Ang):
   XX=             -3.0174   YY=              1.3055   ZZ=              1.7119
   XY=             -0.4411   XZ=              0.9931   YZ=             -0.4011
 Octapole moment (field-independent basis, Debye-Ang**2):
  XXX=             -6.3426  YYY=             -5.3822  ZZZ=             -0.6853  XYY=              1.6112
  XXY=             11.4725  XXZ=              1.5761  XZZ=             -1.0773  YZZ=             -1.0357
  YYZ=             -0.1686  XYZ=             -1.4094
 Hexadecapole moment (field-independent basis, Debye-Ang**3):
 XXXX=           -326.8195 YYYY=           -159.7562 ZZZZ=            -53.6681 XXXY=              4.4101
 XXXZ=              0.1624 YYYX=             -2.6309 YYYZ=              2.1200 ZZZX=              0.4528
 ZZZY=             -1.4902 XXYY=            -90.1527 XXZZ=            -63.7820 YYZZ=            -38.1828
 XXYZ=             -0.0945 YYXZ=             -0.4563 ZZXY=              0.9872
 N-N= 1.772886281027D+02 E-N=-9.836068560956D+02  KE= 2.674794751390D+02
 No NMR shielding tensors so no spin-rotation constants.
 Leave Link  601 at Tue Oct 15 21:36:06 2019, MaxMem=   280000000 cpu:               1.8 elap:               0.1
 (Enter /home/soft/g16/l701.exe)
 ... and contract with generalized density number  0.
 Compute integral first derivatives.
 Leave Link  701 at Tue Oct 15 21:36:07 2019, MaxMem=   280000000 cpu:               2.8 elap:               0.3
 (Enter /home/soft/g16/l702.exe)
 L702 exits ... SP integral derivatives will be done elsewhere.
 Leave Link  702 at Tue Oct 15 21:36:07 2019, MaxMem=   280000000 cpu:               0.6 elap:               0.0
 (Enter /home/soft/g16/l703.exe)
 Integral derivatives from FoFJK, PRISM(SPDF).
 Compute integral first derivatives, UseDBF=F ICtDFT=           0.
 Calling FoFJK, ICntrl=      2127 FMM=F ISym2X=0 I1Cent= 0 IOpClX= 0 NMat=1 NMatS=1 NMatT=0.
 FoFJK:  IHMeth= 1 ICntrl=    2127 DoSepK=F KAlg= 0 I1Cent=           0 FoldK=F
 IRaf=         0 NMat=       1 IRICut=       1 DoRegI=T DoRafI=F ISym2E= 0 IDoP0=0 IntGTp=1.
 FoFCou: FMM=F IPFlag=           0 FMFlag=      100000 FMFlg1=         800
         NFxFlg=           0 DoJE=F BraDBF=F KetDBF=F FulRan=T
         wScrn=  0.000000 ICntrl=      2127 IOpCl=  0 I1Cent=           0 NGrid=           0
         NMat0=    1 NMatS0=      1 NMatT0=    0 NMatD0=    1 NMtDS0=    0 NMtDT0=    0
 Symmetry not used in FoFCou.
 Leave Link  703 at Tue Oct 15 21:36:08 2019, MaxMem=   280000000 cpu:              17.0 elap:               0.8
 (Enter /home/soft/g16/l716.exe)
 Dipole        =-4.34357731D-01 1.28605940D+00 2.16583922D-01
 ***** Axes restored to original set *****
 -------------------------------------------------------------------
 Center     Atomic                   Forces (Hartrees/Bohr)
 Number     Number              X              Y              Z
 -------------------------------------------------------------------
      1        6          -0.001797871   -0.000511868   -0.000740503
      2        1           0.001874450   -0.000982130   -0.001507970
      3        8           0.000208721    0.001596215    0.001978108
      4        6           0.000172212    0.000009205   -0.000073654
      5        1          -0.000243267    0.000090909    0.000650447
      6        1           0.000132700   -0.000031950    0.000098744
      7        6          -0.000963320    0.000070806    0.000266236
      8        1           0.000123917   -0.000052242    0.000068287
      9        1           0.000133270   -0.000287375    0.000542333
     10        8           0.001868080    0.001069534   -0.001501831
     11        1          -0.001508892   -0.000971104    0.000219804
 -------------------------------------------------------------------
 Cartesian Forces:  Max     0.001978108 RMS     0.000944387
 Leave Link  716 at Tue Oct 15 21:36:08 2019, MaxMem=   280000000 cpu:               1.3 elap:               0.1
 (Enter /home/soft/g16/l103.exe)

 GradGradGradGradGradGradGradGradGradGradGradGradGradGradGradGradGradGrad
 Berny optimization.
 FormGI is forming the generalized inverse of G from B-inverse, IUseBI=4.
 Internal  Forces:  Max     0.002485320 RMS     0.000742434
 Search for a local minimum.
 Step number   1 out of a maximum of   54
 All quantities printed in internal units (Hartrees-Bohrs-Radians)
 RMS Force = .74243D-03 SwitMx=.10000D-02 MixMth= 2
 Mixed Optimization -- En-DIIS/RFO-DIIS
 Second derivative matrix not updated -- first step.
 ITU=  0
     Eigenvalues ---    0.00239   0.00613   0.00613   0.01521   0.04009
     Eigenvalues ---    0.04650   0.05340   0.05805   0.09403   0.11764
     Eigenvalues ---    0.12849   0.14050   0.16000   0.16000   0.21965
     Eigenvalues ---    0.22000   0.22057   0.28536   0.31191   0.32185
     Eigenvalues ---    0.33778   0.33789   0.34230   0.34640   0.43543
     Eigenvalues ---    0.54195   0.98879
 RFO step:  Lambda=-1.05196471D-03 EMin= 2.39342602D-03
 Linear search not attempted -- first point.
 Iteration  1 RMS(Cart)=  0.08686551 RMS(Int)=  0.00514569
 Iteration  2 RMS(Cart)=  0.00532980 RMS(Int)=  0.00036560
 Iteration  3 RMS(Cart)=  0.00002323 RMS(Int)=  0.00036523
 Iteration  4 RMS(Cart)=  0.00000000 RMS(Int)=  0.00036523
 ITry= 1 IFail=0 DXMaxC= 3.86D-01 DCOld= 1.00D+10 DXMaxT= 3.00D-01 DXLimC= 3.00D+00 Rises=F
 Variable       Old X    -DE/DX   Delta X   Delta X   Delta X     New X
                                 (Linear)    (Quad)   (Total)
    R1        2.10506  -0.00249   0.00000  -0.00770  -0.00770   2.09737
    R2        2.29091  -0.00171   0.00000  -0.00173  -0.00173   2.28918
    R3        2.85649  -0.00035   0.00000  -0.00111  -0.00111   2.85538
    R4        2.07688  -0.00066   0.00000  -0.00193  -0.00193   2.07494
    R5        2.06944  -0.00002   0.00000  -0.00005  -0.00005   2.06939
    R6        2.90982  -0.00038   0.00000  -0.00133  -0.00133   2.90849
    R7        2.06264   0.00004   0.00000   0.00012   0.00012   2.06276
    R8        2.07706   0.00055   0.00000   0.00163   0.00163   2.07869
    R9        2.67005   0.00051   0.00000   0.00117   0.00117   2.67122
   R10        1.82555   0.00179   0.00000   0.00330   0.00330   1.82885
    A1        2.08281  -0.00021   0.00000  -0.00065  -0.00205   2.08077
    A2        2.04693  -0.00051   0.00000  -0.00250  -0.00389   2.04304
    A3        2.15344   0.00073   0.00000   0.00333   0.00193   2.15537
    A4        1.87742   0.00038   0.00000   0.00162   0.00162   1.87904
    A5        1.91526  -0.00034   0.00000  -0.00163  -0.00163   1.91363
    A6        1.96822  -0.00013   0.00000  -0.00054  -0.00054   1.96768
    A7        1.87042  -0.00003   0.00000  -0.00022  -0.00021   1.87021
    A8        1.90010  -0.00050   0.00000  -0.00496  -0.00496   1.89514
    A9        1.92906   0.00061   0.00000   0.00558   0.00558   1.93464
   A10        1.90546   0.00030   0.00000  -0.00074  -0.00077   1.90469
   A11        1.90703   0.00058   0.00000   0.00607   0.00607   1.91310
   A12        1.97998  -0.00110   0.00000  -0.00536  -0.00537   1.97461
   A13        1.87378  -0.00016   0.00000   0.00065   0.00065   1.87443
   A14        1.85691  -0.00012   0.00000  -0.00630  -0.00633   1.85058
   A15        1.93700   0.00053   0.00000   0.00553   0.00554   1.94254
   A16        1.89496  -0.00035   0.00000  -0.00216  -0.00216   1.89279
    D1       -1.80008   0.00032   0.00000   0.06308   0.06311  -1.73697
    D2        0.22912   0.00031   0.00000   0.06285   0.06289   0.29201
    D3        2.38781   0.00076   0.00000   0.06849   0.06853   2.45634
    D4        1.33933   0.00103   0.00000   0.16239   0.16235   1.50168
    D5       -2.91466   0.00103   0.00000   0.16217   0.16213  -2.75253
    D6       -0.75596   0.00148   0.00000   0.16780   0.16777  -0.58820
    D7       -3.09631   0.00007   0.00000   0.09341   0.09341  -3.00290
    D8       -1.05182   0.00038   0.00000   0.09722   0.09722  -0.95460
    D9        1.11942   0.00071   0.00000   0.10522   0.10522   1.22464
   D10        1.10468   0.00001   0.00000   0.09505   0.09505   1.19973
   D11       -3.13402   0.00032   0.00000   0.09886   0.09886  -3.03516
   D12       -0.96277   0.00065   0.00000   0.10687   0.10686  -0.85591
   D13       -0.94526  -0.00000   0.00000   0.09506   0.09507  -0.85019
   D14        1.09922   0.00030   0.00000   0.09887   0.09888   1.19810
   D15       -3.01272   0.00064   0.00000   0.10688   0.10688  -2.90584
   D16       -0.92362  -0.00018   0.00000  -0.00229  -0.00227  -0.92589
   D17       -3.01888   0.00017   0.00000   0.00602   0.00600  -3.01288
   D18        1.23131   0.00017   0.00000   0.00601   0.00601   1.23732
         Item               Value     Threshold  Converged?
 Maximum Force            0.002485     0.000450     NO 
 RMS     Force            0.000742     0.000300     NO 
 Maximum Displacement     0.385506     0.001800     NO 
 RMS     Displacement     0.087083     0.001200     NO 
 Predicted change in Energy=-6.223566D-04
 Lowest energy point so far.  Saving SCF results.
 GradGradGradGradGradGradGradGradGradGradGradGradGradGradGradGradGradGrad

 Leave Link  103 at Tue Oct 15 21:36:08 2019, MaxMem=   280000000 cpu:               3.6 elap:               0.2
 (Enter /home/soft/g16/l202.exe)
                          Input orientation:                          
 ---------------------------------------------------------------------
 Center     Atomic      Atomic             Coordinates (Angstroms)
 Number     Number       Type             X           Y           Z
 ---------------------------------------------------------------------
      1          6           0       -1.361532    0.243954    0.149236
      2          1           0       -2.294461    0.780888    0.419750
      3          8           0       -1.316004   -0.960465    0.270688
      4          6           0       -0.170039    1.088588   -0.238145
      5          1           0       -0.115283    1.104372   -1.334678
      6          1           0       -0.327420    2.120688    0.092288
      7          6           0        1.156323    0.533812    0.311253
      8          1           0        1.952424    1.255896    0.120628
      9          1           0        1.080568    0.407953    1.401396
     10          8           0        1.559216   -0.666426   -0.317418
     11          1           0        0.826823   -1.297338   -0.270896
 ---------------------------------------------------------------------
                    Distance matrix (angstroms):
                    1          2          3          4          5
     1  C    0.000000
     2  H    1.109879   0.000000
     3  O    1.211383   2.002974   0.000000
     4  C    1.511001   2.245144   2.402241   0.000000
     5  H    2.120249   2.816288   2.877930   1.098013   0.000000
     6  H    2.143539   2.402404   3.240776   1.095073   1.764690
     7  C    2.539658   3.461319   2.889102   1.539108   2.156759
     8  H    3.465133   4.283823   3.951884   2.159064   2.533039
     9  H    2.749301   3.534619   2.982386   2.171492   3.066131
    10  O    3.094726   4.181980   2.949443   2.465093   2.640926
    11  H    2.709426   3.812929   2.235733   2.586010   2.790593
                    6          7          8          9         10
     6  H    0.000000
     7  C    2.183487   0.000000
     8  H    2.438515   1.091567   0.000000
     9  H    2.574812   1.099996   1.766213   0.000000
    10  O    3.390466   1.413550   2.010428   2.082719   0.000000
    11  H    3.625890   1.949508   2.817671   2.401868   0.967788
                   11
    11  H    0.000000
 Stoichiometry    C3H6O2
 Framework group  C1[X(C3H6O2)]
 Deg. of freedom    27
 Full point group                 C1      NOp   1
 RotChk:  IX=0 Diff= 1.03D-01
 Largest Abelian subgroup         C1      NOp   1
 Largest concise Abelian subgroup C1      NOp   1
                         Standard orientation:                         
 ---------------------------------------------------------------------
 Center     Atomic      Atomic             Coordinates (Angstroms)
 Number     Number       Type             X           Y           Z
 ---------------------------------------------------------------------
      1          6           0       -1.376782    0.244550    0.000611
      2          1           0       -2.303513    0.820698    0.203229
      3          8           0       -1.398070   -0.962791    0.097175
      4          6           0       -0.118273    1.037828   -0.263947
      5          1           0        0.031458    1.072219   -1.351158
      6          1           0       -0.255276    2.069733    0.076035
      7          6           0        1.128504    0.408889    0.383228
      8          1           0        1.970854    1.095121    0.278106
      9          1           0        0.953295    0.265715    1.459701
     10          8           0        1.527704   -0.797031   -0.236868
     11          1           0        0.765422   -1.392505   -0.267719
 ---------------------------------------------------------------------
 Rotational constants (GHZ):           8.7703323           4.0284904           3.0182360
 Leave Link  202 at Tue Oct 15 21:36:08 2019, MaxMem=   280000000 cpu:               0.4 elap:               0.0
 (Enter /home/soft/g16/l301.exe)
 Standard basis: 6-311+G(d) (5D, 7F)
 Ernie: Thresh=  0.10000D-02 Tol=  0.10000D-05 Strict=F.
 There are   133 symmetry adapted cartesian basis functions of A   symmetry.
 There are   128 symmetry adapted basis functions of A   symmetry.
   128 basis functions,   210 primitive gaussians,   133 cartesian basis functions
    20 alpha electrons       20 beta electrons
       nuclear repulsion energy       177.1185683452 Hartrees.
 IExCor=  402 DFT=T Ex+Corr=B3LYP ExCW=0 ScaHFX=  0.200000
 ScaDFX=  0.800000  0.720000  1.000000  0.810000 ScalE2=  1.000000  1.000000
 IRadAn=      5 IRanWt=     -1 IRanGd=            0 ICorTp=0 IEmpDi=  4
 NAtoms=   11 NActive=   11 NUniq=   11 SFac= 1.00D+00 NAtFMM=   60 NAOKFM=F Big=F
 Integral buffers will be    131072 words long.
 Raffenetti 2 integral format.
 Two-electron integral symmetry is turned on.
 Leave Link  301 at Tue Oct 15 21:36:08 2019, MaxMem=   280000000 cpu:               1.5 elap:               0.1
 (Enter /home/soft/g16/l302.exe)
 NPDir=0 NMtPBC=     1 NCelOv=     1 NCel=       1 NClECP=     1 NCelD=      1
         NCelK=      1 NCelE2=     1 NClLst=     1 CellRange=     0.0.
 One-electron integrals computed using PRISM.
 One-electron integral symmetry used in STVInt
 NBasis=   128 RedAO= T EigKep=  8.71D-05  NBF=   128
 NBsUse=   128 1.00D-06 EigRej= -1.00D+00 NBFU=   128
 Precomputing XC quadrature grid using
 IXCGrd= 4 IRadAn=           5 IRanWt=          -1 IRanGd=           0 AccXCQ= 0.00D+00.
 Generated NRdTot=       0 NPtTot=           0 NUsed=           0 NTot=          32
 NSgBfM=   133   133   133   133   133 MxSgAt=    11 MxSgA2=    11.
 Leave Link  302 at Tue Oct 15 21:36:08 2019, MaxMem=   280000000 cpu:               3.7 elap:               0.2
 (Enter /home/soft/g16/l303.exe)
 DipDrv:  MaxL=1.
 Leave Link  303 at Tue Oct 15 21:36:09 2019, MaxMem=   280000000 cpu:               1.5 elap:               0.1
 (Enter /home/soft/g16/l401.exe)
 Initial guess from the checkpoint file:  "irc32p.chk"
 B after Tr=    -0.000000   -0.000000   -0.000000
         Rot=    0.999854   -0.010282    0.006870   -0.011755 Ang=  -1.96 deg.
 Guess basis will be translated and rotated to current coordinates.
 JPrj=2 DoOrth=T DoCkMO=T.
 Generating alternative initial guess.
 ExpMin= 4.38D-02 ExpMax= 8.59D+03 ExpMxC= 1.30D+03 IAcc=2 IRadAn=         4 AccDes= 0.00D+00
 Harris functional with IExCor=  402 and IRadAn=       4 diagonalized for initial guess.
 HarFok:  IExCor=  402 AccDes= 0.00D+00 IRadAn=         4 IDoV= 1 UseB2=F ITyADJ=14
 ICtDFT=  3500011 ScaDFX=  1.000000  1.000000  1.000000  1.000000
 FoFCou: FMM=F IPFlag=           0 FMFlag=      100000 FMFlg1=           0
         NFxFlg=           0 DoJE=T BraDBF=F KetDBF=T FulRan=T
         wScrn=  0.000000 ICntrl=       500 IOpCl=  0 I1Cent=   200000004 NGrid=           0
         NMat0=    1 NMatS0=      1 NMatT0=    0 NMatD0=    1 NMtDS0=    0 NMtDT0=    0
 Petite list used in FoFCou.
 Harris En= -268.461342562250    
 Leave Link  401 at Tue Oct 15 21:36:09 2019, MaxMem=   280000000 cpu:               7.8 elap:               0.4
 (Enter /home/soft/g16/l502.exe)
 Keep R1 ints in memory in canonical form, NReq=57089853.
 FoFCou: FMM=F IPFlag=           0 FMFlag=           0 FMFlg1=           0
         NFxFlg=           0 DoJE=F BraDBF=F KetDBF=F FulRan=T
         wScrn=  0.000000 ICntrl=       600 IOpCl=  0 I1Cent=           0 NGrid=           0
         NMat0=    1 NMatS0=   8256 NMatT0=    0 NMatD0=    1 NMtDS0=    0 NMtDT0=    0
 Symmetry not used in FoFCou.
 Two-electron integral symmetry not used.
 Closed shell SCF:
 Using DIIS extrapolation, IDIIS=  1040.
 NGot=   280000000 LenX=   245875047 LenY=   245856917
 Requested convergence on RMS density matrix=1.00D-08 within 128 cycles.
 Requested convergence on MAX density matrix=1.00D-06.
 Requested convergence on             energy=1.00D-06.
 No special actions if energy rises.

 Cycle   1  Pass 1  IDiag  1:
 E= -268.408416828780    
 DIIS: error= 9.67D-03 at cycle   1 NSaved=   1.
 NSaved= 1 IEnMin= 1 EnMin= -268.408416828780     IErMin= 1 ErrMin= 9.67D-03
 ErrMax= 9.67D-03  0.00D+00 EMaxC= 1.00D-01 BMatC= 1.29D-02 BMatP= 1.29D-02
 IDIUse=3 WtCom= 9.03D-01 WtEn= 9.67D-02
 Coeff-Com:  0.100D+01
 Coeff-En:   0.100D+01
 Coeff:      0.100D+01
 Gap=     0.484 Goal=   None    Shift=    0.000
 GapD=    0.484 DampG=2.000 DampE=1.000 DampFc=2.0000 IDamp=-1.
 RMSDP=1.87D-03 MaxDP=2.85D-02              OVMax= 4.67D-02

 Cycle   2  Pass 1  IDiag  1:
 E= -268.431240032421     Delta-E=       -0.022823203642 Rises=F Damp=F
 DIIS: error= 1.33D-03 at cycle   2 NSaved=   2.
 NSaved= 2 IEnMin= 2 EnMin= -268.431240032421     IErMin= 2 ErrMin= 1.33D-03
 ErrMax= 1.33D-03  0.00D+00 EMaxC= 1.00D-01 BMatC= 4.07D-04 BMatP= 1.29D-02
 IDIUse=3 WtCom= 9.87D-01 WtEn= 1.33D-02
 Coeff-Com: -0.468D-01 0.105D+01
 Coeff-En:   0.000D+00 0.100D+01
 Coeff:     -0.462D-01 0.105D+01
 Gap=     0.222 Goal=   None    Shift=    0.000
 RMSDP=3.26D-04 MaxDP=6.16D-03 DE=-2.28D-02 OVMax= 1.03D-02

 Cycle   3  Pass 1  IDiag  1:
 E= -268.431147791892     Delta-E=        0.000092240530 Rises=F Damp=F
 DIIS: error= 2.56D-03 at cycle   3 NSaved=   3.
 NSaved= 3 IEnMin= 2 EnMin= -268.431240032421     IErMin= 2 ErrMin= 1.33D-03
 ErrMax= 2.56D-03  0.00D+00 EMaxC= 1.00D-01 BMatC= 8.10D-04 BMatP= 4.07D-04
 IDIUse=3 WtCom= 1.65D-01 WtEn= 8.35D-01
 Coeff-Com: -0.504D-01 0.648D+00 0.402D+00
 Coeff-En:   0.000D+00 0.560D+00 0.440D+00
 Coeff:     -0.831D-02 0.574D+00 0.434D+00
 Gap=     0.219 Goal=   None    Shift=    0.000
 RMSDP=2.40D-04 MaxDP=6.92D-03 DE= 9.22D-05 OVMax= 1.06D-02

 Cycle   4  Pass 1  IDiag  1:
 E= -268.431627119528     Delta-E=       -0.000479327636 Rises=F Damp=F
 DIIS: error= 1.08D-03 at cycle   4 NSaved=   4.
 NSaved= 4 IEnMin= 4 EnMin= -268.431627119528     IErMin= 4 ErrMin= 1.08D-03
 ErrMax= 1.08D-03  0.00D+00 EMaxC= 1.00D-01 BMatC= 1.30D-04 BMatP= 4.07D-04
 IDIUse=3 WtCom= 9.89D-01 WtEn= 1.08D-02
 Coeff-Com: -0.155D-01 0.151D+00 0.296D+00 0.568D+00
 Coeff-En:   0.000D+00 0.000D+00 0.180D+00 0.820D+00
 Coeff:     -0.153D-01 0.150D+00 0.294D+00 0.571D+00
 Gap=     0.219 Goal=   None    Shift=    0.000
 RMSDP=7.09D-05 MaxDP=1.27D-03 DE=-4.79D-04 OVMax= 3.85D-03

 Cycle   5  Pass 1  IDiag  1:
 E= -268.431719058132     Delta-E=       -0.000091938604 Rises=F Damp=F
 DIIS: error= 2.16D-04 at cycle   5 NSaved=   5.
 NSaved= 5 IEnMin= 5 EnMin= -268.431719058132     IErMin= 5 ErrMin= 2.16D-04
 ErrMax= 2.16D-04  0.00D+00 EMaxC= 1.00D-01 BMatC= 8.67D-06 BMatP= 1.30D-04
 IDIUse=3 WtCom= 9.98D-01 WtEn= 2.16D-03
 Coeff-Com: -0.509D-02 0.367D-01 0.148D+00 0.356D+00 0.465D+00
 Coeff-En:   0.000D+00 0.000D+00 0.000D+00 0.000D+00 0.100D+01
 Coeff:     -0.508D-02 0.366D-01 0.148D+00 0.355D+00 0.466D+00
 Gap=     0.219 Goal=   None    Shift=    0.000
 RMSDP=2.63D-05 MaxDP=9.85D-04 DE=-9.19D-05 OVMax= 6.69D-04

 Cycle   6  Pass 1  IDiag  1:
 E= -268.431725139642     Delta-E=       -0.000006081510 Rises=F Damp=F
 DIIS: error= 5.07D-05 at cycle   6 NSaved=   6.
 NSaved= 6 IEnMin= 6 EnMin= -268.431725139642     IErMin= 6 ErrMin= 5.07D-05
 ErrMax= 5.07D-05  0.00D+00 EMaxC= 1.00D-01 BMatC= 3.17D-07 BMatP= 8.67D-06
 IDIUse=1 WtCom= 1.00D+00 WtEn= 0.00D+00
 Coeff-Com:  0.991D-03-0.184D-01 0.184D-03 0.326D-01 0.173D+00 0.812D+00
 Coeff:      0.991D-03-0.184D-01 0.184D-03 0.326D-01 0.173D+00 0.812D+00
 Gap=     0.219 Goal=   None    Shift=    0.000
 RMSDP=6.56D-06 MaxDP=1.10D-04 DE=-6.08D-06 OVMax= 4.00D-04

 Cycle   7  Pass 1  IDiag  1:
 E= -268.431725447629     Delta-E=       -0.000000307986 Rises=F Damp=F
 DIIS: error= 1.38D-05 at cycle   7 NSaved=   7.
 NSaved= 7 IEnMin= 7 EnMin= -268.431725447629     IErMin= 7 ErrMin= 1.38D-05
 ErrMax= 1.38D-05  0.00D+00 EMaxC= 1.00D-01 BMatC= 2.79D-08 BMatP= 3.17D-07
 IDIUse=1 WtCom= 1.00D+00 WtEn= 0.00D+00
 Coeff-Com:  0.710D-03-0.104D-01-0.822D-02-0.603D-02 0.498D-01 0.361D+00
 Coeff-Com:  0.613D+00
 Coeff:      0.710D-03-0.104D-01-0.822D-02-0.603D-02 0.498D-01 0.361D+00
 Coeff:      0.613D+00
 Gap=     0.219 Goal=   None    Shift=    0.000
 RMSDP=1.59D-06 MaxDP=3.04D-05 DE=-3.08D-07 OVMax= 7.86D-05

 Cycle   8  Pass 1  IDiag  1:
 E= -268.431725477508     Delta-E=       -0.000000029880 Rises=F Damp=F
 DIIS: error= 3.43D-06 at cycle   8 NSaved=   8.
 NSaved= 8 IEnMin= 8 EnMin= -268.431725477508     IErMin= 8 ErrMin= 3.43D-06
 ErrMax= 3.43D-06  0.00D+00 EMaxC= 1.00D-01 BMatC= 2.32D-09 BMatP= 2.79D-08
 IDIUse=1 WtCom= 1.00D+00 WtEn= 0.00D+00
 Coeff-Com:  0.150D-03-0.155D-02-0.327D-02-0.688D-02-0.286D-02 0.410D-01
 Coeff-Com:  0.238D+00 0.735D+00
 Coeff:      0.150D-03-0.155D-02-0.327D-02-0.688D-02-0.286D-02 0.410D-01
 Coeff:      0.238D+00 0.735D+00
 Gap=     0.219 Goal=   None    Shift=    0.000
 RMSDP=5.75D-07 MaxDP=7.97D-06 DE=-2.99D-08 OVMax= 4.02D-05

 Cycle   9  Pass 1  IDiag  1:
 E= -268.431725480604     Delta-E=       -0.000000003096 Rises=F Damp=F
 DIIS: error= 7.86D-07 at cycle   9 NSaved=   9.
 NSaved= 9 IEnMin= 9 EnMin= -268.431725480604     IErMin= 9 ErrMin= 7.86D-07
 ErrMax= 7.86D-07  0.00D+00 EMaxC= 1.00D-01 BMatC= 1.14D-10 BMatP= 2.32D-09
 IDIUse=1 WtCom= 1.00D+00 WtEn= 0.00D+00
 Coeff-Com: -0.237D-04 0.584D-03-0.202D-03-0.141D-02-0.541D-02-0.214D-01
 Coeff-Com:  0.339D-02 0.177D+00 0.848D+00
 Coeff:     -0.237D-04 0.584D-03-0.202D-03-0.141D-02-0.541D-02-0.214D-01
 Coeff:      0.339D-02 0.177D+00 0.848D+00
 Gap=     0.219 Goal=   None    Shift=    0.000
 RMSDP=2.14D-07 MaxDP=4.19D-06 DE=-3.10D-09 OVMax= 1.33D-05

 Cycle  10  Pass 1  IDiag  1:
 E= -268.431725480810     Delta-E=       -0.000000000205 Rises=F Damp=F
 DIIS: error= 3.55D-07 at cycle  10 NSaved=  10.
 NSaved=10 IEnMin=10 EnMin= -268.431725480810     IErMin=10 ErrMin= 3.55D-07
 ErrMax= 3.55D-07  0.00D+00 EMaxC= 1.00D-01 BMatC= 1.49D-11 BMatP= 1.14D-10
 IDIUse=1 WtCom= 1.00D+00 WtEn= 0.00D+00
 Coeff-Com: -0.164D-04 0.287D-03 0.108D-03-0.121D-03-0.163D-02-0.938D-02
 Coeff-Com: -0.138D-01 0.131D-01 0.313D+00 0.699D+00
 Coeff:     -0.164D-04 0.287D-03 0.108D-03-0.121D-03-0.163D-02-0.938D-02
 Coeff:     -0.138D-01 0.131D-01 0.313D+00 0.699D+00
 Gap=     0.219 Goal=   None    Shift=    0.000
 RMSDP=4.53D-08 MaxDP=7.83D-07 DE=-2.05D-10 OVMax= 2.61D-06

 Cycle  11  Pass 1  IDiag  1:
 E= -268.431725480824     Delta-E=       -0.000000000014 Rises=F Damp=F
 DIIS: error= 7.91D-08 at cycle  11 NSaved=  11.
 NSaved=11 IEnMin=11 EnMin= -268.431725480824     IErMin=11 ErrMin= 7.91D-08
 ErrMax= 7.91D-08  0.00D+00 EMaxC= 1.00D-01 BMatC= 1.56D-12 BMatP= 1.49D-11
 IDIUse=1 WtCom= 1.00D+00 WtEn= 0.00D+00
 Coeff-Com: -0.250D-05 0.282D-04 0.447D-04 0.686D-04 0.315D-04-0.682D-03
 Coeff-Com: -0.508D-02-0.155D-01 0.194D-01 0.261D+00 0.741D+00
 Coeff:     -0.250D-05 0.282D-04 0.447D-04 0.686D-04 0.315D-04-0.682D-03
 Coeff:     -0.508D-02-0.155D-01 0.194D-01 0.261D+00 0.741D+00
 Gap=     0.219 Goal=   None    Shift=    0.000
 RMSDP=1.36D-08 MaxDP=2.67D-07 DE=-1.38D-11 OVMax= 6.85D-07

 Cycle  12  Pass 1  IDiag  1:
 E= -268.431725480831     Delta-E=       -0.000000000008 Rises=F Damp=F
 DIIS: error= 1.61D-08 at cycle  12 NSaved=  12.
 NSaved=12 IEnMin=12 EnMin= -268.431725480831     IErMin=12 ErrMin= 1.61D-08
 ErrMax= 1.61D-08  0.00D+00 EMaxC= 1.00D-01 BMatC= 4.94D-14 BMatP= 1.56D-12
 IDIUse=1 WtCom= 1.00D+00 WtEn= 0.00D+00
 Coeff-Com:  0.272D-06-0.102D-04 0.607D-05 0.331D-04 0.130D-03 0.508D-03
 Coeff-Com: -0.533D-03-0.575D-02-0.166D-01 0.280D-01 0.196D+00 0.798D+00
 Coeff:      0.272D-06-0.102D-04 0.607D-05 0.331D-04 0.130D-03 0.508D-03
 Coeff:     -0.533D-03-0.575D-02-0.166D-01 0.280D-01 0.196D+00 0.798D+00
 Gap=     0.219 Goal=   None    Shift=    0.000
 RMSDP=3.57D-09 MaxDP=9.49D-08 DE=-7.67D-12 OVMax= 1.11D-07

 SCF Done:  E(RB3LYP) =  -268.431725481     A.U. after   12 cycles
            NFock= 12  Conv=0.36D-08     -V/T= 2.0035
 KE= 2.674826477891D+02 PE=-9.832788291743D+02 EE= 2.702458875591D+02
 Leave Link  502 at Tue Oct 15 21:36:12 2019, MaxMem=   280000000 cpu:              54.0 elap:               2.8
 (Enter /home/soft/g16/l701.exe)
 ... and contract with generalized density number  0.
 Compute integral first derivatives.
 Leave Link  701 at Tue Oct 15 21:36:12 2019, MaxMem=   280000000 cpu:               3.3 elap:               0.2
 (Enter /home/soft/g16/l702.exe)
 L702 exits ... SP integral derivatives will be done elsewhere.
 Leave Link  702 at Tue Oct 15 21:36:12 2019, MaxMem=   280000000 cpu:               0.5 elap:               0.0
 (Enter /home/soft/g16/l703.exe)
 Integral derivatives from FoFJK, PRISM(SPDF).
 Compute integral first derivatives, UseDBF=F ICtDFT=           0.
 Calling FoFJK, ICntrl=      2127 FMM=F ISym2X=0 I1Cent= 0 IOpClX= 0 NMat=1 NMatS=1 NMatT=0.
 FoFJK:  IHMeth= 1 ICntrl=    2127 DoSepK=F KAlg= 0 I1Cent=           0 FoldK=F
 IRaf=         0 NMat=       1 IRICut=       1 DoRegI=T DoRafI=F ISym2E= 0 IDoP0=0 IntGTp=1.
 FoFCou: FMM=F IPFlag=           0 FMFlag=      100000 FMFlg1=         800
         NFxFlg=           0 DoJE=F BraDBF=F KetDBF=F FulRan=T
         wScrn=  0.000000 ICntrl=      2127 IOpCl=  0 I1Cent=           0 NGrid=           0
         NMat0=    1 NMatS0=      1 NMatT0=    0 NMatD0=    1 NMtDS0=    0 NMtDT0=    0
 Symmetry not used in FoFCou.
 Leave Link  703 at Tue Oct 15 21:36:13 2019, MaxMem=   280000000 cpu:              14.6 elap:               0.6
 (Enter /home/soft/g16/l716.exe)
 Dipole        =-4.97913713D-01 1.23363926D+00 9.92751281D-02
 ***** Axes restored to original set *****
 -------------------------------------------------------------------
 Center     Atomic                   Forces (Hartrees/Bohr)
 Number     Number              X              Y              Z
 -------------------------------------------------------------------
      1        6           0.002663361    0.000111282    0.010128189
      2        1          -0.001301248   -0.000094285   -0.004504148
      3        8          -0.000220525    0.000135686   -0.003401158
      4        6           0.000652362   -0.001407877   -0.001096227
      5        1           0.000120445    0.001617085   -0.000467147
      6        1          -0.000564078    0.000097557   -0.000088474
      7        6          -0.000982486    0.001504138   -0.000580810
      8        1           0.000106361    0.000054163    0.000146463
      9        1          -0.000066965   -0.000671145   -0.000561285
     10        8          -0.000973756   -0.001270203   -0.001997165
     11        1           0.000566528   -0.000076402    0.002421763
 -------------------------------------------------------------------
 Cartesian Forces:  Max     0.010128189 RMS     0.002251032
 Leave Link  716 at Tue Oct 15 21:36:13 2019, MaxMem=   280000000 cpu:               1.0 elap:               0.1
 (Enter /home/soft/g16/l103.exe)

 GradGradGradGradGradGradGradGradGradGradGradGradGradGradGradGradGradGrad
 Berny optimization.
 Using GEDIIS/GDIIS optimizer.
 FormGI is forming the generalized inverse of G from B-inverse, IUseBI=4.
 Internal  Forces:  Max     0.003225578 RMS     0.001170296
 Search for a local minimum.
 Step number   2 out of a maximum of   54
 All quantities printed in internal units (Hartrees-Bohrs-Radians)
 RMS Force = .11703D-02 SwitMx=.10000D-02 MixMth= 1
 Mixed Optimization -- RFO/linear search
 Update second derivatives using D2CorX and points    1    2
 DE= -2.56D-05 DEPred=-6.22D-04 R= 4.11D-02
 Trust test= 4.11D-02 RLast= 4.28D-01 DXMaxT set to 1.50D-01
 ITU= -1  0
 Use linear search instead of GDIIS.
     Eigenvalues ---    0.00193   0.00348   0.01388   0.03209   0.04020
     Eigenvalues ---    0.05061   0.05454   0.05786   0.09414   0.11734
     Eigenvalues ---    0.12731   0.14226   0.15992   0.16072   0.21864
     Eigenvalues ---    0.22005   0.22236   0.28546   0.31160   0.31829
     Eigenvalues ---    0.33783   0.33833   0.34232   0.34640   0.43522
     Eigenvalues ---    0.54049   0.98621
 RFO step:  Lambda=-1.17054533D-03 EMin= 1.92702380D-03
 Quartic linear search produced a step of -0.49201.
 Iteration  1 RMS(Cart)=  0.05225219 RMS(Int)=  0.00778624
 Iteration  2 RMS(Cart)=  0.00711541 RMS(Int)=  0.00102683
 Iteration  3 RMS(Cart)=  0.00010662 RMS(Int)=  0.00102047
 Iteration  4 RMS(Cart)=  0.00000009 RMS(Int)=  0.00102047
 ITry= 1 IFail=0 DXMaxC= 2.84D-01 DCOld= 1.00D+10 DXMaxT= 1.50D-01 DXLimC= 3.00D+00 Rises=F
 Variable       Old X    -DE/DX   Delta X   Delta X   Delta X     New X
                                 (Linear)    (Quad)   (Total)
    R1        2.09737  -0.00005   0.00379  -0.01280  -0.00901   2.08836
    R2        2.28918  -0.00048   0.00085  -0.00306  -0.00221   2.28697
    R3        2.85538  -0.00042   0.00054  -0.00238  -0.00183   2.85354
    R4        2.07494   0.00050   0.00095  -0.00260  -0.00165   2.07330
    R5        2.06939   0.00015   0.00002   0.00009   0.00012   2.06951
    R6        2.90849  -0.00120   0.00065  -0.00392  -0.00327   2.90522
    R7        2.06276   0.00009  -0.00006   0.00030   0.00024   2.06301
    R8        2.07869  -0.00047  -0.00080   0.00212   0.00132   2.08001
    R9        2.67122   0.00084  -0.00058   0.00273   0.00215   2.67338
   R10        1.82885  -0.00026  -0.00163   0.00527   0.00365   1.83250
    A1        2.08077   0.00064   0.00101   0.00412   0.00122   2.08198
    A2        2.04304   0.00052   0.00192   0.00073  -0.00126   2.04178
    A3        2.15537  -0.00075  -0.00095   0.00599   0.00114   2.15651
    A4        1.87904   0.00029  -0.00080   0.00233   0.00153   1.88057
    A5        1.91363   0.00018   0.00080  -0.00110  -0.00031   1.91332
    A6        1.96768  -0.00077   0.00027  -0.00167  -0.00142   1.96626
    A7        1.87021  -0.00064   0.00011  -0.00379  -0.00367   1.86653
    A8        1.89514   0.00003   0.00244  -0.00919  -0.00674   1.88840
    A9        1.93464   0.00089  -0.00275   0.01285   0.01011   1.94475
   A10        1.90469  -0.00048   0.00038  -0.00093  -0.00056   1.90413
   A11        1.91310   0.00080  -0.00298   0.01083   0.00784   1.92094
   A12        1.97461  -0.00007   0.00264  -0.00927  -0.00663   1.96798
   A13        1.87443   0.00006  -0.00032   0.00196   0.00163   1.87606
   A14        1.85058   0.00088   0.00311  -0.00586  -0.00275   1.84783
   A15        1.94254  -0.00118  -0.00273   0.00311   0.00039   1.94293
   A16        1.89279  -0.00148   0.00106  -0.00735  -0.00629   1.88650
    D1       -1.73697   0.00299  -0.03105   0.25264   0.22149  -1.51548
    D2        0.29201   0.00249  -0.03094   0.24884   0.21781   0.50982
    D3        2.45634   0.00323  -0.03372   0.26351   0.22970   2.68604
    D4        1.50168  -0.00201  -0.07988   0.12153   0.04174   1.54342
    D5       -2.75253  -0.00251  -0.07977   0.11774   0.03806  -2.71447
    D6       -0.58820  -0.00177  -0.08254   0.13240   0.04995  -0.53824
    D7       -3.00290  -0.00051  -0.04596   0.05244   0.00648  -2.99642
    D8       -0.95460  -0.00025  -0.04783   0.06050   0.01267  -0.94194
    D9        1.22464  -0.00124  -0.05177   0.06611   0.01434   1.23898
   D10        1.19973  -0.00041  -0.04676   0.05670   0.00992   1.20965
   D11       -3.03516  -0.00016  -0.04864   0.06475   0.01611  -3.01905
   D12       -0.85591  -0.00115  -0.05257   0.07037   0.01778  -0.83813
   D13       -0.85019  -0.00017  -0.04677   0.05944   0.01268  -0.83752
   D14        1.19810   0.00009  -0.04865   0.06750   0.01887   1.21696
   D15       -2.90584  -0.00091  -0.05258   0.07311   0.02053  -2.88531
   D16       -0.92589  -0.00140   0.00112  -0.03561  -0.03450  -0.96039
   D17       -3.01288  -0.00134  -0.00295  -0.02532  -0.02827  -3.04116
   D18        1.23732  -0.00132  -0.00296  -0.02587  -0.02883   1.20849
         Item               Value     Threshold  Converged?
 Maximum Force            0.003226     0.000450     NO 
 RMS     Force            0.001170     0.000300     NO 
 Maximum Displacement     0.283563     0.001800     NO 
 RMS     Displacement     0.057242     0.001200     NO 
 Predicted change in Energy=-1.011681D-03
 Lowest energy point so far.  Saving SCF results.
 GradGradGradGradGradGradGradGradGradGradGradGradGradGradGradGradGradGrad

 Leave Link  103 at Tue Oct 15 21:36:13 2019, MaxMem=   280000000 cpu:               2.5 elap:               0.1
 (Enter /home/soft/g16/l202.exe)
                          Input orientation:                          
 ---------------------------------------------------------------------
 Center     Atomic      Atomic             Coordinates (Angstroms)
 Number     Number       Type             X           Y           Z
 ---------------------------------------------------------------------
      1          6           0       -1.355498    0.251662    0.195131
      2          1           0       -2.332211    0.763270    0.269695
      3          8           0       -1.300901   -0.946499    0.356508
      4          6           0       -0.169943    1.094123   -0.210961
      5          1           0       -0.131397    1.110888   -1.307298
      6          1           0       -0.322584    2.127191    0.118876
      7          6           0        1.162864    0.530107    0.307731
      8          1           0        1.957072    1.253051    0.111806
      9          1           0        1.111721    0.382010    1.397214
     10          8           0        1.549234   -0.658325   -0.355365
     11          1           0        0.822258   -1.295556   -0.279235
 ---------------------------------------------------------------------
                    Distance matrix (angstroms):
                    1          2          3          4          5
     1  C    0.000000
     2  H    1.105111   0.000000
     3  O    1.210212   1.998611   0.000000
     4  C    1.510031   2.239620   2.401088   0.000000
     5  H    2.119902   2.729712   2.892893   1.097142   0.000000
     6  H    2.142506   2.433439   3.234368   1.095135   1.761646
     7  C    2.536210   3.503051   2.872783   1.537377   2.149590
     8  H    3.461624   4.320042   3.938564   2.157226   2.528985
     9  H    2.747575   3.643807   2.944274   2.176234   3.064473
    10  O    3.093314   4.180580   2.951792   2.459165   2.619315
    11  H    2.713214   3.806673   2.243616   2.588375   2.785201
                    6          7          8          9         10
     6  H    0.000000
     7  C    2.189269   0.000000
     8  H    2.441516   1.091696   0.000000
     9  H    2.595581   1.100692   1.767938   0.000000
    10  O    3.389352   1.414690   2.009462   2.084526   0.000000
    11  H    3.631026   1.947713   2.817111   2.389246   0.969718
                   11
    11  H    0.000000
 Stoichiometry    C3H6O2
 Framework group  C1[X(C3H6O2)]
 Deg. of freedom    27
 Full point group                 C1      NOp   1
 RotChk:  IX=0 Diff= 4.00D-02
 Largest Abelian subgroup         C1      NOp   1
 Largest concise Abelian subgroup C1      NOp   1
                         Standard orientation:                         
 ---------------------------------------------------------------------
 Center     Atomic      Atomic             Coordinates (Angstroms)
 Number     Number       Type             X           Y           Z
 ---------------------------------------------------------------------
      1          6           0       -1.376806    0.241503   -0.001083
      2          1           0       -2.333206    0.795036   -0.014198
      3          8           0       -1.391234   -0.962572    0.119776
      4          6           0       -0.118956    1.041121   -0.243192
      5          1           0        0.041372    1.092250   -1.327351
      6          1           0       -0.263246    2.068701    0.106924
      7          6           0        1.123145    0.399207    0.396074
      8          1           0        1.964079    1.090682    0.315500
      9          1           0        0.945502    0.217768    1.467076
     10          8           0        1.529817   -0.783309   -0.265457
     11          1           0        0.772532   -1.388370   -0.293294
 ---------------------------------------------------------------------
 Rotational constants (GHZ):           8.7974697           4.0274481           3.0298129
 Leave Link  202 at Tue Oct 15 21:36:13 2019, MaxMem=   280000000 cpu:               0.2 elap:               0.0
 (Enter /home/soft/g16/l301.exe)
 Standard basis: 6-311+G(d) (5D, 7F)
 Ernie: Thresh=  0.10000D-02 Tol=  0.10000D-05 Strict=F.
 There are   133 symmetry adapted cartesian basis functions of A   symmetry.
 There are   128 symmetry adapted basis functions of A   symmetry.
   128 basis functions,   210 primitive gaussians,   133 cartesian basis functions
    20 alpha electrons       20 beta electrons
       nuclear repulsion energy       177.2538563002 Hartrees.
 IExCor=  402 DFT=T Ex+Corr=B3LYP ExCW=0 ScaHFX=  0.200000
 ScaDFX=  0.800000  0.720000  1.000000  0.810000 ScalE2=  1.000000  1.000000
 IRadAn=      5 IRanWt=     -1 IRanGd=            0 ICorTp=0 IEmpDi=  4
 NAtoms=   11 NActive=   11 NUniq=   11 SFac= 1.00D+00 NAtFMM=   60 NAOKFM=F Big=F
 Integral buffers will be    131072 words long.
 Raffenetti 2 integral format.
 Two-electron integral symmetry is turned on.
 Leave Link  301 at Tue Oct 15 21:36:13 2019, MaxMem=   280000000 cpu:               1.6 elap:               0.1
 (Enter /home/soft/g16/l302.exe)
 NPDir=0 NMtPBC=     1 NCelOv=     1 NCel=       1 NClECP=     1 NCelD=      1
         NCelK=      1 NCelE2=     1 NClLst=     1 CellRange=     0.0.
 One-electron integrals computed using PRISM.
 One-electron integral symmetry used in STVInt
 NBasis=   128 RedAO= T EigKep=  8.38D-05  NBF=   128
 NBsUse=   128 1.00D-06 EigRej= -1.00D+00 NBFU=   128
 Precomputing XC quadrature grid using
 IXCGrd= 4 IRadAn=           5 IRanWt=          -1 IRanGd=           0 AccXCQ= 0.00D+00.
 Generated NRdTot=       0 NPtTot=           0 NUsed=           0 NTot=          32
 NSgBfM=   133   133   133   133   133 MxSgAt=    11 MxSgA2=    11.
 Leave Link  302 at Tue Oct 15 21:36:13 2019, MaxMem=   280000000 cpu:               3.4 elap:               0.2
 (Enter /home/soft/g16/l303.exe)
 DipDrv:  MaxL=1.
 Leave Link  303 at Tue Oct 15 21:36:13 2019, MaxMem=   280000000 cpu:               0.6 elap:               0.0
 (Enter /home/soft/g16/l401.exe)
 Initial guess from the checkpoint file:  "irc32p.chk"
 B after Tr=    -0.000000   -0.000000   -0.000000
         Rot=    0.999989   -0.004421    0.000599   -0.001412 Ang=  -0.54 deg.
 Guess basis will be translated and rotated to current coordinates.
 JPrj=2 DoOrth=T DoCkMO=T.
 Generating alternative initial guess.
 ExpMin= 4.38D-02 ExpMax= 8.59D+03 ExpMxC= 1.30D+03 IAcc=2 IRadAn=         4 AccDes= 0.00D+00
 Harris functional with IExCor=  402 and IRadAn=       4 diagonalized for initial guess.
 HarFok:  IExCor=  402 AccDes= 0.00D+00 IRadAn=         4 IDoV= 1 UseB2=F ITyADJ=14
 ICtDFT=  3500011 ScaDFX=  1.000000  1.000000  1.000000  1.000000
 FoFCou: FMM=F IPFlag=           0 FMFlag=      100000 FMFlg1=           0
         NFxFlg=           0 DoJE=T BraDBF=F KetDBF=T FulRan=T
         wScrn=  0.000000 ICntrl=       500 IOpCl=  0 I1Cent=   200000004 NGrid=           0
         NMat0=    1 NMatS0=      1 NMatT0=    0 NMatD0=    1 NMtDS0=    0 NMtDT0=    0
 Petite list used in FoFCou.
 Harris En= -268.462135617752    
 Leave Link  401 at Tue Oct 15 21:36:13 2019, MaxMem=   280000000 cpu:               7.5 elap:               0.4
 (Enter /home/soft/g16/l502.exe)
 Keep R1 ints in memory in canonical form, NReq=57089853.
 FoFCou: FMM=F IPFlag=           0 FMFlag=           0 FMFlg1=           0
         NFxFlg=           0 DoJE=F BraDBF=F KetDBF=F FulRan=T
         wScrn=  0.000000 ICntrl=       600 IOpCl=  0 I1Cent=           0 NGrid=           0
         NMat0=    1 NMatS0=   8256 NMatT0=    0 NMatD0=    1 NMtDS0=    0 NMtDT0=    0
 Symmetry not used in FoFCou.
 Two-electron integral symmetry not used.
 Closed shell SCF:
 Using DIIS extrapolation, IDIIS=  1040.
 NGot=   280000000 LenX=   245875047 LenY=   245856917
 Requested convergence on RMS density matrix=1.00D-08 within 128 cycles.
 Requested convergence on MAX density matrix=1.00D-06.
 Requested convergence on             energy=1.00D-06.
 No special actions if energy rises.

 Cycle   1  Pass 1  IDiag  1:
 E= -268.426851639665    
 DIIS: error= 3.29D-03 at cycle   1 NSaved=   1.
 NSaved= 1 IEnMin= 1 EnMin= -268.426851639665     IErMin= 1 ErrMin= 3.29D-03
 ErrMax= 3.29D-03  0.00D+00 EMaxC= 1.00D-01 BMatC= 2.15D-03 BMatP= 2.15D-03
 IDIUse=3 WtCom= 9.67D-01 WtEn= 3.29D-02
 Coeff-Com:  0.100D+01
 Coeff-En:   0.100D+01
 Coeff:      0.100D+01
 Gap=     0.486 Goal=   None    Shift=    0.000
 GapD=    0.486 DampG=2.000 DampE=1.000 DampFc=2.0000 IDamp=-1.
 RMSDP=7.89D-04 MaxDP=1.42D-02              OVMax= 4.51D-02

 Cycle   2  Pass 1  IDiag  1:
 E= -268.432096980777     Delta-E=       -0.005245341112 Rises=F Damp=F
 DIIS: error= 1.04D-03 at cycle   2 NSaved=   2.
 NSaved= 2 IEnMin= 2 EnMin= -268.432096980777     IErMin= 2 ErrMin= 1.04D-03
 ErrMax= 1.04D-03  0.00D+00 EMaxC= 1.00D-01 BMatC= 9.71D-05 BMatP= 2.15D-03
 IDIUse=3 WtCom= 9.90D-01 WtEn= 1.04D-02
 Coeff-Com:  0.137D-01 0.986D+00
 Coeff-En:   0.000D+00 0.100D+01
 Coeff:      0.136D-01 0.986D+00
 Gap=     0.220 Goal=   None    Shift=    0.000
 RMSDP=1.85D-04 MaxDP=3.58D-03 DE=-5.25D-03 OVMax= 1.17D-02

 Cycle   3  Pass 1  IDiag  1:
 E= -268.432290933007     Delta-E=       -0.000193952229 Rises=F Damp=F
 DIIS: error= 4.22D-04 at cycle   3 NSaved=   3.
 NSaved= 3 IEnMin= 3 EnMin= -268.432290933007     IErMin= 3 ErrMin= 4.22D-04
 ErrMax= 4.22D-04  0.00D+00 EMaxC= 1.00D-01 BMatC= 2.25D-05 BMatP= 9.71D-05
 IDIUse=3 WtCom= 9.96D-01 WtEn= 4.22D-03
 Coeff-Com: -0.301D-01 0.280D+00 0.750D+00
 Coeff-En:   0.000D+00 0.000D+00 0.100D+01
 Coeff:     -0.299D-01 0.279D+00 0.751D+00
 Gap=     0.220 Goal=   None    Shift=    0.000
 RMSDP=6.59D-05 MaxDP=6.68D-04 DE=-1.94D-04 OVMax= 2.91D-03

 Cycle   4  Pass 1  IDiag  1:
 E= -268.432314242750     Delta-E=       -0.000023309743 Rises=F Damp=F
 DIIS: error= 2.62D-04 at cycle   4 NSaved=   4.
 NSaved= 4 IEnMin= 4 EnMin= -268.432314242750     IErMin= 4 ErrMin= 2.62D-04
 ErrMax= 2.62D-04  0.00D+00 EMaxC= 1.00D-01 BMatC= 8.01D-06 BMatP= 2.25D-05
 IDIUse=3 WtCom= 9.97D-01 WtEn= 2.62D-03
 Coeff-Com: -0.150D-01 0.836D-01 0.393D+00 0.538D+00
 Coeff-En:   0.000D+00 0.000D+00 0.000D+00 0.100D+01
 Coeff:     -0.149D-01 0.834D-01 0.392D+00 0.539D+00
 Gap=     0.220 Goal=   None    Shift=    0.000
 RMSDP=2.45D-05 MaxDP=4.32D-04 DE=-2.33D-05 OVMax= 1.28D-03

 Cycle   5  Pass 1  IDiag  1:
 E= -268.432318955325     Delta-E=       -0.000004712575 Rises=F Damp=F
 DIIS: error= 1.77D-04 at cycle   5 NSaved=   5.
 NSaved= 5 IEnMin= 5 EnMin= -268.432318955325     IErMin= 5 ErrMin= 1.77D-04
 ErrMax= 1.77D-04  0.00D+00 EMaxC= 1.00D-01 BMatC= 3.03D-06 BMatP= 8.01D-06
 IDIUse=3 WtCom= 9.98D-01 WtEn= 1.77D-03
 Coeff-Com: -0.228D-02-0.125D-01 0.775D-01 0.389D+00 0.549D+00
 Coeff-En:   0.000D+00 0.000D+00 0.000D+00 0.246D+00 0.754D+00
 Coeff:     -0.227D-02-0.125D-01 0.773D-01 0.388D+00 0.549D+00
 Gap=     0.220 Goal=   None    Shift=    0.000
 RMSDP=1.39D-05 MaxDP=2.58D-04 DE=-4.71D-06 OVMax= 7.02D-04

 Cycle   6  Pass 1  IDiag  1:
 E= -268.432321428095     Delta-E=       -0.000002472769 Rises=F Damp=F
 DIIS: error= 2.60D-05 at cycle   6 NSaved=   6.
 NSaved= 6 IEnMin= 6 EnMin= -268.432321428095     IErMin= 6 ErrMin= 2.60D-05
 ErrMax= 2.60D-05  0.00D+00 EMaxC= 1.00D-01 BMatC= 1.30D-07 BMatP= 3.03D-06
 IDIUse=1 WtCom= 1.00D+00 WtEn= 0.00D+00
 Coeff-Com:  0.812D-03-0.169D-01-0.190D-01 0.965D-01 0.236D+00 0.702D+00
 Coeff:      0.812D-03-0.169D-01-0.190D-01 0.965D-01 0.236D+00 0.702D+00
 Gap=     0.220 Goal=   None    Shift=    0.000
 RMSDP=4.65D-06 MaxDP=1.28D-04 DE=-2.47D-06 OVMax= 2.65D-04

 Cycle   7  Pass 1  IDiag  1:
 E= -268.432321559438     Delta-E=       -0.000000131343 Rises=F Damp=F
 DIIS: error= 1.46D-05 at cycle   7 NSaved=   7.
 NSaved= 7 IEnMin= 7 EnMin= -268.432321559438     IErMin= 7 ErrMin= 1.46D-05
 ErrMax= 1.46D-05  0.00D+00 EMaxC= 1.00D-01 BMatC= 3.30D-08 BMatP= 1.30D-07
 IDIUse=1 WtCom= 1.00D+00 WtEn= 0.00D+00
 Coeff-Com:  0.758D-03-0.882D-02-0.218D-01 0.651D-02 0.671D-01 0.413D+00
 Coeff-Com:  0.544D+00
 Coeff:      0.758D-03-0.882D-02-0.218D-01 0.651D-02 0.671D-01 0.413D+00
 Coeff:      0.544D+00
 Gap=     0.220 Goal=   None    Shift=    0.000
 RMSDP=2.01D-06 MaxDP=7.41D-05 DE=-1.31D-07 OVMax= 8.19D-05

 Cycle   8  Pass 1  IDiag  1:
 E= -268.432321587146     Delta-E=       -0.000000027708 Rises=F Damp=F
 DIIS: error= 2.61D-06 at cycle   8 NSaved=   8.
 NSaved= 8 IEnMin= 8 EnMin= -268.432321587146     IErMin= 8 ErrMin= 2.61D-06
 ErrMax= 2.61D-06  0.00D+00 EMaxC= 1.00D-01 BMatC= 1.33D-09 BMatP= 3.30D-08
 IDIUse=1 WtCom= 1.00D+00 WtEn= 0.00D+00
 Coeff-Com:  0.262D-03-0.243D-02-0.771D-02-0.415D-02 0.914D-02 0.117D+00
 Coeff-Com:  0.230D+00 0.659D+00
 Coeff:      0.262D-03-0.243D-02-0.771D-02-0.415D-02 0.914D-02 0.117D+00
 Coeff:      0.230D+00 0.659D+00
 Gap=     0.220 Goal=   None    Shift=    0.000
 RMSDP=4.57D-07 MaxDP=1.56D-05 DE=-2.77D-08 OVMax= 1.94D-05

 Cycle   9  Pass 1  IDiag  1:
 E= -268.432321588301     Delta-E=       -0.000000001155 Rises=F Damp=F
 DIIS: error= 1.08D-06 at cycle   9 NSaved=   9.
 NSaved= 9 IEnMin= 9 EnMin= -268.432321588301     IErMin= 9 ErrMin= 1.08D-06
 ErrMax= 1.08D-06  0.00D+00 EMaxC= 1.00D-01 BMatC= 2.50D-10 BMatP= 1.33D-09
 IDIUse=1 WtCom= 1.00D+00 WtEn= 0.00D+00
 Coeff-Com:  0.245D-05 0.365D-03-0.533D-05-0.368D-02-0.806D-02-0.155D-01
 Coeff-Com:  0.196D-01 0.334D+00 0.673D+00
 Coeff:      0.245D-05 0.365D-03-0.533D-05-0.368D-02-0.806D-02-0.155D-01
 Coeff:      0.196D-01 0.334D+00 0.673D+00
 Gap=     0.220 Goal=   None    Shift=    0.000
 RMSDP=1.66D-07 MaxDP=3.04D-06 DE=-1.16D-09 OVMax= 7.16D-06

 Cycle  10  Pass 1  IDiag  1:
 E= -268.432321588552     Delta-E=       -0.000000000251 Rises=F Damp=F
 DIIS: error= 1.89D-07 at cycle  10 NSaved=  10.
[...]
    R9        2.68140  -0.00006   0.00000  -0.00021  -0.00021   2.68120
   R10        1.82619  -0.00001   0.00000  -0.00000  -0.00000   1.82619
    A1        2.08990  -0.00001   0.00000  -0.00004  -0.00004   2.08986
    A2        2.02244  -0.00000   0.00000  -0.00000  -0.00000   2.02244
    A3        2.17080   0.00001   0.00000   0.00003   0.00003   2.17084
    A4        1.87336  -0.00002   0.00000  -0.00017  -0.00017   1.87319
    A5        1.88516  -0.00001   0.00000   0.00005   0.00005   1.88521
    A6        1.98661   0.00004   0.00000   0.00021   0.00021   1.98682
    A7        1.84028   0.00001   0.00000   0.00004   0.00004   1.84032
    A8        1.93018  -0.00001   0.00000  -0.00001  -0.00001   1.93017
    A9        1.94109  -0.00002   0.00000  -0.00014  -0.00014   1.94095
   A10        1.91601  -0.00002   0.00000  -0.00025  -0.00025   1.91576
   A11        1.91574   0.00001   0.00000   0.00009   0.00009   1.91582
   A12        1.96515   0.00002   0.00000   0.00013   0.00013   1.96528
   A13        1.87727   0.00000   0.00000   0.00000   0.00000   1.87727
   A14        1.85274  -0.00001   0.00000  -0.00007  -0.00007   1.85267
   A15        1.93398  -0.00001   0.00000   0.00008   0.00008   1.93406
   A16        1.88052  -0.00003   0.00000  -0.00009  -0.00009   1.88043
    D1       -1.07935   0.00001   0.00000   0.00057   0.00057  -1.07877
    D2        0.89727   0.00000   0.00000   0.00056   0.00056   0.89783
    D3        3.06191   0.00000   0.00000   0.00057   0.00057   3.06248
    D4        2.05234   0.00000   0.00000   0.00033   0.00033   2.05267
    D5       -2.25423  -0.00000   0.00000   0.00032   0.00032  -2.25391
    D6       -0.08959  -0.00000   0.00000   0.00033   0.00033  -0.08926
    D7       -3.12881  -0.00001   0.00000  -0.00065  -0.00065  -3.12947
    D8       -1.06885  -0.00001   0.00000  -0.00074  -0.00074  -1.06960
    D9        1.09439   0.00000   0.00000  -0.00048  -0.00048   1.09392
   D10        1.04392  -0.00001   0.00000  -0.00057  -0.00057   1.04334
   D11        3.10388  -0.00001   0.00000  -0.00067  -0.00067   3.10321
   D12       -1.01606   0.00001   0.00000  -0.00040  -0.00040  -1.01646
   D13       -0.99469  -0.00000   0.00000  -0.00053  -0.00053  -0.99522
   D14        1.06527  -0.00000   0.00000  -0.00063  -0.00063   1.06465
   D15       -3.05467   0.00001   0.00000  -0.00036  -0.00036  -3.05503
   D16       -1.20081  -0.00001   0.00000   0.00039   0.00039  -1.20042
   D17        2.98551   0.00000   0.00000   0.00067   0.00067   2.98618
   D18        0.95231   0.00001   0.00000   0.00067   0.00067   0.95297
         Item               Value     Threshold  Converged?
 Maximum Force            0.000063     0.000450     YES
 RMS     Force            0.000020     0.000300     YES
 Maximum Displacement     0.001065     0.001800     YES
 RMS     Displacement     0.000374     0.001200     YES
 Predicted change in Energy=-3.966060D-08
 Optimization completed.
    -- Stationary point found.
                           ----------------------------
                           !   Optimized Parameters   !
                           ! (Angstroms and Degrees)  !
 --------------------------                            --------------------------
 ! Name  Definition              Value          Derivative Info.                !
 --------------------------------------------------------------------------------
 ! R1    R(1,2)                  1.1104         -DE/DX =    0.0                 !
 ! R2    R(1,3)                  1.2098         -DE/DX =    0.0001              !
 ! R3    R(1,4)                  1.5072         -DE/DX =    0.0                 !
 ! R4    R(4,5)                  1.099          -DE/DX =    0.0                 !
 ! R5    R(4,6)                  1.0994         -DE/DX =    0.0                 !
 ! R6    R(4,7)                  1.5285         -DE/DX =    0.0                 !
 ! R7    R(7,8)                  1.0915         -DE/DX =    0.0                 !
 ! R8    R(7,9)                  1.0976         -DE/DX =    0.0                 !
 ! R9    R(7,10)                 1.4189         -DE/DX =   -0.0001              !
 ! R10   R(10,11)                0.9664         -DE/DX =    0.0                 !
 ! A1    A(2,1,3)              119.7423         -DE/DX =    0.0                 !
 ! A2    A(2,1,4)              115.8775         -DE/DX =    0.0                 !
 ! A3    A(3,1,4)              124.3778         -DE/DX =    0.0                 !
 ! A4    A(1,4,5)              107.3354         -DE/DX =    0.0                 !
 ! A5    A(1,4,6)              108.0119         -DE/DX =    0.0                 !
 ! A6    A(1,4,7)              113.8241         -DE/DX =    0.0                 !
 ! A7    A(5,4,6)              105.4405         -DE/DX =    0.0                 !
 ! A8    A(5,4,7)              110.5913         -DE/DX =    0.0                 !
 ! A9    A(6,4,7)              111.2162         -DE/DX =    0.0                 !
 ! A10   A(4,7,8)              109.7793         -DE/DX =    0.0                 !
 ! A11   A(4,7,9)              109.7636         -DE/DX =    0.0                 !
 ! A12   A(4,7,10)             112.5948         -DE/DX =    0.0                 !
 ! A13   A(8,7,9)              107.5596         -DE/DX =    0.0                 !
 ! A14   A(8,7,10)             106.1543         -DE/DX =    0.0                 !
 ! A15   A(9,7,10)             110.8087         -DE/DX =    0.0                 !
 ! A16   A(7,10,11)            107.7459         -DE/DX =    0.0                 !
 ! D1    D(2,1,4,5)            -61.842          -DE/DX =    0.0                 !
 ! D2    D(2,1,4,6)             51.4097         -DE/DX =    0.0                 !
 ! D3    D(2,1,4,7)            175.4347         -DE/DX =    0.0                 !
 ! D4    D(3,1,4,5)            117.5904         -DE/DX =    0.0                 !
 ! D5    D(3,1,4,6)           -129.1579         -DE/DX =    0.0                 !
 ! D6    D(3,1,4,7)             -5.1329         -DE/DX =    0.0                 !
 ! D7    D(1,4,7,8)           -179.2679         -DE/DX =    0.0                 !
 ! D8    D(1,4,7,9)            -61.2407         -DE/DX =    0.0                 !
 ! D9    D(1,4,7,10)            62.7041         -DE/DX =    0.0                 !
 ! D10   D(5,4,7,8)             59.812          -DE/DX =    0.0                 !
 ! D11   D(5,4,7,9)            177.8393         -DE/DX =    0.0                 !
 ! D12   D(5,4,7,10)           -58.216          -DE/DX =    0.0                 !
 ! D13   D(6,4,7,8)            -56.9915         -DE/DX =    0.0                 !
 ! D14   D(6,4,7,9)             61.0357         -DE/DX =    0.0                 !
 ! D15   D(6,4,7,10)          -175.0195         -DE/DX =    0.0                 !
 ! D16   D(4,7,10,11)          -68.8013         -DE/DX =    0.0                 !
 ! D17   D(8,7,10,11)          171.0569         -DE/DX =    0.0                 !
 ! D18   D(9,7,10,11)           54.5632         -DE/DX =    0.0                 !
 --------------------------------------------------------------------------------
 GradGradGradGradGradGradGradGradGradGradGradGradGradGradGradGradGradGrad

 Leave Link  103 at Tue Oct 15 21:37:02 2019, MaxMem=   280000000 cpu:               2.7 elap:               0.2
 (Enter /home/soft/g16/l9999.exe)

 ----------------------------------------------------------------------

 Electric dipole moment (input orientation):
 (Debye = 10**-18 statcoulomb cm , SI units = C m)
                  (au)            (Debye)         (10**-30 SI)
   Tot        0.123409D+01      0.313676D+01      0.104631D+02
   x         -0.464550D+00     -0.118077D+01     -0.393862D+01
   y          0.114102D+01      0.290018D+01      0.967396D+01
   z          0.725129D-01      0.184309D+00      0.614790D+00

 Dipole polarizability, Alpha (input orientation).
 (esu units = cm**3 , SI units = C**2 m**2 J**-1)
 Alpha(0;0):
               (au)            (10**-24 esu)      (10**-40 SI)
   iso        0.434001D+02      0.643123D+01      0.715571D+01
   aniso      0.116216D+02      0.172214D+01      0.191614D+01
   xx         0.458606D+02      0.679584D+01      0.756139D+01
   yx        -0.504153D+00     -0.747077D-01     -0.831236D-01
   yy         0.476418D+02      0.705978D+01      0.785507D+01
   zx         0.144421D+00      0.214010D-01      0.238118D-01
   zy        -0.320366D+01     -0.474734D+00     -0.528212D+00
   zz         0.366980D+02      0.543808D+01      0.605068D+01

 ----------------------------------------------------------------------

 Dipole orientation:
     6         -1.96681347         -1.00122649          1.39276694
     1         -3.48700155         -1.07965834          2.83696378
     8         -2.21010868         -2.14255938         -0.57322118
     6          0.29815880          0.59264116          2.05737626
     1         -0.36736386          2.54577156          2.29348578
     1          0.96813292          0.00587291          3.93433695
     6          2.42291462          0.47251156          0.10440189
     1          4.00303331          1.64708277          0.71897238
     1          3.11710110         -1.47532564         -0.05786218
     8          1.67602334          1.42016912         -2.29017903
     1          0.46202202          0.25310752         -2.99667216

 Electric dipole moment (dipole orientation):
 (Debye = 10**-18 statcoulomb cm , SI units = C m)
                  (au)            (Debye)         (10**-30 SI)
   Tot        0.123409D+01      0.313676D+01      0.104631D+02
   x          0.000000D+00      0.000000D+00      0.000000D+00
   y          0.000000D+00      0.000000D+00      0.000000D+00
   z          0.123409D+01      0.313676D+01      0.104631D+02

 Dipole polarizability, Alpha (dipole orientation).
 (esu units = cm**3 , SI units = C**2 m**2 J**-1)
 Alpha(0;0):
               (au)            (10**-24 esu)      (10**-40 SI)
   iso        0.434001D+02      0.643123D+01      0.715571D+01
   aniso      0.116216D+02      0.172214D+01      0.191614D+01
   xx         0.437689D+02      0.648589D+01      0.721652D+01
   yx         0.380678D+01      0.564107D+00      0.627654D+00
   yy         0.390833D+02      0.579155D+01      0.644397D+01
   zx        -0.119266D+01     -0.176734D+00     -0.196643D+00
   zy         0.345371D+01      0.511787D+00      0.569440D+00
   zz         0.473480D+02      0.701626D+01      0.780664D+01

 ----------------------------------------------------------------------
 1\1\GINC-NODE23\Freq\RB3LYP\6-311+G(d)\C3H6O2\ROOT\15-Oct-2019\0\\#P G
 eom=AllCheck Guess=TCheck SCRF=Check GenChk RB3LYP/6-311+G(d) Freq\\Ti
 tle Card Required\\0,1\C,-1.3531011727,0.2372591095,0.1413867906\H,-2.
 3512110105,0.67142088,-0.0781529084\O,-1.2715341586,-0.8832755127,0.59
 02096839\C,-0.1700712404,1.1188709488,-0.1665960642\H,-0.1823952342,1.
 3176769952,-1.2474270004\H,-0.3389432122,2.093948289,0.3123087085\C,1.
 1719520084,0.5207113794,0.2547023147\H,1.9781058329,1.2159751366,0.013
 8897216\H,1.1836250803,0.3635610755,1.3409493468\O,1.4714556333,-0.684
 2198073,-0.4321898606\H,0.8527304737,-1.3600054941,-0.1249797324\\Vers
 ion=ES64L-G16RevA.03\State=1-A\HF=-268.4343039\RMSD=3.850e-09\RMSF=2.7
 05e-05\ZeroPoint=0.0899328\Thermal=0.0955689\Dipole=-0.4645502,1.14101
 89,0.0725129\DipoleDeriv=0.9315346,0.1179237,-0.0323405,0.0777928,1.04
 73355,-0.3744133,-0.0056984,-0.3698086,0.2843567,-0.2662365,0.1063166,
 -0.0566975,0.0893533,-0.0293488,0.0405914,-0.0556813,0.0404586,0.04837
 38,-0.5738314,-0.0031698,0.006653,-0.0432387,-0.9864032,0.2663879,0.02
 67416,0.2673575,-0.4218688,-0.262852,-0.1235834,0.0562996,-0.134287,-0
 .1450655,0.1147468,0.0530671,0.142003,0.0897886,0.0164763,-0.026866,-0
 .0188464,0.010084,0.0977125,0.0042719,-0.0480357,0.0412403,-0.0763503,
 -0.0030424,0.0367186,0.032481,0.053014,-0.0633043,-0.0656117,0.0053054
 ,-0.1136595,0.0576108,0.4353028,-0.1082841,-0.0211102,-0.2147925,0.664
 3049,0.2066895,-0.0272106,0.1646256,0.4392368,-0.0886607,-0.0922848,0.
 0193136,-0.0661793,-0.05216,-0.0009424,0.0426665,0.0353062,0.0573631,0
 .0251141,0.0342009,0.0243248,0.0470175,-0.0070994,0.0173411,-0.0174338
 ,-0.0414343,-0.2063977,-0.5261014,0.1815288,-0.0906331,0.257822,-0.819
 408,-0.2079242,-0.0444158,-0.1912655,-0.5336204,0.3122968,-0.1225004,0
 .0805558,-0.0765862,0.2934364,-0.001137,0.070695,0.0251766,0.2615074\P
 olar=45.8605787,-0.5041528,47.641761,0.1444212,-3.2036617,36.6979846\Q
 uadrupole=-1.5925765,1.4707563,0.1218202,-0.693575,2.5460556,0.1477189
 \PG=C01 [X(C3H6O2)]\NImag=0\\0.55999924,-0.05664432,0.84096739,0.03907
 337,-0.25400058,0.31271067,-0.24632366,0.05306744,-0.02911230,0.257282
 98,0.05791816,-0.07386406,0.00856478,-0.07898116,0.09509592,-0.0324412
 8,0.00796967,-0.06524492,0.04238234,-0.03269100,0.03673186,-0.11324631
 ,0.04666168,-0.02125285,0.00917408,0.03794293,-0.01527462,0.09314662,0
 .04432053,-0.64727220,0.23337575,0.01993757,-0.03185705,0.02161962,-0.
 04510361,0.72085285,-0.01932487,0.23529692,-0.15742992,-0.00868817,0.0
 2166394,0.00995748,0.01978553,-0.28071538,0.13633552,-0.17542988,-0.03
 205953,0.00861074,-0.01793678,-0.01604367,0.00606708,0.01742234,-0.015
 08747,0.00419073,0.46927326,-0.03623072,-0.10261481,0.00420645,0.01140
 839,0.01148887,0.00195047,-0.03103109,-0.04003463,0.02547323,-0.020158
 84,0.52775578,0.00971281,0.00092226,-0.08837494,-0.00659928,0.00052799
 ,0.01682828,0.01081761,0.02718410,0.01497680,0.00750210,0.01026095,0.5
 2747143,0.00358393,-0.00196150,0.02831234,-0.00012402,0.00014878,-0.00
 364361,-0.00242017,-0.00373935,-0.00252143,-0.04840705,-0.00057632,0.0
 0596767,0.05079682,0.00078154,-0.00709320,0.02386077,-0.00024332,-0.00
 017521,-0.00221650,-0.00334654,-0.00262010,-0.00253281,-0.00023828,-0.
 04744092,0.04818788,0.00120346,0.05381199,-0.00043019,0.00321469,-0.00
 780819,0.00103794,0.00057765,0.00066592,0.00173373,-0.00110280,0.00031
 377,-0.00035487,0.04473779,-0.28754454,-0.00028735,-0.05024635,0.31542
 807,0.00883120,-0.02357774,-0.01533543,0.00009958,0.00231948,0.0016537
 8,-0.00382853,-0.00199671,0.00476271,-0.05680715,0.03125110,0.01160155
 ,-0.00047123,0.00117864,0.00056249,0.05639806,0.00588523,-0.02118324,-
 0.00821800,-0.00100680,0.00134127,0.00155906,-0.00464679,-0.00030104,0
 .00154733,0.03391846,-0.24111692,-0.10054940,-0.00062661,0.00541578,0.
 00184395,-0.03536935,0.26480951,-0.00034706,0.01029766,0.00221263,-0.0
 0058985,-0.00060631,-0.00039611,0.00169607,0.00034421,-0.00151116,0.01
 315453,-0.09823842,-0.08789194,0.00361249,-0.02926337,-0.01462721,-0.0
 1733067,0.10830406,0.09764718,-0.03796098,0.00389350,-0.00573041,-0.00
 147344,-0.00205342,0.00042058,0.00391880,0.00673558,-0.00201095,-0.159
 50665,0.02199205,-0.03473816,-0.00102024,0.00044994,-0.00073772,0.0018
 9268,-0.00155005,0.00028315,0.52767837,-0.01674650,0.02336866,-0.01306
 997,-0.00594926,-0.00332088,0.00277869,0.00533515,-0.00760540,0.000396
 84,0.02305542,-0.09149761,0.01732368,0.00525515,-0.00232965,0.00037209
 ,0.02241579,-0.00907118,0.00869220,0.08678699,0.51059556,0.00577325,-0
 .00466043,0.00327453,0.00195594,0.00204114,0.00177494,0.00054177,-0.00
 151460,-0.00277085,-0.03154068,0.01431501,-0.09552308,-0.03265962,0.01
 229989,-0.00999106,0.01553971,-0.00597279,0.00338371,-0.02484107,-0.04
 289141,0.56380502,-0.00370054,0.00492823,-0.00273165,-0.00143214,-0.00
 101853,0.00037263,0.00108218,-0.00028927,0.00028434,-0.02284055,-0.017
 26653,0.00723073,0.00121217,-0.00042318,-0.00037087,0.00051712,0.00029
 886,0.00055867,-0.19895366,-0.12555369,0.04704315,0.21150555,0.0026885
 1,-0.00202141,0.00179308,0.00089264,0.00037469,-0.00034691,-0.00061454
 ,0.00099075,-0.00020707,0.01077034,0.01028250,-0.00269839,-0.00069164,
 0.00034351,-0.00022232,-0.00091912,0.00053735,-0.00033374,-0.11803993,
 -0.14469654,0.03904153,0.12957859,0.17432414,-0.00190000,0.00298894,-0
 .00075199,-0.00070784,-0.00039960,0.00000260,0.00087068,-0.00072493,0.
 00085081,-0.01103065,-0.00663774,0.00275914,0.00030633,-0.00068620,0.0
 0051907,0.00073563,-0.00003393,0.00033097,0.05169753,0.04550512,-0.069
 59879,-0.05049194,-0.03768086,0.06891237,0.00132997,0.00177657,-0.0016
 6177,0.00020892,0.00008320,0.00045269,0.00041383,-0.00151267,0.0007030
 1,-0.00228358,0.00615189,-0.03048428,-0.00524722,0.00200378,-0.0017457
 6,0.00086287,0.00010617,0.00049645,-0.05365110,-0.00144534,-0.00223247
 ,0.00182542,-0.00429360,0.02388589,0.05436791,-0.00087202,-0.00121508,
 -0.00020299,0.00012762,-0.00004523,0.00004402,-0.00016349,0.00106417,-
 0.00005134,0.00099058,-0.00048460,0.01294902,0.00290339,-0.00038253,0.
 00046192,-0.00052395,0.00014021,-0.00020085,-0.00314063,-0.06029377,0.
 05084323,0.00108152,-0.00190990,0.01966823,-0.00529677,0.06780390,0.00
 103861,0.00156200,-0.00043408,-0.00016450,-0.00021325,-0.00013346,0.00
 035059,-0.00092374,0.00132948,-0.00178375,0.00375997,-0.00832683,-0.00
 113544,0.00077788,0.00092939,-0.00086989,0.00072147,-0.00016229,-0.004
 35082,0.04608042,-0.28559244,0.00039565,0.00285880,-0.00618217,0.00192
 293,-0.04136754,0.31602249,0.00368414,-0.00325638,0.00160910,0.0003530
 6,0.00032280,-0.00086259,-0.00634927,0.00171076,0.00320210,-0.00394249
 ,0.03371347,0.01868806,0.00245664,-0.00152475,0.00081386,-0.00657351,0
 .00319594,-0.00158766,-0.08652901,-0.00190427,0.02227545,0.00961527,-0
 .02082418,-0.01361019,0.00247448,0.00423172,0.00361445,0.30285998,-0.0
 0432277,-0.00751731,0.00332355,0.00111911,0.00092853,-0.00040217,-0.00
 138682,0.00706132,-0.00183438,0.01500399,-0.02620391,-0.01530395,-0.00
 194601,0.00060609,0.00042851,0.00550375,-0.00114821,0.00113457,0.03106
 406,-0.18411067,-0.07537465,0.00575403,-0.03424647,-0.01826162,0.00273
 675,-0.00730153,-0.01342678,0.17058636,0.50504105,-0.00021994,-0.00157
 956,-0.00001474,0.00052441,-0.00010045,-0.00008398,0.00207525,0.000954
 03,0.00037699,0.00383067,-0.00083879,0.00563671,0.00211833,-0.00056677
 ,0.00237604,-0.00139233,0.00101674,0.00103692,0.03479981,-0.04424094,-
 0.11374677,-0.00289737,0.00248385,0.00477214,0.00959995,-0.04134317,-0
 .01803543,-0.15713107,0.00547345,0.19447621,-0.00076712,0.00717205,-0.
 00178114,0.00017142,-0.00063855,0.00087300,0.00068644,-0.00497535,-0.0
 0038300,0.00045853,0.00074659,0.00030118,-0.00035961,0.00015870,-0.000
 22125,-0.00092109,-0.00020507,0.00005390,0.00560523,0.00875058,-0.0018
 5543,0.00116917,0.00145292,0.00024457,-0.00030150,0.00066203,0.0009821
 6,-0.21804931,-0.22411244,0.10869228,0.21230784,0.00322236,-0.00155473
 ,0.00036716,-0.00037222,0.00003315,-0.00026495,-0.00364688,-0.00027867
 ,0.00096271,-0.00015100,-0.00013376,0.00119586,0.00003065,-0.00013577,
 -0.00006514,-0.00028189,0.00057647,-0.00013002,-0.02613807,-0.03103852
 ,0.01187307,0.00290996,-0.00397864,-0.00373742,-0.00030998,0.00262436,
 0.00017078,-0.18625146,-0.25310890,0.07874161,0.21098855,0.28699502,-0
 .00093471,-0.00201156,0.00186096,-0.00003870,0.00063510,-0.00010263,-0
 .00134375,0.00150374,-0.00242892,0.00135409,0.00101108,-0.00001103,-0.
 00006971,0.00038559,-0.00026126,0.00007243,-0.00021850,-0.00002269,-0.
 01479192,-0.02094673,0.00498480,0.00060666,-0.00468798,-0.00161417,-0.
 00093663,-0.00080052,0.00058535,0.12298849,0.11424347,-0.07679410,-0.1
 0690627,-0.08911368,0.07380368\\0.00000523,-0.00006740,0.00001690,0.00
 000781,0.00000267,0.00000909,0.00000421,0.00006052,-0.00001856,0.00002
 051,-0.00003085,-0.00004048,0.00000699,-0.00000189,0.00003802,-0.00001
 067,0.00002478,0.00000415,-0.00001894,0.00007615,-0.00001012,0.0000064
 6,0.00000417,0.00001493,-0.00001015,-0.00000264,0.00000609,-0.00001566
 ,-0.00004901,-0.00001438,0.00000421,-0.00001651,-0.00000564\\\@


 IT CANNOT BE MY BEAUTY, FOR I HAVE NONE; AND IT CANNOT BE MY WIT,
 FOR HE HAS NOT ENOUGH TO KNOW THAT I HAVE ANY.
 -- CATHARINE SEDLEY, PUZZLED ABOUT WHY SHE WAS MISTRESS TO JAMES II
 Job cpu time:       0 days  0 hours  7 minutes  4.6 seconds.
 Elapsed time:       0 days  0 hours  0 minutes 18.6 seconds.
 File lengths (MBytes):  RWF=    332 Int=      0 D2E=      0 Chk=      8 Scr=      8
 Normal termination of Gaussian 16 at Tue Oct 15 21:37:02 2019.
