 Entering Gaussian System, Link 0=g16
 Input=irc32r3.gjf
 Output=irc32r3.log
 Initial command:
 /home/soft/g16/l1.exe "/tmp/gaussian/Gau-187418.inp" -scrdir="/tmp/gaussian/"
 Entering Link 1 = /home/soft/g16/l1.exe PID=    187419.
  
 Copyright (c) 1988,1990,1992,1993,1995,1998,2003,2009,2016,
            Gaussian, Inc.  All Rights Reserved.
  
 This is part of the Gaussian(R) 16 program.  It is based on
 the Gaussian(R) 09 system (copyright 2009, Gaussian, Inc.),
 the Gaussian(R) 03 system (copyright 2003, Gaussian, Inc.),
 the Gaussian(R) 98 system (copyright 1998, Gaussian, Inc.),
 the Gaussian(R) 94 system (copyright 1995, Gaussian, Inc.),
 the Gaussian 92(TM) system (copyright 1992, Gaussian, Inc.),
 the Gaussian 90(TM) system (copyright 1990, Gaussian, Inc.),
 the Gaussian 88(TM) system (copyright 1988, Gaussian, Inc.),
 the Gaussian 86(TM) system (copyright 1986, Carnegie Mellon
 University), and the Gaussian 82(TM) system (copyright 1983,
 Carnegie Mellon University). Gaussian is a federally registered
 trademark of Gaussian, Inc.
  
 This software contains proprietary and confidential information,
 including trade secrets, belonging to Gaussian, Inc.
  
 This software is provided under written license and may be
 used, copied, transmitted, or stored only in accord with that
 written license.
  
 The following legend is applicable only to US Government
 contracts under FAR:
  
                    RESTRICTED RIGHTS LEGEND
  
 Use, reproduction and disclosure by the US Government is
 subject to restrictions as set forth in subparagraphs (a)
 and (c) of the Commercial Computer Software - Restricted
 Rights clause in FAR 52.227-19.
  
 Gaussian, Inc.
 340 Quinnipiac St., Bldg. 40, Wallingford CT 06492
  
  
 ---------------------------------------------------------------
 Warning -- This program may not be used in any manner that
 competes with the business of Gaussian, Inc. or will provide
 assistance to any competitor of Gaussian, Inc.  The licensee
 of this program is prohibited from giving any competitor of
 Gaussian, Inc. access to this program.  By using this program,
 the user acknowledges that Gaussian, Inc. is engaged in the
 business of creating and licensing software in the field of
 computational chemistry and represents and warrants to the
 licensee that it is not a competitor of Gaussian, Inc. and that
 it will not use this program in any manner prohibited above.
 ---------------------------------------------------------------
  

 Cite this work as:
 Gaussian 16, Revision A.03,
 M. J. Frisch, G. W. Trucks, H. B. Schlegel, G. E. Scuseria, 
 M. A. Robb, J. R. Cheeseman, G. Scalmani, V. Barone, 
 G. A. Petersson, H. Nakatsuji, X. Li, M. Caricato, A. V. Marenich, 
 J. Bloino, B. G. Janesko, R. Gomperts, B. Mennucci, H. P. Hratchian, 
 J. V. Ortiz, A. F. Izmaylov, J. L. Sonnenberg, D. Williams-Young, 
 F. Ding, F. Lipparini, F. Egidi, J. Goings, B. Peng, A. Petrone, 
 T. Henderson, D. Ranasinghe, V. G. Zakrzewski, J. Gao, N. Rega, 
 G. Zheng, W. Liang, M. Hada, M. Ehara, K. Toyota, R. Fukuda, 
 J. Hasegawa, M. Ishida, T. Nakajima, Y. Honda, O. Kitao, H. Nakai, 
 T. Vreven, K. Throssell, J. A. Montgomery, Jr., J. E. Peralta, 
 F. Ogliaro, M. J. Bearpark, J. J. Heyd, E. N. Brothers, K. N. Kudin, 
 V. N. Staroverov, T. A. Keith, R. Kobayashi, J. Normand, 
 K. Raghavachari, A. P. Rendell, J. C. Burant, S. S. Iyengar, 
 J. Tomasi, M. Cossi, J. M. Millam, M. Klene, C. Adamo, R. Cammi, 
 J. W. Ochterski, R. L. Martin, K. Morokuma, O. Farkas, 
 J. B. Foresman, and D. J. Fox, Gaussian, Inc., Wallingford CT, 2016.
 
 ******************************************
 Gaussian 16:  ES64L-G16RevA.03 25-Dec-2016
                16-Oct-2019 
 ******************************************
 %chk=irc32r3.chk
 %nprocshared=24
 Will use up to   24 processors via shared memory.
 -----------------------------------
 #p opt=calcfc freq b3lyp/6-311+g(d)
 -----------------------------------
 1/10=4,18=20,19=15,26=3,38=1/1,3;
 2/9=110,12=2,17=6,18=5,40=1/2;
 3/5=4,6=6,7=11,11=2,25=1,30=1,71=2,74=-5,140=1/1,2,3;
 4//1;
 5/5=2,38=5/2;
 8/6=4,10=90,11=11/1;
 11/6=1,8=1,9=11,15=111,16=1/1,2,10;
 10/6=1,13=1/2;
 6/7=2,8=2,9=2,10=2,28=1/1;
 7/10=1,18=20,25=1/1,2,3,16;
 1/10=4,18=20,19=15,26=3/3(2);
 2/9=110/2;
 99//99;
 2/9=110/2;
 3/5=4,6=6,7=11,11=2,25=1,30=1,71=1,74=-5/1,2,3;
 4/5=5,16=3,69=1/1;
 5/5=2,38=5/2;
 7//1,2,3,16;
 1/18=20,19=15,26=3/3(-5);
 2/9=110/2;
 6/7=2,8=2,9=2,10=2,19=2,28=1/1;
 99/9=1/99;
 Leave Link    1 at Wed Oct 16 00:36:58 2019, MaxMem=           0 cpu:               1.9 elap:               0.1
 (Enter /home/soft/g16/l101.exe)
 -------------------
 Title Card Required
 -------------------
 Symbolic Z-matrix:
 Charge =  0 Multiplicity = 1
 C                    -1.35822   0.33762   0.21446 
 H                    -2.02466   0.50391   1.05508 
 O                    -1.22035  -0.98306  -0.02601 
 C                    -0.78712   1.35234  -0.44501 
 H                    -0.18082   1.20742  -1.33057 
 H                    -0.99852   2.37045  -0.14536 
 C                     1.69077   0.27307   0.43591 
 H                     2.06028   1.19026  -0.06061 
 H                     1.47697   0.36068   1.5163 
 O                     1.56863  -0.77142  -0.15594 
 H                    -0.44824  -1.16125  -0.59236 
 
 Add virtual bond connecting atoms H11        and O10        Dist= 3.97D+00.
 Add atom      7 valence  3 ND=      2 dihedral       8      7      9     10
 ITRead=  0  0  0  0  0  0  0  0  0  0  0
 MicOpt= -1 -1 -1 -1 -1 -1 -1 -1 -1 -1 -1
 NAtoms=     11 NQM=       11 NQMF=       0 NMMI=      0 NMMIF=      0
                NMic=       0 NMicF=      0.
                    Isotopes and Nuclear Properties:
 (Nuclear quadrupole moments (NQMom) in fm**2, nuclear magnetic moments (NMagM)
  in nuclear magnetons)

  Atom         1           2           3           4           5           6           7           8           9          10
 IAtWgt=          12           1          16          12           1           1          12           1           1          16
 AtmWgt=  12.0000000   1.0078250  15.9949146  12.0000000   1.0078250   1.0078250  12.0000000   1.0078250   1.0078250  15.9949146
 NucSpn=           0           1           0           0           1           1           0           1           1           0
 AtZEff=  -0.0000000  -0.0000000  -0.0000000  -0.0000000  -0.0000000  -0.0000000  -0.0000000  -0.0000000  -0.0000000  -0.0000000
 NQMom=    0.0000000   0.0000000   0.0000000   0.0000000   0.0000000   0.0000000   0.0000000   0.0000000   0.0000000   0.0000000
 NMagM=    0.0000000   2.7928460   0.0000000   0.0000000   2.7928460   2.7928460   0.0000000   2.7928460   2.7928460   0.0000000
 AtZNuc=   6.0000000   1.0000000   8.0000000   6.0000000   1.0000000   1.0000000   6.0000000   1.0000000   1.0000000   8.0000000

  Atom        11
 IAtWgt=           1
 AtmWgt=   1.0078250
 NucSpn=           1
 AtZEff=  -0.0000000
 NQMom=    0.0000000
 NMagM=    2.7928460
 AtZNuc=   1.0000000
 Leave Link  101 at Wed Oct 16 00:36:59 2019, MaxMem=   280000000 cpu:               4.7 elap:               0.2
 (Enter /home/soft/g16/l103.exe)

 GradGradGradGradGradGradGradGradGradGradGradGradGradGradGradGradGradGrad
 Berny optimization.
 Initialization pass.
                           ----------------------------
                           !    Initial Parameters    !
                           ! (Angstroms and Degrees)  !
 --------------------------                            --------------------------
 ! Name  Definition              Value          Derivative Info.                !
 --------------------------------------------------------------------------------
 ! R1    R(1,2)                  1.0856         calculate D2E/DX2 analytically  !
 ! R2    R(1,3)                  1.3495         calculate D2E/DX2 analytically  !
 ! R3    R(1,4)                  1.3382         calculate D2E/DX2 analytically  !
 ! R4    R(3,11)                 0.974          calculate D2E/DX2 analytically  !
 ! R5    R(4,5)                  1.083          calculate D2E/DX2 analytically  !
 ! R6    R(4,6)                  1.0821         calculate D2E/DX2 analytically  !
 ! R7    R(7,8)                  1.1065         calculate D2E/DX2 analytically  !
 ! R8    R(7,9)                  1.1048         calculate D2E/DX2 analytically  !
 ! R9    R(7,10)                 1.2067         calculate D2E/DX2 analytically  !
 ! R10   R(10,11)                2.1001         calculate D2E/DX2 analytically  !
 ! A1    A(2,1,3)              110.5259         calculate D2E/DX2 analytically  !
 ! A2    A(2,1,4)              121.8339         calculate D2E/DX2 analytically  !
 ! A3    A(3,1,4)              127.6402         calculate D2E/DX2 analytically  !
 ! A4    A(1,3,11)             111.3248         calculate D2E/DX2 analytically  !
 ! A5    A(1,4,5)              122.7136         calculate D2E/DX2 analytically  !
 ! A6    A(1,4,6)              119.5768         calculate D2E/DX2 analytically  !
 ! A7    A(5,4,6)              117.4963         calculate D2E/DX2 analytically  !
 ! A8    A(8,7,9)              115.9572         calculate D2E/DX2 analytically  !
 ! A9    A(8,7,10)             122.087          calculate D2E/DX2 analytically  !
 ! A10   A(9,7,10)             121.9153         calculate D2E/DX2 analytically  !
 ! A11   A(7,10,11)            111.0885         calculate D2E/DX2 analytically  !
 ! A12   A(3,11,10)            127.3388         calculate D2E/DX2 analytically  !
 ! D1    D(2,1,3,11)          -163.7303         calculate D2E/DX2 analytically  !
 ! D2    D(4,1,3,11)            16.2359         calculate D2E/DX2 analytically  !
 ! D3    D(2,1,4,5)           -175.2346         calculate D2E/DX2 analytically  !
 ! D4    D(2,1,4,6)             -0.6774         calculate D2E/DX2 analytically  !
 ! D5    D(3,1,4,5)              4.8027         calculate D2E/DX2 analytically  !
 ! D6    D(3,1,4,6)            179.3599         calculate D2E/DX2 analytically  !
 ! D7    D(1,3,11,10)           62.5725         calculate D2E/DX2 analytically  !
 ! D8    D(8,7,9,10)          -177.7328         calculate D2E/DX2 analytically  !
 ! D9    D(8,7,10,11)         -103.9232         calculate D2E/DX2 analytically  !
 ! D10   D(9,7,10,11)           78.4829         calculate D2E/DX2 analytically  !
 ! D11   D(7,10,11,3)          -38.3768         calculate D2E/DX2 analytically  !
 --------------------------------------------------------------------------------
 Trust Radius=3.00D-01 FncErr=1.00D-07 GrdErr=1.00D-06 EigMax=2.50D+02 EigMin=1.00D-04
 Number of steps in this run=     43 maximum allowed number of steps=    100.
 GradGradGradGradGradGradGradGradGradGradGradGradGradGradGradGradGradGrad

 Leave Link  103 at Wed Oct 16 00:36:59 2019, MaxMem=   280000000 cpu:               0.4 elap:               0.0
 (Enter /home/soft/g16/l202.exe)
                          Input orientation:                          
 ---------------------------------------------------------------------
 Center     Atomic      Atomic             Coordinates (Angstroms)
 Number     Number       Type             X           Y           Z
 ---------------------------------------------------------------------
      1          6           0       -1.358219    0.337619    0.214459
      2          1           0       -2.024655    0.503913    1.055076
      3          8           0       -1.220353   -0.983061   -0.026009
      4          6           0       -0.787123    1.352338   -0.445007
      5          1           0       -0.180823    1.207421   -1.330573
      6          1           0       -0.998523    2.370445   -0.145364
      7          6           0        1.690773    0.273069    0.435905
      8          1           0        2.060284    1.190256   -0.060607
      9          1           0        1.476973    0.360682    1.516298
     10          8           0        1.568632   -0.771420   -0.155937
     11          1           0       -0.448241   -1.161253   -0.592363
 ---------------------------------------------------------------------
                    Distance matrix (angstroms):
                    1          2          3          4          5
     1  C    0.000000
     2  H    1.085554   0.000000
     3  O    1.349455   2.006673   0.000000
     4  C    1.338171   2.121688   2.411915   0.000000
     5  H    2.128366   3.096120   2.753311   1.082972   0.000000
     6  H    2.095527   2.444984   3.362954   1.082136   1.850940
     7  C    3.057705   3.773734   3.204041   2.842674   2.737943
     8  H    3.533952   4.289818   3.935363   2.877805   2.575979
     9  H    3.119877   3.534776   3.385251   3.155349   3.401460
    10  O    3.151764   4.000592   2.800020   3.184885   2.890705
    11  H    1.930191   2.823458   0.973995   2.540609   2.495412
                    6          7          8          9         10
     6  H    0.000000
     7  C    3.459649   0.000000
     8  H    3.279684   1.106478   0.000000
     9  H    3.595601   1.104824   1.874853   0.000000
    10  O    4.057304   1.206712   2.024594   2.021491   0.000000
    11  H    3.602153   2.773084   3.479232   3.235612   2.100051
                   11
    11  H    0.000000
 Stoichiometry    C3H6O2
 Framework group  C1[X(C3H6O2)]
 Deg. of freedom    27
 Full point group                 C1      NOp   1
 Largest Abelian subgroup         C1      NOp   1
 Largest concise Abelian subgroup C1      NOp   1
                         Standard orientation:                         
 ---------------------------------------------------------------------
 Center     Atomic      Atomic             Coordinates (Angstroms)
 Number     Number       Type             X           Y           Z
 ---------------------------------------------------------------------
      1          6           0       -1.370081    0.055287    0.290036
      2          1           0       -2.005190    0.081895    1.170011
      3          8           0       -1.041293   -1.216759   -0.017902
      4          6           0       -1.003371    1.171913   -0.349785
      5          1           0       -0.433471    1.158546   -1.270580
      6          1           0       -1.353955    2.131537    0.006908
      7          6           0        1.659084    0.467131    0.354070
      8          1           0        1.851592    1.449395   -0.117514
      9          1           0        1.496299    0.478906    1.446772
     10          8           0        1.668215   -0.560439   -0.278520
     11          1           0       -0.284451   -1.248676   -0.630143
 ---------------------------------------------------------------------
 Rotational constants (GHZ):           7.4066199           3.3221878           2.5415033
 Leave Link  202 at Wed Oct 16 00:36:59 2019, MaxMem=   280000000 cpu:               0.5 elap:               0.0
 (Enter /home/soft/g16/l301.exe)
 Standard basis: 6-311+G(d) (5D, 7F)
 Ernie: Thresh=  0.10000D-02 Tol=  0.10000D-05 Strict=F.
 There are   133 symmetry adapted cartesian basis functions of A   symmetry.
 There are   128 symmetry adapted basis functions of A   symmetry.
   128 basis functions,   210 primitive gaussians,   133 cartesian basis functions
    20 alpha electrons       20 beta electrons
       nuclear repulsion energy       167.7565442840 Hartrees.
 IExCor=  402 DFT=T Ex+Corr=B3LYP ExCW=0 ScaHFX=  0.200000
 ScaDFX=  0.800000  0.720000  1.000000  0.810000 ScalE2=  1.000000  1.000000
 IRadAn=      5 IRanWt=     -1 IRanGd=            0 ICorTp=0 IEmpDi=  4
 NAtoms=   11 NActive=   11 NUniq=   11 SFac= 1.00D+00 NAtFMM=   60 NAOKFM=F Big=F
 Integral buffers will be    131072 words long.
 Raffenetti 2 integral format.
 Two-electron integral symmetry is turned on.
 Leave Link  301 at Wed Oct 16 00:36:59 2019, MaxMem=   280000000 cpu:               2.2 elap:               0.1
 (Enter /home/soft/g16/l302.exe)
 NPDir=0 NMtPBC=     1 NCelOv=     1 NCel=       1 NClECP=     1 NCelD=      1
         NCelK=      1 NCelE2=     1 NClLst=     1 CellRange=     0.0.
 One-electron integrals computed using PRISM.
 One-electron integral symmetry used in STVInt
 NBasis=   128 RedAO= T EigKep=  7.86D-05  NBF=   128
 NBsUse=   128 1.00D-06 EigRej= -1.00D+00 NBFU=   128
 Precomputing XC quadrature grid using
 IXCGrd= 4 IRadAn=           5 IRanWt=          -1 IRanGd=           0 AccXCQ= 0.00D+00.
 Generated NRdTot=       0 NPtTot=           0 NUsed=           0 NTot=          32
 NSgBfM=   133   133   133   133   133 MxSgAt=    11 MxSgA2=    11.
 Leave Link  302 at Wed Oct 16 00:36:59 2019, MaxMem=   280000000 cpu:               5.7 elap:               0.3
 (Enter /home/soft/g16/l303.exe)
 DipDrv:  MaxL=1.
 Leave Link  303 at Wed Oct 16 00:36:59 2019, MaxMem=   280000000 cpu:               0.6 elap:               0.0
 (Enter /home/soft/g16/l401.exe)
 ExpMin= 4.38D-02 ExpMax= 8.59D+03 ExpMxC= 1.30D+03 IAcc=3 IRadAn=         5 AccDes= 0.00D+00
 Harris functional with IExCor=  402 and IRadAn=       5 diagonalized for initial guess.
 HarFok:  IExCor=  402 AccDes= 0.00D+00 IRadAn=         5 IDoV= 1 UseB2=F ITyADJ=14
 ICtDFT=  3500011 ScaDFX=  1.000000  1.000000  1.000000  1.000000
 FoFCou: FMM=F IPFlag=           0 FMFlag=      100000 FMFlg1=           0
         NFxFlg=           0 DoJE=T BraDBF=F KetDBF=T FulRan=T
         wScrn=  0.000000 ICntrl=       500 IOpCl=  0 I1Cent=   200000004 NGrid=           0
         NMat0=    1 NMatS0=      1 NMatT0=    0 NMatD0=    1 NMtDS0=    0 NMtDT0=    0
 Petite list used in FoFCou.
 Harris En= -268.434653360877    
 JPrj=0 DoOrth=F DoCkMO=F.
 Leave Link  401 at Wed Oct 16 00:37:00 2019, MaxMem=   280000000 cpu:               8.0 elap:               0.4
 (Enter /home/soft/g16/l502.exe)
 Keep R1 ints in memory in canonical form, NReq=57089831.
 FoFCou: FMM=F IPFlag=           0 FMFlag=           0 FMFlg1=           0
         NFxFlg=           0 DoJE=F BraDBF=F KetDBF=F FulRan=T
         wScrn=  0.000000 ICntrl=       600 IOpCl=  0 I1Cent=           0 NGrid=           0
         NMat0=    1 NMatS0=   8256 NMatT0=    0 NMatD0=    1 NMtDS0=    0 NMtDT0=    0
 Symmetry not used in FoFCou.
 Two-electron integral symmetry not used.
 Closed shell SCF:
 Using DIIS extrapolation, IDIIS=  1040.
 NGot=   280000000 LenX=   245875069 LenY=   245856939
 Requested convergence on RMS density matrix=1.00D-08 within 128 cycles.
 Requested convergence on MAX density matrix=1.00D-06.
 Requested convergence on             energy=1.00D-06.
 No special actions if energy rises.

 Cycle   1  Pass 1  IDiag  1:
 E= -268.232218031445    
 DIIS: error= 2.52D-02 at cycle   1 NSaved=   1.
 NSaved= 1 IEnMin= 1 EnMin= -268.232218031445     IErMin= 1 ErrMin= 2.52D-02
 ErrMax= 2.52D-02  0.00D+00 EMaxC= 1.00D-01 BMatC= 2.09D-01 BMatP= 2.09D-01
 IDIUse=3 WtCom= 7.48D-01 WtEn= 2.52D-01
 Coeff-Com:  0.100D+01
 Coeff-En:   0.100D+01
 Coeff:      0.100D+01
 Gap=     0.122 Goal=   None    Shift=    0.000
 GapD=    0.122 DampG=1.000 DampE=0.500 DampFc=0.5000 IDamp=-1.
 Damping current iteration by 5.00D-01
 RMSDP=6.78D-03 MaxDP=1.35D-01              OVMax= 2.15D-01

 Cycle   2  Pass 1  IDiag  1:
 E= -268.281500652063     Delta-E=       -0.049282620618 Rises=F Damp=T
 DIIS: error= 1.55D-02 at cycle   2 NSaved=   2.
 NSaved= 2 IEnMin= 2 EnMin= -268.281500652063     IErMin= 2 ErrMin= 1.55D-02
 ErrMax= 1.55D-02  0.00D+00 EMaxC= 1.00D-01 BMatC= 2.39D-02 BMatP= 2.09D-01
 IDIUse=3 WtCom= 8.45D-01 WtEn= 1.55D-01
 Coeff-Com:  0.185D+00 0.815D+00
 Coeff-En:   0.319D+00 0.681D+00
 Coeff:      0.205D+00 0.795D+00
 Gap=     0.194 Goal=   None    Shift=    0.000
 RMSDP=1.90D-03 MaxDP=4.46D-02 DE=-4.93D-02 OVMax= 1.83D-01

 Cycle   3  Pass 1  IDiag  1:
 E= -268.375233394749     Delta-E=       -0.093732742686 Rises=F Damp=F
 DIIS: error= 1.84D-02 at cycle   3 NSaved=   3.
 NSaved= 3 IEnMin= 3 EnMin= -268.375233394749     IErMin= 2 ErrMin= 1.55D-02
 ErrMax= 1.84D-02  0.00D+00 EMaxC= 1.00D-01 BMatC= 2.38D-02 BMatP= 2.39D-02
 IDIUse=3 WtCom= 8.16D-01 WtEn= 1.84D-01
 Coeff-Com:  0.513D-01 0.501D+00 0.448D+00
 Coeff-En:   0.000D+00 0.000D+00 0.100D+01
 Coeff:      0.419D-01 0.409D+00 0.549D+00
 Gap=     0.199 Goal=   None    Shift=    0.000
 RMSDP=1.18D-03 MaxDP=2.38D-02 DE=-9.37D-02 OVMax= 7.30D-02

 Cycle   4  Pass 1  IDiag  1:
 E= -268.388607589359     Delta-E=       -0.013374194610 Rises=F Damp=F
 DIIS: error= 1.00D-02 at cycle   4 NSaved=   4.
 NSaved= 4 IEnMin= 4 EnMin= -268.388607589359     IErMin= 4 ErrMin= 1.00D-02
 ErrMax= 1.00D-02  0.00D+00 EMaxC= 1.00D-01 BMatC= 7.55D-03 BMatP= 2.38D-02
 IDIUse=3 WtCom= 9.00D-01 WtEn= 1.00D-01
 Coeff-Com:  0.541D-02 0.903D-01 0.364D+00 0.540D+00
 Coeff-En:   0.000D+00 0.000D+00 0.280D+00 0.720D+00
 Coeff:      0.487D-02 0.812D-01 0.356D+00 0.558D+00
 Gap=     0.190 Goal=   None    Shift=    0.000
 RMSDP=4.80D-04 MaxDP=9.15D-03 DE=-1.34D-02 OVMax= 2.28D-02

 Cycle   5  Pass 1  IDiag  1:
 E= -268.394281034786     Delta-E=       -0.005673445427 Rises=F Damp=F
 DIIS: error= 9.83D-04 at cycle   5 NSaved=   5.
 NSaved= 5 IEnMin= 5 EnMin= -268.394281034786     IErMin= 5 ErrMin= 9.83D-04
 ErrMax= 9.83D-04  0.00D+00 EMaxC= 1.00D-01 BMatC= 1.87D-04 BMatP= 7.55D-03
 IDIUse=3 WtCom= 9.90D-01 WtEn= 9.83D-03
 Coeff-Com:  0.967D-04 0.147D-01 0.162D+00 0.302D+00 0.521D+00
 Coeff-En:   0.000D+00 0.000D+00 0.000D+00 0.000D+00 0.100D+01
 Coeff:      0.958D-04 0.145D-01 0.161D+00 0.299D+00 0.526D+00
 Gap=     0.191 Goal=   None    Shift=    0.000
 RMSDP=9.70D-05 MaxDP=2.56D-03 DE=-5.67D-03 OVMax= 6.65D-03

 Cycle   6  Pass 1  IDiag  1:
 E= -268.394436853586     Delta-E=       -0.000155818800 Rises=F Damp=F
 DIIS: error= 3.18D-04 at cycle   6 NSaved=   6.
 NSaved= 6 IEnMin= 6 EnMin= -268.394436853586     IErMin= 6 ErrMin= 3.18D-04
 ErrMax= 3.18D-04  0.00D+00 EMaxC= 1.00D-01 BMatC= 1.42D-05 BMatP= 1.87D-04
 IDIUse=3 WtCom= 9.97D-01 WtEn= 3.18D-03
 Coeff-Com: -0.821D-04-0.152D-02 0.479D-01 0.982D-01 0.275D+00 0.581D+00
 Coeff-En:   0.000D+00 0.000D+00 0.000D+00 0.000D+00 0.129D-01 0.987D+00
 Coeff:     -0.818D-04-0.151D-02 0.477D-01 0.979D-01 0.274D+00 0.582D+00
 Gap=     0.191 Goal=   None    Shift=    0.000
 RMSDP=3.60D-05 MaxDP=6.87D-04 DE=-1.56D-04 OVMax= 2.20D-03

 Cycle   7  Pass 1  IDiag  1:
 E= -268.394449509183     Delta-E=       -0.000012655596 Rises=F Damp=F
 DIIS: error= 1.03D-04 at cycle   7 NSaved=   7.
 NSaved= 7 IEnMin= 7 EnMin= -268.394449509183     IErMin= 7 ErrMin= 1.03D-04
 ErrMax= 1.03D-04  0.00D+00 EMaxC= 1.00D-01 BMatC= 1.39D-06 BMatP= 1.42D-05
 IDIUse=3 WtCom= 9.99D-01 WtEn= 1.03D-03
 Coeff-Com:  0.581D-04-0.195D-02 0.182D-01 0.385D-01 0.127D+00 0.329D+00
 Coeff-Com:  0.489D+00
 Coeff-En:   0.000D+00 0.000D+00 0.000D+00 0.000D+00 0.000D+00 0.000D+00
 Coeff-En:   0.100D+01
 Coeff:      0.581D-04-0.195D-02 0.181D-01 0.385D-01 0.127D+00 0.329D+00
 Coeff:      0.489D+00
 Gap=     0.191 Goal=   None    Shift=    0.000
 RMSDP=9.08D-06 MaxDP=1.41D-04 DE=-1.27D-05 OVMax= 5.82D-04

 Cycle   8  Pass 1  IDiag  1:
 E= -268.394450568129     Delta-E=       -0.000001058947 Rises=F Damp=F
 DIIS: error= 4.01D-05 at cycle   8 NSaved=   8.
 NSaved= 8 IEnMin= 8 EnMin= -268.394450568129     IErMin= 8 ErrMin= 4.01D-05
 ErrMax= 4.01D-05  0.00D+00 EMaxC= 1.00D-01 BMatC= 1.56D-07 BMatP= 1.39D-06
 IDIUse=1 WtCom= 1.00D+00 WtEn= 0.00D+00
 Coeff-Com:  0.145D-03-0.953D-03 0.364D-02 0.788D-02 0.323D-01 0.100D+00
 Coeff-Com:  0.275D+00 0.582D+00
 Coeff:      0.145D-03-0.953D-03 0.364D-02 0.788D-02 0.323D-01 0.100D+00
 Coeff:      0.275D+00 0.582D+00
 Gap=     0.191 Goal=   None    Shift=    0.000
 RMSDP=2.79D-06 MaxDP=4.69D-05 DE=-1.06D-06 OVMax= 1.50D-04

 Cycle   9  Pass 1  IDiag  1:
 E= -268.394450678673     Delta-E=       -0.000000110543 Rises=F Damp=F
 DIIS: error= 5.87D-06 at cycle   9 NSaved=   9.
 NSaved= 9 IEnMin= 9 EnMin= -268.394450678673     IErMin= 9 ErrMin= 5.87D-06
 ErrMax= 5.87D-06  0.00D+00 EMaxC= 1.00D-01 BMatC= 8.94D-09 BMatP= 1.56D-07
 IDIUse=1 WtCom= 1.00D+00 WtEn= 0.00D+00
 Coeff-Com:  0.729D-04-0.296D-03 0.829D-04 0.187D-03 0.319D-02 0.146D-01
 Coeff-Com:  0.746D-01 0.266D+00 0.642D+00
 Coeff:      0.729D-04-0.296D-03 0.829D-04 0.187D-03 0.319D-02 0.146D-01
 Coeff:      0.746D-01 0.266D+00 0.642D+00
 Gap=     0.191 Goal=   None    Shift=    0.000
 RMSDP=6.22D-07 MaxDP=2.00D-05 DE=-1.11D-07 OVMax= 3.84D-05

 Cycle  10  Pass 1  IDiag  1:
 E= -268.394450686550     Delta-E=       -0.000000007878 Rises=F Damp=F
 DIIS: error= 1.62D-06 at cycle  10 NSaved=  10.
 NSaved=10 IEnMin=10 EnMin= -268.394450686550     IErMin=10 ErrMin= 1.62D-06
 ErrMax= 1.62D-06  0.00D+00 EMaxC= 1.00D-01 BMatC= 4.05D-10 BMatP= 8.94D-09
 IDIUse=1 WtCom= 1.00D+00 WtEn= 0.00D+00
 Coeff-Com:  0.187D-04-0.481D-04-0.156D-03-0.372D-03-0.842D-03-0.863D-03
 Coeff-Com:  0.840D-02 0.635D-01 0.252D+00 0.678D+00
 Coeff:      0.187D-04-0.481D-04-0.156D-03-0.372D-03-0.842D-03-0.863D-03
 Coeff:      0.840D-02 0.635D-01 0.252D+00 0.678D+00
 Gap=     0.191 Goal=   None    Shift=    0.000
 RMSDP=2.23D-07 MaxDP=3.90D-06 DE=-7.88D-09 OVMax= 5.43D-06

 Cycle  11  Pass 1  IDiag  1:
 E= -268.394450686975     Delta-E=       -0.000000000425 Rises=F Damp=F
 DIIS: error= 1.60D-07 at cycle  11 NSaved=  11.
 NSaved=11 IEnMin=11 EnMin= -268.394450686975     IErMin=11 ErrMin= 1.60D-07
 ErrMax= 1.60D-07  0.00D+00 EMaxC= 1.00D-01 BMatC= 7.74D-12 BMatP= 4.05D-10
 IDIUse=1 WtCom= 1.00D+00 WtEn= 0.00D+00
 Coeff-Com: -0.192D-05 0.494D-05-0.135D-04-0.490D-04-0.235D-03-0.490D-03
 Coeff-Com: -0.257D-02-0.277D-02 0.223D-02 0.960D-01 0.908D+00
 Coeff:     -0.192D-05 0.494D-05-0.135D-04-0.490D-04-0.235D-03-0.490D-03
 Coeff:     -0.257D-02-0.277D-02 0.223D-02 0.960D-01 0.908D+00
 Gap=     0.191 Goal=   None    Shift=    0.000
 RMSDP=3.15D-08 MaxDP=4.30D-07 DE=-4.25D-10 OVMax= 1.07D-06

 Cycle  12  Pass 1  IDiag  1:
 E= -268.394450686983     Delta-E=       -0.000000000008 Rises=F Damp=F
 DIIS: error= 3.76D-08 at cycle  12 NSaved=  12.
 NSaved=12 IEnMin=12 EnMin= -268.394450686983     IErMin=12 ErrMin= 3.76D-08
 ErrMax= 3.76D-08  0.00D+00 EMaxC= 1.00D-01 BMatC= 1.92D-13 BMatP= 7.74D-12
 IDIUse=1 WtCom= 1.00D+00 WtEn= 0.00D+00
 Coeff-Com: -0.599D-06 0.142D-05 0.795D-06-0.287D-05-0.322D-04-0.535D-04
 Coeff-Com: -0.641D-03-0.165D-02-0.530D-02 0.336D-02 0.149D+00 0.855D+00
 Coeff:     -0.599D-06 0.142D-05 0.795D-06-0.287D-05-0.322D-04-0.535D-04
 Coeff:     -0.641D-03-0.165D-02-0.530D-02 0.336D-02 0.149D+00 0.855D+00
 Gap=     0.191 Goal=   None    Shift=    0.000
 RMSDP=6.67D-09 MaxDP=8.65D-08 DE=-7.62D-12 OVMax= 1.63D-07

 SCF Done:  E(RB3LYP) =  -268.394450687     A.U. after   12 cycles
            NFock= 12  Conv=0.67D-08     -V/T= 2.0034
 KE= 2.674732730626D+02 PE=-9.644304281309D+02 EE= 2.608061600974D+02
 Leave Link  502 at Wed Oct 16 00:37:03 2019, MaxMem=   280000000 cpu:              55.5 elap:               2.9
 (Enter /home/soft/g16/l801.exe)
 DoSCS=F DFT=T ScalE2(SS,OS)=  1.000000  1.000000
 Range of M.O.s used for correlation:     1   128
 NBasis=   128 NAE=    20 NBE=    20 NFC=     0 NFV=     0
 NROrb=    128 NOA=    20 NOB=    20 NVA=   108 NVB=   108

 **** Warning!!: The largest alpha MO coefficient is  0.42115032D+02

 Leave Link  801 at Wed Oct 16 00:37:03 2019, MaxMem=   280000000 cpu:               0.5 elap:               0.0
 (Enter /home/soft/g16/l1101.exe)
 Using compressed storage, NAtomX=    11.
 Will process     12 centers per pass.
 Leave Link 1101 at Wed Oct 16 00:37:03 2019, MaxMem=   280000000 cpu:               2.8 elap:               0.2
 (Enter /home/soft/g16/l1102.exe)
 Symmetrizing basis deriv contribution to polar:
 IMax=3 JMax=2 DiffMx= 0.00D+00
 Leave Link 1102 at Wed Oct 16 00:37:03 2019, MaxMem=   280000000 cpu:               0.7 elap:               0.0
 (Enter /home/soft/g16/l1110.exe)
 Forming Gx(P) for the SCF density, NAtomX=    11.
 Integral derivatives from FoFJK, PRISM(SPDF).
 Do as many integral derivatives as possible in FoFJK.
 G2DrvN: MDV=     279999094.
 G2DrvN: will do    12 centers at a time, making    1 passes.
 Calling FoFCou, ICntrl=  3107 FMM=F I1Cent=   0 AccDes= 0.00D+00.
 FoFJK:  IHMeth= 1 ICntrl=    3107 DoSepK=F KAlg= 0 I1Cent=           0 FoldK=F
 IRaf=         0 NMat=       1 IRICut=       1 DoRegI=T DoRafI=F ISym2E= 0 IDoP0=0 IntGTp=1.
 FoFCou: FMM=F IPFlag=           0 FMFlag=      100000 FMFlg1=           0
         NFxFlg=           0 DoJE=F BraDBF=F KetDBF=F FulRan=T
         wScrn=  0.000000 ICntrl=      3107 IOpCl=  0 I1Cent=           0 NGrid=           0
         NMat0=    1 NMatS0=      1 NMatT0=    0 NMatD0=    1 NMtDS0=    0 NMtDT0=    0
 Symmetry not used in FoFCou.
 End of G2Drv F.D. properties file   721 does not exist.
 End of G2Drv F.D. properties file   722 does not exist.
 End of G2Drv F.D. properties file   788 does not exist.
 Leave Link 1110 at Wed Oct 16 00:37:07 2019, MaxMem=   280000000 cpu:              85.7 elap:               3.6
 (Enter /home/soft/g16/l1002.exe)
 Minotr:  Closed shell wavefunction.
          IDoAtm=11111111111
          Direct CPHF calculation.
          Differentiating once with respect to nuclear coordinates.
          Requested convergence is 1.0D-08 RMS, and 1.0D-07 maximum.
          Secondary convergence is 1.0D-12 RMS, and 1.0D-12 maximum.
          NewPWx=T KeepS1=F KeepF1=F KeepIn=T MapXYZ=F SortEE=F KeepMc=T.
         3335 words used for storage of precomputed grid.
 Keep R1 ints in memory in canonical form, NReq=57016494.
 FoFCou: FMM=F IPFlag=           0 FMFlag=           0 FMFlg1=           0
         NFxFlg=           0 DoJE=F BraDBF=F KetDBF=F FulRan=T
         wScrn=  0.000000 ICntrl=       600 IOpCl=  0 I1Cent=           0 NGrid=           0
         NMat0=    1 NMatS0=   8256 NMatT0=    0 NMatD0=    1 NMtDS0=    0 NMtDT0=    0
 Symmetry not used in FoFCou.
 Two-electron integral symmetry not used.
          MDV=     280000000 using IRadAn=       1.
          Solving linear equations simultaneously, MaxMat=       0.
          There are    36 degrees of freedom in the 1st order CPHF.  IDoFFX=6 NUNeed=     0.
     30 vectors produced by pass  0 Test12= 6.00D-15 2.78D-09 XBig12= 1.57D-01 1.35D-01.
 AX will form    30 AO Fock derivatives at one time.
     30 vectors produced by pass  1 Test12= 6.00D-15 2.78D-09 XBig12= 2.35D-02 3.58D-02.
     30 vectors produced by pass  2 Test12= 6.00D-15 2.78D-09 XBig12= 2.69D-04 2.22D-03.
     30 vectors produced by pass  3 Test12= 6.00D-15 2.78D-09 XBig12= 8.29D-07 1.39D-04.
     30 vectors produced by pass  4 Test12= 6.00D-15 2.78D-09 XBig12= 1.01D-09 5.09D-06.
     26 vectors produced by pass  5 Test12= 6.00D-15 2.78D-09 XBig12= 1.11D-12 1.47D-07.
      1 vectors produced by pass  6 Test12= 6.00D-15 2.78D-09 XBig12= 1.01D-15 3.31D-09.
 InvSVY:  IOpt=1 It=  1 EMax= 1.78D-15
 Solved reduced A of dimension   177 with    30 vectors.
 End of Minotr F.D. properties file   721 does not exist.
 End of Minotr F.D. properties file   722 does not exist.
 End of Minotr F.D. properties file   788 does not exist.
 Leave Link 1002 at Wed Oct 16 00:37:11 2019, MaxMem=   280000000 cpu:              95.7 elap:               4.1
 (Enter /home/soft/g16/l601.exe)
 Copying SCF densities to generalized density rwf, IOpCl= 0 IROHF=0.

 **********************************************************************

            Population analysis using the SCF density.

 **********************************************************************

 Orbital symmetries:
       Occupied  (A) (A) (A) (A) (A) (A) (A) (A) (A) (A) (A) (A)
                 (A) (A) (A) (A) (A) (A) (A) (A)
       Virtual   (A) (A) (A) (A) (A) (A) (A) (A) (A) (A) (A) (A)
                 (A) (A) (A) (A) (A) (A) (A) (A) (A) (A) (A) (A)
                 (A) (A) (A) (A) (A) (A) (A) (A) (A) (A) (A) (A)
                 (A) (A) (A) (A) (A) (A) (A) (A) (A) (A) (A) (A)
                 (A) (A) (A) (A) (A) (A) (A) (A) (A) (A) (A) (A)
                 (A) (A) (A) (A) (A) (A) (A) (A) (A) (A) (A) (A)
                 (A) (A) (A) (A) (A) (A) (A) (A) (A) (A) (A) (A)
                 (A) (A) (A) (A) (A) (A) (A) (A) (A) (A) (A) (A)
                 (A) (A) (A) (A) (A) (A) (A) (A) (A) (A) (A) (A)
 The electronic state is 1-A.
 Alpha  occ. eigenvalues --  -19.16051 -19.14579 -10.27946 -10.24318 -10.16890
 Alpha  occ. eigenvalues --   -1.07899  -1.06937  -0.76634  -0.64574  -0.63580
 Alpha  occ. eigenvalues --   -0.51831  -0.50387  -0.49557  -0.46846  -0.43154
 Alpha  occ. eigenvalues --   -0.40092  -0.39005  -0.36972  -0.28317  -0.25103
 Alpha virt. eigenvalues --   -0.06005   0.00437   0.00532   0.02180   0.02518
 Alpha virt. eigenvalues --    0.03591   0.05546   0.06432   0.07178   0.07495
 Alpha virt. eigenvalues --    0.08738   0.10756   0.12555   0.14404   0.15049
 Alpha virt. eigenvalues --    0.16166   0.17670   0.18332   0.19437   0.20609
 Alpha virt. eigenvalues --    0.21507   0.23236   0.24459   0.27009   0.27472
 Alpha virt. eigenvalues --    0.29171   0.31187   0.31648   0.34794   0.35339
 Alpha virt. eigenvalues --    0.38304   0.43240   0.45876   0.48132   0.49023
 Alpha virt. eigenvalues --    0.51445   0.52897   0.55220   0.59771   0.62083
 Alpha virt. eigenvalues --    0.64351   0.64606   0.66635   0.67887   0.73547
 Alpha virt. eigenvalues --    0.77336   0.77467   0.88424   0.91588   1.01371
 Alpha virt. eigenvalues --    1.03448   1.04974   1.09039   1.14047   1.15516
 Alpha virt. eigenvalues --    1.19740   1.24890   1.28587   1.37728   1.42419
 Alpha virt. eigenvalues --    1.45003   1.46922   1.48676   1.55838   1.56189
 Alpha virt. eigenvalues --    1.61357   1.71786   1.75366   1.91144   1.94724
 Alpha virt. eigenvalues --    2.03509   2.17269   2.25405   2.34990   2.36407
 Alpha virt. eigenvalues --    2.41916   2.46511   2.64499   2.66119   2.69589
 Alpha virt. eigenvalues --    2.77533   2.83558   2.85874   2.88306   3.01895
 Alpha virt. eigenvalues --    3.08683   3.12876   3.16652   3.20681   3.25980
 Alpha virt. eigenvalues --    3.27649   3.32520   3.36150   3.37238   3.56910
 Alpha virt. eigenvalues --    3.80391   3.97974   4.94314   5.01969   5.04975
 Alpha virt. eigenvalues --    5.12204   5.54517   5.58846  23.39955  23.69002
 Alpha virt. eigenvalues --   24.15263  49.85035  49.88007
          Condensed to atoms (all electrons):
               1          2          3          4          5          6
     1  C    5.056615   0.362858   0.351469   0.429159  -0.049911  -0.013560
     2  H    0.362858   0.469526  -0.061868  -0.010198   0.004028  -0.002849
     3  O    0.351469  -0.061868   7.941238  -0.136002  -0.006893   0.006610
     4  C    0.429159  -0.010198  -0.136002   5.632489   0.394498   0.362941
     5  H   -0.049911   0.004028  -0.006893   0.394498   0.437993  -0.023237
     6  H   -0.013560  -0.002849   0.006610   0.362941  -0.023237   0.438867
     7  C    0.025430   0.000651  -0.005126  -0.064818   0.005266   0.001396
     8  H    0.007754  -0.000089   0.002511  -0.013306  -0.003146  -0.000222
     9  H   -0.007768   0.000125  -0.003140  -0.000722   0.000785   0.000342
    10  O    0.016240  -0.000711   0.006373  -0.055174   0.002680   0.000850
    11  H    0.005807   0.008720   0.222690  -0.038930   0.002505   0.000869
               7          8          9         10         11
     1  C    0.025430   0.007754  -0.007768   0.016240   0.005807
     2  H    0.000651  -0.000089   0.000125  -0.000711   0.008720
     3  O   -0.005126   0.002511  -0.003140   0.006373   0.222690
     4  C   -0.064818  -0.013306  -0.000722  -0.055174  -0.038930
     5  H    0.005266  -0.003146   0.000785   0.002680   0.002505
     6  H    0.001396  -0.000222   0.000342   0.000850   0.000869
     7  C    5.181731   0.364371   0.373233   0.355198   0.001615
     8  H    0.364371   0.607726  -0.096022  -0.078684  -0.001297
     9  H    0.373233  -0.096022   0.581089  -0.068031   0.001163
    10  O    0.355198  -0.078684  -0.068031   8.064509   0.009233
    11  H    0.001615  -0.001297   0.001163   0.009233   0.416885
 Mulliken charges:
               1
     1  C   -0.184093
     2  H    0.229807
     3  O   -0.317861
     4  C   -0.499938
     5  H    0.235432
     6  H    0.227994
     7  C   -0.238947
     8  H    0.210405
     9  H    0.218945
    10  O   -0.252483
    11  H    0.370739
 Sum of Mulliken charges =  -0.00000
 Mulliken charges with hydrogens summed into heavy atoms:
               1
     1  C    0.045714
     3  O    0.052878
     4  C   -0.036513
     7  C    0.190403
    10  O   -0.252483
 APT charges:
               1
     1  C   -0.468152
     2  H    0.568795
     3  O   -0.439024
     4  C   -0.992644
     5  H    0.341441
     6  H    0.578326
     7  C   -0.568002
     8  H    0.441238
     9  H    0.388937
    10  O   -0.329257
    11  H    0.478343
 Sum of APT charges =  -0.00000
 APT charges with hydrogens summed into heavy atoms:
               1
     1  C    0.100642
     3  O    0.039319
     4  C   -0.072878
     7  C    0.262173
    10  O   -0.329257
 Electronic spatial extent (au):  <R**2>=            492.6668
 Charge=             -0.0000 electrons
 Dipole moment (field-independent basis, Debye):
    X=              0.4569    Y=              2.5535    Z=              0.7380  Tot=              2.6970
 Quadrupole moment (field-independent basis, Debye-Ang):
   XX=            -32.5475   YY=            -32.2479   ZZ=            -29.3778
   XY=              1.4598   XZ=              0.2005   YZ=              1.1745
 Traceless Quadrupole moment (field-independent basis, Debye-Ang):
   XX=             -1.1564   YY=             -0.8568   ZZ=              2.0132
   XY=              1.4598   XZ=              0.2005   YZ=              1.1745
 Octapole moment (field-independent basis, Debye-Ang**2):
  XXX=              5.6475  YYY=             -1.2514  ZZZ=              0.4378  XYY=              3.8639
  XXY=              6.2311  XXZ=              9.2597  XZZ=              0.7755  YZZ=             -2.8945
  YYZ=             -2.6759  XYZ=             -1.5264
 Hexadecapole moment (field-independent basis, Debye-Ang**3):
 XXXX=           -389.7877 YYYY=           -183.0718 ZZZZ=            -65.1203 XXXY=             13.4802
 XXXZ=             -6.8548 YYYX=             -5.1325 YYYZ=              5.4744 ZZZX=             -2.4579
 ZZZY=              1.6039 XXYY=           -100.1325 XXZZ=            -74.2683 YYZZ=            -41.8700
 XXYZ=              1.7155 YYXZ=             -2.1596 ZZXY=              3.0707
 N-N= 1.677565442840D+02 E-N=-9.644304282995D+02  KE= 2.674732730626D+02
  Exact polarizability:   0.000   0.000   0.000   0.000   0.000   0.000
 Approx polarizability:  60.812   3.124  85.701  -5.581  -1.886  58.244
 No NMR shielding tensors so no spin-rotation constants.
 Leave Link  601 at Wed Oct 16 00:37:11 2019, MaxMem=   280000000 cpu:               2.2 elap:               0.1
 (Enter /home/soft/g16/l701.exe)
 ... and contract with generalized density number  0.
 Compute integral second derivatives.
 Leave Link  701 at Wed Oct 16 00:37:11 2019, MaxMem=   280000000 cpu:               5.0 elap:               0.3
 (Enter /home/soft/g16/l702.exe)
 L702 exits ... SP integral derivatives will be done elsewhere.
 Leave Link  702 at Wed Oct 16 00:37:11 2019, MaxMem=   280000000 cpu:               0.4 elap:               0.0
 (Enter /home/soft/g16/l703.exe)
 Integral derivatives from FoFJK, PRISM(SPDF).
 Compute integral second derivatives, UseDBF=F ICtDFT=           0.
 Calling FoFJK, ICntrl=    100147 FMM=F ISym2X=0 I1Cent= 0 IOpClX= 0 NMat=1 NMatS=1 NMatT=0.
 FoFJK:  IHMeth= 1 ICntrl=  100147 DoSepK=F KAlg= 0 I1Cent=           0 FoldK=F
 IRaf=         0 NMat=       1 IRICut=       1 DoRegI=T DoRafI=F ISym2E= 0 IDoP0=0 IntGTp=1.
 FoFCou: FMM=F IPFlag=           0 FMFlag=      100000 FMFlg1=         800
         NFxFlg=           0 DoJE=F BraDBF=F KetDBF=F FulRan=T
         wScrn=  0.000000 ICntrl=    100147 IOpCl=  0 I1Cent=           0 NGrid=           0
         NMat0=    1 NMatS0=      1 NMatT0=    0 NMatD0=    1 NMtDS0=    0 NMtDT0=    0
 Symmetry not used in FoFCou.
 Leave Link  703 at Wed Oct 16 00:37:17 2019, MaxMem=   280000000 cpu:             139.0 elap:               5.8
 (Enter /home/soft/g16/l716.exe)
 Dipole        = 1.79757538D-01 1.00463835D+00 2.90338661D-01
 Polarizability= 0.00000000D+00 0.00000000D+00 0.00000000D+00
                 0.00000000D+00 0.00000000D+00 0.00000000D+00
 ***** Axes restored to original set *****
 -------------------------------------------------------------------
 Center     Atomic                   Forces (Hartrees/Bohr)
 Number     Number              X              Y              Z
 -------------------------------------------------------------------
      1        6          -0.002290794   -0.000438059    0.000033365
      2        1          -0.000040341    0.000071939    0.000053161
      3        8           0.002168647   -0.000182934   -0.002026262
      4        6          -0.001910987    0.001025252   -0.000621555
      5        1           0.000453703   -0.000156556   -0.000391970
      6        1          -0.000355893    0.000373980    0.000006754
      7        6           0.002687599    0.002182355    0.002043877
      8        1          -0.000011348   -0.000765251    0.000361549
      9        1           0.000156751   -0.000179161    0.000096925
     10        8           0.002281422   -0.002664874   -0.002175214
     11        1          -0.003138757    0.000733309    0.002619370
 -------------------------------------------------------------------
 Cartesian Forces:  Max     0.003138757 RMS     0.001469559
 Force constants in Cartesian coordinates: 
                1             2             3             4             5 
      1  0.408001D+00
      2  0.752687D-01  0.715689D+00
      3 -0.317545D+00 -0.740644D-01  0.522873D+00
      4 -0.155380D+00  0.202770D-01  0.139660D+00  0.151749D+00
      5  0.161773D-01 -0.567101D-01 -0.235608D-01 -0.275387D-01  0.744569D-01
      6  0.140309D+00 -0.278416D-01 -0.219509D+00 -0.157795D+00  0.349297D-01
      7 -0.878757D-01  0.410930D-01  0.428117D-01 -0.646243D-03  0.280120D-01
      8  0.554259D-02 -0.309381D+00 -0.297321D-01  0.564184D-02 -0.176444D-01
      9  0.385109D-01 -0.482015D-01 -0.886771D-01  0.264963D-02 -0.297893D-01
     10 -0.153303D+00 -0.120674D+00  0.126759D+00 -0.145319D-02 -0.137751D-01
     11 -0.130345D+00 -0.323627D+00  0.147929D+00  0.345809D-02  0.762132D-02
     12  0.128666D+00  0.150544D+00 -0.202950D+00  0.112985D-01  0.193140D-01
     13 -0.494743D-02  0.377106D-02  0.136287D-01  0.540869D-02 -0.237216D-02
     14 -0.149395D-01  0.701574D-02  0.213067D-01 -0.193748D-02 -0.293621D-02
     15  0.959866D-02 -0.619192D-02 -0.908012D-02  0.437402D-02  0.193306D-02
     16  0.235915D-02 -0.143489D-01 -0.757571D-02 -0.306145D-02  0.273888D-03
     17  0.771968D-02 -0.193708D-01 -0.100434D-01 -0.312862D-03  0.595779D-03
     18 -0.633625D-02  0.158208D-01  0.453635D-02 -0.292024D-02 -0.453677D-04
     19 -0.411001D-02 -0.948422D-02  0.177806D-02  0.669151D-03  0.345138D-04
     20  0.253011D-02  0.209919D-01 -0.151189D-02  0.449766D-04 -0.386092D-03
     21  0.833300D-04  0.369973D-02 -0.131294D-02  0.543658D-03 -0.185307D-03
     22  0.283370D-03  0.907221D-03  0.320864D-04  0.216749D-04  0.501747D-04
     23 -0.150906D-03 -0.200650D-02 -0.608118D-03 -0.540098D-04  0.828807D-04
     24 -0.168318D-03  0.175016D-02 -0.312049D-03  0.367283D-04  0.456274D-04
     25 -0.234713D-03  0.182915D-02 -0.124861D-02 -0.559802D-04  0.105147D-04
     26 -0.130441D-03  0.293201D-03 -0.257690D-03  0.289136D-04  0.782517D-04
     27 -0.862993D-04 -0.134635D-03  0.125578D-03 -0.198173D-03  0.225183D-04
     28 -0.275913D-02 -0.596965D-02 -0.474471D-03  0.184746D-03  0.444324D-03
     29 -0.457516D-03 -0.201481D-01  0.275581D-02 -0.214122D-04  0.393247D-03
     30 -0.147695D-03 -0.831512D-02  0.216372D-02 -0.297677D-04  0.266459D-03
     31 -0.203305D-02  0.733056D-02  0.217384D-02  0.256357D-02 -0.131683D-02
     32  0.387853D-01 -0.127467D-01 -0.322131D-01  0.413636D-03 -0.555156D-02
     33  0.711562D-02 -0.706518D-02 -0.785620D-02  0.238075D-02 -0.293055D-02
                6             7             8             9            10 
      6  0.224412D+00
      7  0.572733D-02  0.380382D+00
      8 -0.676386D-02 -0.769167D-01  0.446823D+00
      9 -0.297172D-02 -0.253968D+00  0.871902D-01  0.235363D+00
     10  0.103271D-01  0.144582D-01 -0.768777D-02 -0.672237D-02  0.310424D+00
     11 -0.230887D-02 -0.152384D-01 -0.619770D-01  0.127806D-01  0.642707D-01
     12 -0.693005D-02 -0.401788D-02 -0.684258D-02  0.185993D-01 -0.306202D+00
     13  0.535660D-02 -0.257022D-02  0.139134D-02 -0.498409D-02 -0.124242D+00
     14  0.161990D-02  0.166799D-03  0.291489D-02 -0.691272D-03  0.233064D-01
     15  0.376160D-02 -0.389892D-02  0.393744D-03 -0.894132D-03  0.143943D+00
     16 -0.323135D-02  0.560784D-02 -0.251850D-02  0.758303D-02 -0.455719D-01
     17  0.399082D-03 -0.243155D-02 -0.101616D-02  0.288605D-02  0.527080D-01
     18 -0.170733D-02  0.638676D-02  0.353113D-02  0.411238D-02  0.319723D-01
     19  0.430425D-03 -0.316889D-02  0.441522D-02  0.245594D-03  0.550453D-02
     20 -0.167140D-03  0.540343D-02 -0.154080D-01 -0.323770D-02 -0.108803D-01
     21 -0.240160D-03  0.288808D-02 -0.218651D-02 -0.119897D-03 -0.157672D-02
     22 -0.636406D-04  0.725107D-03 -0.658046D-03 -0.138964D-03 -0.206534D-02
     23 -0.525406D-04 -0.809079D-03  0.192121D-02  0.473790D-03  0.109989D-02
     24  0.103435D-03  0.333771D-03 -0.122214D-02 -0.210658D-03 -0.195721D-02
     25  0.188916D-04  0.147492D-03 -0.480127D-03  0.159669D-03 -0.180207D-02
     26 -0.113092D-04  0.156730D-03 -0.224573D-03  0.225967D-03 -0.432872D-03
     27  0.481759D-04 -0.309498D-03  0.162642D-03  0.124690D-03  0.291351D-04
     28  0.305246D-03 -0.844422D-02  0.598214D-02  0.545974D-03  0.115404D-03
     29  0.220329D-03 -0.753016D-02  0.129928D-01  0.165814D-02  0.122924D-01
     30  0.401974D-03 -0.429419D-02  0.459154D-02  0.147619D-02  0.479390D-02
     31 -0.138387D-02 -0.298615D+00  0.652880D-01  0.216119D+00 -0.206514D-02
     32 -0.236255D-04  0.280939D-01 -0.590013D-01 -0.232949D-01 -0.227496D-03
     33  0.263100D-02  0.208341D+00 -0.491221D-01 -0.166802D+00 -0.136661D-02
               11            12            13            14            15 
     11  0.750502D+00
     12 -0.538564D-01  0.496387D+00
     13  0.199723D-01  0.142410D+00  0.130701D+00
     14 -0.634960D-01 -0.345693D-01 -0.226581D-01  0.565125D-01
     15 -0.304322D-01 -0.236416D+00 -0.156114D+00  0.328257D-01  0.246416D+00
     16  0.579973D-01  0.329189D-01 -0.138673D-02  0.146020D-01  0.224545D-02
     17 -0.309295D+00 -0.750839D-01 -0.654073D-03  0.995164D-03  0.710670D-03
     18 -0.792458D-01 -0.673963D-01  0.246457D-02 -0.212552D-01 -0.286656D-02
     19  0.111212D-02 -0.286947D-02 -0.237880D-02  0.881948D-03 -0.522771D-03
     20 -0.768980D-02  0.214468D-02  0.229789D-02  0.548043D-03  0.534024D-03
     21 -0.200188D-02 -0.819779D-03 -0.192642D-02  0.696587D-03 -0.224575D-02
     22 -0.288418D-03  0.152453D-03 -0.366378D-03 -0.280947D-03 -0.223994D-03
     23  0.101025D-02  0.415902D-03  0.115615D-03 -0.970098D-04 -0.386224D-03
     24 -0.755457D-03 -0.224139D-03 -0.575618D-03  0.720218D-04  0.321497D-03
     25 -0.199547D-03 -0.531943D-03 -0.992284D-04  0.108361D-03 -0.220621D-03
     26  0.809760D-04  0.361232D-03  0.268024D-04 -0.159731D-03  0.318972D-05
     27  0.220953D-03  0.132220D-03  0.108618D-03  0.384384D-04  0.267200D-03
     28  0.388226D-02 -0.356003D-03 -0.213479D-03  0.184990D-03  0.666829D-03
     29  0.448651D-02 -0.214657D-02 -0.155198D-02 -0.615190D-03 -0.782993D-03
     30  0.380142D-02 -0.166350D-02 -0.666299D-03  0.507090D-04  0.993896D-03
     31 -0.462103D-02 -0.146886D-02  0.947398D-04  0.565558D-03  0.152210D-03
     32  0.238380D-02 -0.280696D-03 -0.338630D-03 -0.682202D-03  0.139296D-02
     33  0.386882D-02  0.128211D-02  0.298289D-03 -0.943140D-04 -0.256999D-03
               16            17            18            19            20 
     16  0.425121D-01
     17 -0.565954D-01  0.327538D+00
     18 -0.319464D-01  0.808862D-01  0.640767D-01
     19  0.105173D-02 -0.186442D-03  0.512768D-03  0.215078D+00
     20  0.134740D-02 -0.389349D-03  0.231954D-03  0.146266D+00  0.838745D+00
     21  0.978920D-03 -0.257374D-03  0.158218D-03 -0.631572D-01  0.187754D+00
     22 -0.181474D-03  0.764748D-04 -0.477068D-04 -0.782733D-01 -0.579953D-01
     23 -0.141123D-03  0.232997D-04 -0.826219D-04 -0.587254D-01 -0.184496D+00
     24  0.219340D-03 -0.165358D-04  0.359505D-04  0.435619D-01  0.875380D-01
     25 -0.353263D-04  0.418840D-04 -0.841329D-04 -0.661126D-01 -0.775702D-02
     26 -0.166504D-04 -0.358071D-04  0.371037D-04 -0.291832D-02 -0.617691D-01
     27 -0.159021D-03  0.736071D-04 -0.567673D-04  0.492489D-01  0.925518D-02
     28 -0.111678D-02  0.209585D-03 -0.406015D-03 -0.688234D-01 -0.711605D-01
     29  0.406983D-04  0.221447D-03  0.263488D-03 -0.796389D-01 -0.589312D+00
     30 -0.851550D-03  0.178151D-03  0.613534D-04 -0.281987D-01 -0.281532D+00
     31 -0.177111D-03 -0.575221D-03  0.404329D-03  0.563847D-03 -0.100971D-01
     32 -0.640568D-03  0.733379D-03 -0.141589D-03 -0.175685D-02 -0.834735D-03
     33 -0.181616D-03  0.267560D-03 -0.953977D-03 -0.102951D-02 -0.100896D-02
               21            22            23            24            25 
     21  0.668406D+00
     22  0.409133D-01  0.523276D-01
     23  0.921537D-01  0.763861D-01  0.226595D+00
     24 -0.129719D+00 -0.455377D-01 -0.892109D-01  0.115012D+00
     25  0.501337D-01  0.141261D-01 -0.265457D-02  0.118838D-01  0.348830D-01
     26  0.713351D-02 -0.784925D-02  0.431297D-02  0.209064D-01  0.708570D-02
     27 -0.269417D+00  0.635940D-02 -0.587368D-03 -0.959772D-02 -0.570688D-01
     28 -0.242350D-01  0.137661D-01 -0.162509D-01 -0.761714D-02  0.194201D-01
     29 -0.286176D+00 -0.103659D-01 -0.470080D-01 -0.190349D-01  0.222938D-02
     30 -0.263845D+00 -0.858750D-03 -0.267010D-02  0.246312D-01 -0.353192D-02
     31 -0.464563D-02 -0.363460D-03  0.118448D-02 -0.179507D-03 -0.236804D-03
     32 -0.630675D-03  0.178619D-04 -0.338091D-03 -0.722405D-04 -0.213716D-03
     33 -0.844088D-03 -0.586492D-03  0.554446D-03 -0.403127D-04  0.489950D-03
               26            27            28            29            30 
     26  0.638159D-01
     27  0.192426D-01  0.297766D+00
     28  0.359736D-02  0.137540D-02  0.462622D-01
     29 -0.646175D-02 -0.281100D-01  0.781838D-01  0.646735D+00
     30 -0.473055D-01 -0.194314D-01  0.286405D-01  0.330958D+00  0.255618D+00
     31  0.452030D-03  0.700263D-03  0.160840D-02  0.681953D-02  0.514447D-02
     32  0.696560D-04 -0.183923D-03  0.896541D-03 -0.128426D-02 -0.233338D-04
     33 -0.335464D-03  0.398249D-04  0.155470D-02  0.394595D-03 -0.405762D-03
               31            32            33 
     31  0.298660D+00
     32 -0.650299D-01  0.772520D-01
     33 -0.217016D+00  0.554711D-01  0.173207D+00
 FormGI is forming the generalized inverse of G from B-inverse, IUseBI=4.
 Force constants in internal coordinates: 
                1             2             3             4             5 
      1  0.357005D+00
      2  0.143763D-01  0.427587D+00
      3  0.684278D-02  0.454584D-01  0.589238D+00
      4 -0.206572D-02  0.640933D-02 -0.174521D-02  0.489895D+00
      5 -0.434896D-03  0.618807D-03  0.552587D-02 -0.816201D-03  0.360261D+00
      6  0.799088D-03 -0.159859D-02  0.421045D-02 -0.271936D-03  0.169433D-02
      7 -0.428357D-04 -0.134301D-02  0.122504D-02 -0.328494D-03  0.599559D-03
      8  0.147253D-03  0.474081D-04  0.123247D-03  0.799002D-03 -0.178800D-03
      9 -0.361409D-03  0.118572D-01 -0.909517D-02 -0.169740D-02  0.906369D-03
     10  0.123480D-03 -0.690516D-02  0.566201D-02  0.129168D-01 -0.159268D-02
     11  0.610769D-02  0.185251D-01 -0.224425D-01  0.402256D-02  0.399410D-03
     12  0.481355D-02 -0.414285D-01  0.710912D-02 -0.715710D-03  0.550959D-02
     13 -0.109211D-01  0.229033D-01  0.153343D-01 -0.330583D-02 -0.590951D-02
     14  0.297937D-02  0.539033D-01  0.275955D-02  0.425040D-01 -0.252550D-02
     15  0.307935D-02 -0.465280D-02  0.845477D-02  0.167430D-02  0.728651D-02
     16 -0.201620D-02  0.545956D-02  0.124571D-01 -0.185497D-02 -0.116173D-01
     17 -0.102956D-02 -0.999102D-03 -0.207238D-01  0.144351D-03  0.448989D-02
     18 -0.395105D-04 -0.871185D-03  0.877630D-03 -0.131209D-02  0.177935D-03
     19  0.914684D-04  0.192779D-03 -0.510063D-03  0.119527D-02 -0.485797D-03
     20 -0.529934D-04  0.620120D-03 -0.318306D-03  0.711189D-04  0.311443D-03
     21 -0.110126D-03 -0.128269D-01  0.639304D-02  0.905382D-02 -0.239185D-02
     22  0.170300D-04 -0.611334D-02  0.368905D-02  0.185281D-01  0.227067D-03
     23 -0.139057D-02 -0.339801D-02  0.426551D-02  0.176349D-02 -0.341365D-02
     24 -0.102896D-02 -0.347283D-02  0.609414D-02  0.375279D-02 -0.439618D-02
     25 -0.276575D-03  0.117113D-02  0.222586D-03  0.162246D-02 -0.238030D-02
     26  0.867069D-04 -0.131228D-02  0.151257D-02  0.116170D-02 -0.148900D-03
     27 -0.674730D-03  0.123232D-02 -0.178481D-02 -0.571672D-03 -0.129509D-02
     28 -0.311448D-03 -0.125108D-02 -0.494817D-03 -0.103243D-02  0.936303D-03
     29 -0.275246D-03 -0.420048D-02  0.115624D-01  0.209305D-01 -0.819512D-02
     30  0.268753D-04  0.163176D-02 -0.137086D-02  0.125507D-02 -0.888782D-04
     31  0.926843D-04 -0.612903D-03  0.226143D-02 -0.116569D-02  0.313751D-03
     32  0.124426D-03  0.114184D-02  0.775097D-03  0.224692D-03  0.202983D-03
     33 -0.135359D-03 -0.603353D-02  0.525569D-02  0.289093D-03 -0.181175D-02
                6             7             8             9            10 
      6  0.362864D+00
      7  0.754584D-04  0.306997D+00
      8  0.769603D-04  0.568842D-02  0.310816D+00
      9 -0.667427D-03  0.358752D-01  0.351408D-01  0.850721D+00
     10  0.121468D-03 -0.147668D-02 -0.710885D-03  0.116506D-01  0.159903D-01
     11 -0.202996D-02  0.103977D-03 -0.349537D-03 -0.553984D-03 -0.757019D-03
     12 -0.279760D-02 -0.374750D-04 -0.348982D-03 -0.169105D-03 -0.199677D-02
     13  0.482769D-02 -0.666076D-04  0.698415D-03  0.724290D-03  0.275457D-02
     14  0.126489D-03 -0.278165D-02  0.207724D-02  0.794470D-02  0.162615D-01
     15 -0.108746D-01 -0.140741D-03  0.368261D-04  0.782369D-03  0.639383D-03
     16  0.614584D-02 -0.209407D-04 -0.586614D-04  0.311550D-03 -0.464054D-03
     17  0.473820D-02  0.134093D-03  0.304089D-04 -0.981425D-03 -0.381598D-03
     18  0.345423D-04  0.839672D-02  0.781703D-02 -0.358417D-01 -0.119044D-02
     19 -0.392731D-04  0.211179D-02 -0.104845D-01  0.176856D-01  0.125561D-02
     20  0.226287D-05 -0.104910D-01  0.269053D-02  0.182441D-01 -0.172374D-03
     21  0.487991D-05 -0.377958D-02 -0.147891D-02  0.290046D-01  0.196655D-01
     22  0.609497D-03 -0.118719D-02  0.538153D-03  0.829083D-02  0.212023D-01
     23 -0.192033D-03 -0.647059D-03 -0.866489D-03  0.438439D-02  0.702916D-02
     24  0.500621D-04 -0.851654D-03 -0.106713D-02  0.671278D-02  0.854176D-02
     25 -0.222419D-03 -0.224363D-04 -0.347431D-03  0.122224D-02  0.354918D-02
     26  0.182090D-03 -0.366148D-03 -0.236859D-03  0.260046D-02  0.901680D-03
     27 -0.489924D-03  0.203053D-03 -0.126313D-03 -0.134433D-02  0.188119D-02
     28 -0.854141D-04 -0.140659D-03 -0.157405D-04  0.338947D-04 -0.766313D-03
     29  0.822518D-03 -0.144374D-02 -0.317437D-02  0.228245D-01  0.207490D-01
     30  0.700716D-04 -0.564229D-03 -0.408250D-03 -0.280962D-02  0.297801D-02
     31 -0.593996D-04  0.237044D-02 -0.981274D-03  0.248470D-03 -0.221088D-02
     32  0.132289D-04  0.165548D-02 -0.185068D-02 -0.153440D-02  0.100722D-02
     33 -0.869486D-04  0.253135D-02 -0.349723D-02  0.780819D-02  0.417667D-02
               11            12            13            14            15 
     11  0.117736D+00
     12 -0.339270D-01  0.983131D-01
     13 -0.838098D-01 -0.643869D-01  0.148199D+00
     14  0.207665D-02 -0.174185D-01  0.153478D-01  0.288321D+00
     15  0.458234D-03  0.115353D-01 -0.119935D-01  0.278756D-02  0.761437D-01
     16 -0.375859D-02 -0.102289D-01  0.139872D-01 -0.307950D-02 -0.409817D-01
     17  0.336866D-02 -0.114364D-02 -0.222515D-02 -0.148545D-03 -0.349323D-01
     18  0.367051D-03  0.579748D-03 -0.947107D-03 -0.423841D-02  0.173705D-03
     19 -0.307891D-03 -0.390987D-03  0.699089D-03  0.346018D-02 -0.388353D-04
     20 -0.401376D-04 -0.168852D-03  0.209057D-03  0.543440D-03 -0.129704D-03
     21  0.189663D-02  0.112737D-02 -0.302174D-02  0.166301D-01  0.189345D-03
     22 -0.335513D-02 -0.336838D-02  0.672496D-02  0.493713D-01  0.000000D+00
     23 -0.557682D-02 -0.252951D-02  0.810248D-02  0.121453D-01  0.150703D-02
     24 -0.770758D-02 -0.421736D-02  0.119340D-01  0.237941D-01  0.156661D-02
     25 -0.182899D-02 -0.240588D-02  0.424341D-02  0.844548D-02 -0.419152D-03
     26 -0.786599D-03 -0.433332D-03  0.122469D-02  0.282122D-02  0.423616D-03
     27  0.477340D-03 -0.497259D-03  0.142372D-04 -0.440279D-02 -0.480263D-03
     28  0.151973D-02  0.147529D-02 -0.300448D-02 -0.100270D-01  0.362505D-03
     29 -0.909475D-02 -0.937463D-02  0.184777D-01  0.829859D-01  0.174110D-02
     30 -0.526690D-03 -0.550077D-03  0.107760D-02  0.650876D-02 -0.144323D-03
     31  0.417617D-03  0.546559D-03 -0.964790D-03 -0.859685D-02  0.570924D-03
     32 -0.156999D-03 -0.594181D-04  0.216700D-03 -0.151099D-02  0.413172D-03
     33  0.676987D-03  0.669894D-03 -0.134490D-02 -0.132098D-02  0.348490D-03
               16            17            18            19            20 
     16  0.766164D-01
     17 -0.354029D-01  0.700766D-01
     18 -0.116509D-03 -0.464085D-04  0.851463D-01
     19  0.154390D-03 -0.129741D-03 -0.426815D-01  0.115218D+00
     20 -0.407739D-04  0.175018D-03 -0.424541D-01 -0.725992D-01  0.115141D+00
     21  0.427677D-04 -0.660473D-03 -0.456273D-02  0.345918D-02  0.756679D-03
     22 -0.273594D-03  0.318491D-03 -0.347396D-02  0.269539D-02  0.584592D-03
     23 -0.100186D-02 -0.788394D-03 -0.105840D-02  0.109349D-02 -0.111689D-03
     24 -0.139379D-02 -0.103022D-02 -0.165556D-02  0.150334D-02  0.177360D-04
     25 -0.640675D-03 -0.578298D-03 -0.517627D-03  0.544180D-03 -0.692987D-04
     26  0.620548D-03 -0.113712D-03 -0.383341D-03  0.357023D-03 -0.197866D-05
     27 -0.211863D-03 -0.313008D-03  0.140785D-03  0.923114D-04 -0.212026D-03
     28  0.104936D-02  0.151577D-03  0.275071D-03 -0.948457D-04 -0.144706D-03
     29 -0.197620D-02 -0.998076D-03 -0.571647D-02  0.384417D-02  0.144542D-02
     30  0.775847D-04  0.350644D-04  0.528462D-03 -0.972167D-03 -0.536070D-03
     31 -0.214864D-03 -0.322704D-03  0.154489D-02 -0.282017D-02  0.180569D-02
     32 -0.126070D-03 -0.287958D-03 -0.760382D-03  0.565450D-04  0.192498D-03
     33  0.238423D-03 -0.104560D-02 -0.136303D-02  0.279391D-03  0.950985D-03
               21            22            23            24            25 
     21  0.780016D-01
     22  0.208308D-01  0.683390D-01
     23  0.175353D-01 -0.135261D-03  0.253694D-01
     24  0.219120D-01  0.267012D-02  0.178995D-01  0.354208D-01
     25  0.926068D-02 -0.858538D-03  0.145434D-02  0.179936D-01  0.272172D-01
     26  0.377347D-02 -0.272290D-03 -0.219684D-02  0.702119D-02  0.633809D-02
     27  0.443608D-02 -0.395152D-02  0.968893D-02 -0.132041D-02  0.898503D-02
     28 -0.105113D-02 -0.336527D-02  0.603775D-02 -0.122928D-01 -0.118940D-01
     29  0.531944D-01  0.417906D-01  0.373798D-01  0.535824D-01  0.229151D-01
     30  0.965191D-02  0.538116D-02  0.212325D-02  0.373776D-02  0.118637D-02
     31 -0.112312D-01 -0.245460D-02 -0.192272D-02 -0.311154D-02 -0.102614D-02
     32 -0.802766D-03  0.339870D-02  0.381225D-03  0.928956D-03  0.257929D-03
     33  0.149471D-01 -0.331807D-02  0.131524D-01  0.169939D-01  0.853082D-02
               26            27            28            29            30 
     26  0.181738D-01
     27 -0.382316D-02  0.211206D-01
     28  0.801254D-02  0.831239D-02  0.282190D-01
     29  0.716079D-02  0.505298D-02 -0.107013D-01  0.131893D+00
     30  0.785546D-03 -0.593428D-03 -0.994255D-03  0.118889D-01  0.274926D-01
     31 -0.620331D-03  0.284442D-03  0.690249D-03 -0.530823D-02 -0.148054D-01
     32  0.230646D-03 -0.345833D-03 -0.373117D-03  0.752815D-02  0.143371D-01
     33  0.263708D-02  0.429637D-02 -0.159737D-02  0.390312D-01  0.371607D-02
               31            32            33 
     31  0.128821D-01
     32 -0.293738D-02  0.122961D-01
     33  0.600083D-02  0.998008D-02  0.274990D-01
 Leave Link  716 at Wed Oct 16 00:37:17 2019, MaxMem=   280000000 cpu:               2.2 elap:               0.1
 (Enter /home/soft/g16/l103.exe)

 GradGradGradGradGradGradGradGradGradGradGradGradGradGradGradGradGradGrad
 Berny optimization.
 Red2BG is reusing G-inverse.
 Internal  Forces:  Max     0.011840534 RMS     0.003754714
 Search for a local minimum.
 Step number   1 out of a maximum of   43
 All quantities printed in internal units (Hartrees-Bohrs-Radians)
 RMS Force = .37547D-02 SwitMx=.10000D-02 MixMth= 1
 Mixed Optimization -- RFO/linear search
 Second derivative matrix not updated -- analytic derivatives used.
 ITU=  0
     Eigenvalues ---   -0.00151   0.00160   0.01010   0.01806   0.02609
     Eigenvalues ---    0.02655   0.03938   0.04241   0.04855   0.06963
     Eigenvalues ---    0.10340   0.10628   0.12320   0.13559   0.15930
     Eigenvalues ---    0.18639   0.22231   0.30401   0.31148   0.33621
     Eigenvalues ---    0.35714   0.36399   0.36520   0.43972   0.51262
     Eigenvalues ---    0.60725   0.86128
 Eigenvalue     1 is  -1.51D-03 should be greater than     0.000000 Eigenvector:
                          D11       D10       D9        D7        A12
   1                   -0.62739   0.46019   0.45712   0.26791  -0.25111
                          R10       D2        A11       D1        A4
   1                    0.18314  -0.07972   0.07082  -0.07000  -0.02319
 RFO step:  Lambda=-2.82466205D-03 EMin=-1.50818618D-03
 Linear search not attempted -- first point.
 Iteration  1 RMS(Cart)=  0.14271399 RMS(Int)=  0.07372955
 Iteration  2 RMS(Cart)=  0.13953459 RMS(Int)=  0.02147132
 Iteration  3 RMS(Cart)=  0.07217663 RMS(Int)=  0.00232730
 Iteration  4 RMS(Cart)=  0.00325347 RMS(Int)=  0.00007325
 Iteration  5 RMS(Cart)=  0.00000693 RMS(Int)=  0.00007311
 Iteration  6 RMS(Cart)=  0.00000000 RMS(Int)=  0.00007311
 ITry= 1 IFail=0 DXMaxC= 5.70D-01 DCOld= 1.00D+10 DXMaxT= 3.00D-01 DXLimC= 3.00D+00 Rises=F
 Variable       Old X    -DE/DX   Delta X   Delta X   Delta X     New X
                                 (Linear)    (Quad)   (Total)
    R1        2.05140   0.00008   0.00000   0.00010   0.00010   2.05150
    R2        2.55010   0.00112   0.00000   0.00950   0.00950   2.55960
    R3        2.52878   0.00066   0.00000  -0.00203  -0.00203   2.52675
    R4        1.84058  -0.00002   0.00000  -0.00691  -0.00691   1.83368
    R5        2.04652   0.00060   0.00000   0.00131   0.00131   2.04783
    R6        2.04494   0.00042   0.00000   0.00102   0.00102   2.04596
    R7        2.09094  -0.00080   0.00000  -0.00222  -0.00222   2.08872
    R8        2.08781   0.00005   0.00000   0.00027   0.00027   2.08808
    R9        2.28035   0.00258   0.00000  -0.00043  -0.00043   2.27993
   R10        3.96852   0.00471   0.00000   0.04230   0.04230   4.01082
    A1        1.92904  -0.00080   0.00000  -0.00819  -0.00820   1.92084
    A2        2.12640  -0.00092   0.00000  -0.00362  -0.00364   2.12277
    A3        2.22774   0.00172   0.00000   0.01181   0.01179   2.23954
    A4        1.94298   0.01037   0.00000   0.01715   0.01715   1.96014
    A5        2.14176  -0.00003   0.00000   0.00573   0.00562   2.14737
    A6        2.08701  -0.00009   0.00000  -0.00563  -0.00575   2.08126
    A7        2.05070   0.00010   0.00000   0.00217   0.00206   2.05276
    A8        2.02384   0.00014   0.00000   0.00966   0.00949   2.03332
    A9        2.13082  -0.00000   0.00000  -0.00761  -0.00779   2.12303
   A10        2.12782  -0.00015   0.00000  -0.00082  -0.00100   2.12682
   A11        1.93886   0.00670   0.00000  -0.04822  -0.04822   1.89064
   A12        2.22248   0.01080   0.00000   0.23036   0.23036   2.45284
    D1       -2.85763   0.00122   0.00000  -0.04741  -0.04741  -2.90504
    D2        0.28337   0.00258   0.00000  -0.03660  -0.03660   0.24677
    D3       -3.05842   0.00061   0.00000  -0.02599  -0.02599  -3.08441
    D4       -0.01182   0.00049   0.00000   0.00311   0.00311  -0.00871
    D5        0.08382  -0.00088   0.00000  -0.03791  -0.03792   0.04591
    D6        3.13042  -0.00100   0.00000  -0.00882  -0.00882   3.12161
    D7        1.09210   0.01184   0.00000  -0.09195  -0.09195   1.00014
    D8       -3.10202   0.00029   0.00000  -0.03434  -0.03446  -3.13648
    D9       -1.81380  -0.00020   0.00000  -0.35793  -0.35804  -2.17185
   D10        1.36978   0.00010   0.00000  -0.39478  -0.39467   0.97512
   D11       -0.66980   0.00299   0.00000   0.52879   0.52879  -0.14101
         Item               Value     Threshold  Converged?
 Maximum Force            0.011841     0.000450     NO 
 RMS     Force            0.003755     0.000300     NO 
 Maximum Displacement     0.569977     0.001800     NO 
 RMS     Displacement     0.265129     0.001200     NO 
 Predicted change in Energy=-2.282110D-03
 Lowest energy point so far.  Saving SCF results.
 GradGradGradGradGradGradGradGradGradGradGradGradGradGradGradGradGradGrad

 Leave Link  103 at Wed Oct 16 00:37:17 2019, MaxMem=   280000000 cpu:               4.7 elap:               0.2
 (Enter /home/soft/g16/l202.exe)
                          Input orientation:                          
 ---------------------------------------------------------------------
 Center     Atomic      Atomic             Coordinates (Angstroms)
 Number     Number       Type             X           Y           Z
 ---------------------------------------------------------------------
      1          6           0       -1.466940    0.387287    0.214551
      2          1           0       -2.217135    0.568509    0.978034
      3          8           0       -1.201537   -0.938211    0.129477
      4          6           0       -0.940432    1.385828   -0.502065
      5          1           0       -0.229146    1.226387   -1.303929
      6          1           0       -1.275629    2.399574   -0.322769
      7          6           0        1.877348    0.200670    0.421532
      8          1           0        2.361903    1.159064    0.160033
      9          1           0        1.596525    0.063197    1.481337
     10          8           0        1.671762   -0.651493   -0.407420
     11          1           0       -0.397993   -1.120804   -0.382904
 ---------------------------------------------------------------------
                    Distance matrix (angstroms):
                    1          2          3          4          5
     1  C    0.000000
     2  H    1.085606   0.000000
     3  O    1.354482   2.005416   0.000000
     4  C    1.337099   2.118649   2.422432   0.000000
     5  H    2.131198   3.097137   2.772306   1.083667   0.000000
     6  H    2.091557   2.435431   3.369099   1.082675   1.853151
     7  C    3.355880   4.148469   3.295737   3.193356   2.909747
     8  H    3.906232   4.688866   4.134924   3.375680   2.976786
     9  H    3.330856   3.879776   3.264888   3.481291   3.527576
    10  O    3.364129   4.304812   2.937058   3.314090   2.818442
    11  H    1.942664   2.831115   0.970340   2.567420   2.527074
                    6          7          8          9         10
     6  H    0.000000
     7  C    3.915410   0.000000
     8  H    3.873449   1.105302   0.000000
     9  H    4.118583   1.104965   1.879513   0.000000
    10  O    4.243029   1.206486   2.019013   2.020853   0.000000
    11  H    3.628626   2.751470   3.620719   2.975795   2.122437
                   11
    11  H    0.000000
 Stoichiometry    C3H6O2
 Framework group  C1[X(C3H6O2)]
 Deg. of freedom    27
 Full point group                 C1      NOp   1
 RotChk:  IX=0 Diff= 1.50D-01
 Largest Abelian subgroup         C1      NOp   1
 Largest concise Abelian subgroup C1      NOp   1
                         Standard orientation:                         
 ---------------------------------------------------------------------
 Center     Atomic      Atomic             Coordinates (Angstroms)
 Number     Number       Type             X           Y           Z
 ---------------------------------------------------------------------
      1          6           0       -1.504472    0.006728    0.256027
      2          1           0       -2.265495   -0.046890    1.028366
      3          8           0       -1.013636   -1.229649    0.000932
      4          6           0       -1.168322    1.166745   -0.317730
      5          1           0       -0.449862    1.239878   -1.125691
      6          1           0       -1.672530    2.074371   -0.010848
      7          6           0        1.823556    0.379334    0.473579
      8          1           0        2.130861    1.433276    0.345266
      9          1           0        1.583713    0.057531    1.503076
     10          8           0        1.759330   -0.379606   -0.462099
     11          1           0       -0.196815   -1.200967   -0.522080
 ---------------------------------------------------------------------
 Rotational constants (GHZ):           7.5559353           2.8421116           2.3126242
 Leave Link  202 at Wed Oct 16 00:37:17 2019, MaxMem=   280000000 cpu:               0.7 elap:               0.1
 (Enter /home/soft/g16/l301.exe)
 Standard basis: 6-311+G(d) (5D, 7F)
 Ernie: Thresh=  0.10000D-02 Tol=  0.10000D-05 Strict=F.
 There are   133 symmetry adapted cartesian basis functions of A   symmetry.
 There are   128 symmetry adapted basis functions of A   symmetry.
   128 basis functions,   210 primitive gaussians,   133 cartesian basis functions
    20 alpha electrons       20 beta electrons
       nuclear repulsion energy       163.8962312485 Hartrees.
 IExCor=  402 DFT=T Ex+Corr=B3LYP ExCW=0 ScaHFX=  0.200000
 ScaDFX=  0.800000  0.720000  1.000000  0.810000 ScalE2=  1.000000  1.000000
 IRadAn=      5 IRanWt=     -1 IRanGd=            0 ICorTp=0 IEmpDi=  4
 NAtoms=   11 NActive=   11 NUniq=   11 SFac= 1.00D+00 NAtFMM=   60 NAOKFM=F Big=F
 Integral buffers will be    131072 words long.
 Raffenetti 2 integral format.
 Two-electron integral symmetry is turned on.
 Leave Link  301 at Wed Oct 16 00:37:17 2019, MaxMem=   280000000 cpu:               1.2 elap:               0.1
 (Enter /home/soft/g16/l302.exe)
 NPDir=0 NMtPBC=     1 NCelOv=     1 NCel=       1 NClECP=     1 NCelD=      1
         NCelK=      1 NCelE2=     1 NClLst=     1 CellRange=     0.0.
 One-electron integrals computed using PRISM.
 One-electron integral symmetry used in STVInt
 NBasis=   128 RedAO= T EigKep=  8.69D-05  NBF=   128
 NBsUse=   128 1.00D-06 EigRej= -1.00D+00 NBFU=   128
 Precomputing XC quadrature grid using
 IXCGrd= 4 IRadAn=           5 IRanWt=          -1 IRanGd=           0 AccXCQ= 0.00D+00.
 Generated NRdTot=       0 NPtTot=           0 NUsed=           0 NTot=          32
 NSgBfM=   133   133   133   133   133 MxSgAt=    11 MxSgA2=    11.
 Leave Link  302 at Wed Oct 16 00:37:18 2019, MaxMem=   280000000 cpu:               3.5 elap:               0.2
 (Enter /home/soft/g16/l303.exe)
 DipDrv:  MaxL=1.
 Leave Link  303 at Wed Oct 16 00:37:18 2019, MaxMem=   280000000 cpu:               0.6 elap:               0.0
 (Enter /home/soft/g16/l401.exe)
 Initial guess from the checkpoint file:  "irc32r3.chk"
 B after Tr=     0.000000   -0.000000    0.000000
         Rot=    0.999005   -0.041939   -0.001002   -0.015157 Ang=  -5.11 deg.
 Guess basis will be translated and rotated to current coordinates.
 JPrj=2 DoOrth=T DoCkMO=T.
 Generating alternative initial guess.
 ExpMin= 4.38D-02 ExpMax= 8.59D+03 ExpMxC= 1.30D+03 IAcc=2 IRadAn=         4 AccDes= 0.00D+00
 Harris functional with IExCor=  402 and IRadAn=       4 diagonalized for initial guess.
 HarFok:  IExCor=  402 AccDes= 0.00D+00 IRadAn=         4 IDoV= 1 UseB2=F ITyADJ=14
 ICtDFT=  3500011 ScaDFX=  1.000000  1.000000  1.000000  1.000000
 FoFCou: FMM=F IPFlag=           0 FMFlag=      100000 FMFlg1=           0
         NFxFlg=           0 DoJE=T BraDBF=F KetDBF=T FulRan=T
         wScrn=  0.000000 ICntrl=       500 IOpCl=  0 I1Cent=   200000004 NGrid=           0
         NMat0=    1 NMatS0=      1 NMatT0=    0 NMatD0=    1 NMtDS0=    0 NMtDT0=    0
 Petite list used in FoFCou.
 Harris En= -268.437252546186    
 Leave Link  401 at Wed Oct 16 00:37:18 2019, MaxMem=   280000000 cpu:               5.6 elap:               0.3
 (Enter /home/soft/g16/l502.exe)
 Keep R1 ints in memory in canonical form, NReq=57089831.
 FoFCou: FMM=F IPFlag=           0 FMFlag=           0 FMFlg1=           0
         NFxFlg=           0 DoJE=F BraDBF=F KetDBF=F FulRan=T
         wScrn=  0.000000 ICntrl=       600 IOpCl=  0 I1Cent=           0 NGrid=           0
         NMat0=    1 NMatS0=   8256 NMatT0=    0 NMatD0=    1 NMtDS0=    0 NMtDT0=    0
 Symmetry not used in FoFCou.
 Two-electron integral symmetry not used.
 Closed shell SCF:
 Using DIIS extrapolation, IDIIS=  1040.
 NGot=   280000000 LenX=   245875069 LenY=   245856939
 Requested convergence on RMS density matrix=1.00D-08 within 128 cycles.
 Requested convergence on MAX density matrix=1.00D-06.
 Requested convergence on             energy=1.00D-06.
 No special actions if energy rises.

 Cycle   1  Pass 1  IDiag  1:
 E= -268.314662722749    
 DIIS: error= 1.79D-02 at cycle   1 NSaved=   1.
 NSaved= 1 IEnMin= 1 EnMin= -268.314662722749     IErMin= 1 ErrMin= 1.79D-02
 ErrMax= 1.79D-02  0.00D+00 EMaxC= 1.00D-01 BMatC= 4.84D-02 BMatP= 4.84D-02
 IDIUse=3 WtCom= 8.21D-01 WtEn= 1.79D-01
 Coeff-Com:  0.100D+01
 Coeff-En:   0.100D+01
 Coeff:      0.100D+01
 Recover alternate guess density for next cycle.
 RMSDP=3.90D-03 MaxDP=6.72D-02              OVMax= 0.00D+00

 Cycle   2  Pass 1  IDiag  1:
 E= -268.232771209467     Delta-E=        0.081891513282 Rises=F Damp=F
 Switch densities from cycles 1 and 2 for lowest energy.
 DIIS: error= 3.19D-02 at cycle   2 NSaved=   2.
 NSaved= 2 IEnMin= 1 EnMin= -268.314662722749     IErMin= 1 ErrMin= 1.79D-02
 ErrMax= 3.19D-02  0.00D+00 EMaxC= 1.00D+00 BMatC= 2.09D-01 BMatP= 4.84D-02
 IDIUse=1 WtCom= 1.00D+00 WtEn= 0.00D+00
 Coeff-Com:  0.827D+00 0.173D+00
 Coeff:      0.827D+00 0.173D+00
 Gap=     0.157 Goal=   None    Shift=    0.000
 RMSDP=2.75D-03 MaxDP=3.66D-02 DE= 8.19D-02 OVMax= 1.31D-01

 Cycle   3  Pass 1  IDiag  1:
 E= -268.382236230141     Delta-E=       -0.149465020674 Rises=F Damp=F
 DIIS: error= 1.28D-02 at cycle   3 NSaved=   3.
 NSaved= 3 IEnMin= 3 EnMin= -268.382236230141     IErMin= 3 ErrMin= 1.28D-02
 ErrMax= 1.28D-02  0.00D+00 EMaxC= 1.00D+00 BMatC= 1.87D-02 BMatP= 4.84D-02
 IDIUse=1 WtCom= 1.00D+00 WtEn= 0.00D+00
 Coeff-Com:  0.225D-01 0.212D+00 0.766D+00
 Coeff:      0.225D-01 0.212D+00 0.766D+00
 Gap=     0.167 Goal=   None    Shift=    0.000
 RMSDP=9.55D-04 MaxDP=1.94D-02 DE=-1.49D-01 OVMax= 6.08D-02

 Cycle   4  Pass 1  IDiag  1:
 E= -268.391589010677     Delta-E=       -0.009352780536 Rises=F Damp=F
 DIIS: error= 1.15D-02 at cycle   4 NSaved=   4.
 NSaved= 4 IEnMin= 4 EnMin= -268.391589010677     IErMin= 4 ErrMin= 1.15D-02
 ErrMax= 1.15D-02  0.00D+00 EMaxC= 1.00D+00 BMatC= 6.56D-03 BMatP= 1.87D-02
 IDIUse=1 WtCom= 1.00D+00 WtEn= 0.00D+00
 Coeff-Com: -0.259D-01 0.107D+00 0.497D+00 0.422D+00
 Coeff:     -0.259D-01 0.107D+00 0.497D+00 0.422D+00
 Gap=     0.174 Goal=   None    Shift=    0.000
 RMSDP=4.22D-04 MaxDP=9.10D-03 DE=-9.35D-03 OVMax= 2.89D-02

 Cycle   5  Pass 1  IDiag  1:
 E= -268.396485034557     Delta-E=       -0.004896023880 Rises=F Damp=F
 DIIS: error= 1.32D-03 at cycle   5 NSaved=   5.
 NSaved= 5 IEnMin= 5 EnMin= -268.396485034557     IErMin= 5 ErrMin= 1.32D-03
 ErrMax= 1.32D-03  0.00D+00 EMaxC= 1.00D+00 BMatC= 2.21D-04 BMatP= 6.56D-03
 IDIUse=1 WtCom= 1.00D+00 WtEn= 0.00D+00
 Coeff-Com: -0.101D-01 0.191D-01 0.134D+00 0.197D+00 0.659D+00
 Coeff:     -0.101D-01 0.191D-01 0.134D+00 0.197D+00 0.659D+00
 Gap=     0.172 Goal=   None    Shift=    0.000
 RMSDP=9.82D-05 MaxDP=2.10D-03 DE=-4.90D-03 OVMax= 5.71D-03

 Cycle   6  Pass 1  IDiag  1:
 E= -268.396638762008     Delta-E=       -0.000153727451 Rises=F Damp=F
 DIIS: error= 4.55D-04 at cycle   6 NSaved=   6.
 NSaved= 6 IEnMin= 6 EnMin= -268.396638762008     IErMin= 6 ErrMin= 4.55D-04
 ErrMax= 4.55D-04  0.00D+00 EMaxC= 1.00D+00 BMatC= 3.58D-05 BMatP= 2.21D-04
 IDIUse=1 WtCom= 1.00D+00 WtEn= 0.00D+00
 Coeff-Com: -0.334D-02 0.268D-02 0.380D-01 0.822D-01 0.375D+00 0.505D+00
 Coeff:     -0.334D-02 0.268D-02 0.380D-01 0.822D-01 0.375D+00 0.505D+00
 Gap=     0.172 Goal=   None    Shift=    0.000
 RMSDP=3.58D-05 MaxDP=1.15D-03 DE=-1.54D-04 OVMax= 2.17D-03

 Cycle   7  Pass 1  IDiag  1:
 E= -268.396669543064     Delta-E=       -0.000030781056 Rises=F Damp=F
 DIIS: error= 9.71D-05 at cycle   7 NSaved=   7.
 NSaved= 7 IEnMin= 7 EnMin= -268.396669543064     IErMin= 7 ErrMin= 9.71D-05
 ErrMax= 9.71D-05  0.00D+00 EMaxC= 1.00D+00 BMatC= 1.29D-06 BMatP= 3.58D-05
 IDIUse=1 WtCom= 1.00D+00 WtEn= 0.00D+00
 Coeff-Com: -0.494D-03-0.668D-03 0.282D-02 0.178D-01 0.972D-01 0.209D+00
 Coeff-Com:  0.675D+00
 Coeff:     -0.494D-03-0.668D-03 0.282D-02 0.178D-01 0.972D-01 0.209D+00
 Coeff:      0.675D+00
 Gap=     0.172 Goal=   None    Shift=    0.000
 RMSDP=1.03D-05 MaxDP=2.18D-04 DE=-3.08D-05 OVMax= 5.73D-04

 Cycle   8  Pass 1  IDiag  1:
 E= -268.396670749014     Delta-E=       -0.000001205950 Rises=F Damp=F
 DIIS: error= 4.31D-05 at cycle   8 NSaved=   8.
 NSaved= 8 IEnMin= 8 EnMin= -268.396670749014     IErMin= 8 ErrMin= 4.31D-05
 ErrMax= 4.31D-05  0.00D+00 EMaxC= 1.00D+00 BMatC= 1.58D-07 BMatP= 1.29D-06
 IDIUse=1 WtCom= 1.00D+00 WtEn= 0.00D+00
 Coeff-Com: -0.732D-04-0.467D-03-0.139D-02 0.270D-02 0.194D-01 0.641D-01
 Coeff-Com:  0.322D+00 0.593D+00
 Coeff:     -0.732D-04-0.467D-03-0.139D-02 0.270D-02 0.194D-01 0.641D-01
 Coeff:      0.322D+00 0.593D+00
 Gap=     0.172 Goal=   None    Shift=    0.000
 RMSDP=4.05D-06 MaxDP=5.10D-05 DE=-1.21D-06 OVMax= 2.58D-04

 Cycle   9  Pass 1  IDiag  1:
 E= -268.396670886164     Delta-E=       -0.000000137150 Rises=F Damp=F
 DIIS: error= 2.34D-05 at cycle   9 NSaved=   9.
 NSaved= 9 IEnMin= 9 EnMin= -268.396670886164     IErMin= 9 ErrMin= 2.34D-05
 ErrMax= 2.34D-05  0.00D+00 EMaxC= 1.00D+00 BMatC= 4.63D-08 BMatP= 1.58D-07
 IDIUse=1 WtCom= 1.00D+00 WtEn= 0.00D+00
 Coeff-Com:  0.661D-04-0.164D-03-0.151D-02-0.193D-02-0.712D-02-0.193D-02
 Coeff-Com:  0.643D-01 0.370D+00 0.579D+00
 Coeff:      0.661D-04-0.164D-03-0.151D-02-0.193D-02-0.712D-02-0.193D-02
 Coeff:      0.643D-01 0.370D+00 0.579D+00
 Gap=     0.172 Goal=   None    Shift=    0.000
 RMSDP=1.78D-06 MaxDP=2.57D-05 DE=-1.37D-07 OVMax= 1.13D-04

 Cycle  10  Pass 1  IDiag  1:
 E= -268.396670929322     Delta-E=       -0.000000043158 Rises=F Damp=F
 DIIS: error= 7.29D-06 at cycle  10 NSaved=  10.
 NSaved=10 IEnMin=10 EnMin= -268.396670929322     IErMin=10 ErrMin= 7.29D-06
 ErrMax= 7.29D-06  0.00D+00 EMaxC= 1.00D+00 BMatC= 4.54D-09 BMatP= 4.63D-08
 IDIUse=1 WtCom= 1.00D+00 WtEn= 0.00D+00
 Coeff-Com:  0.490D-04-0.583D-05-0.553D-03-0.145D-02-0.696D-02-0.115D-01
 Coeff-Com: -0.198D-01 0.909D-01 0.296D+00 0.653D+00
 Coeff:      0.490D-04-0.583D-05-0.553D-03-0.145D-02-0.696D-02-0.115D-01
 Coeff:     -0.198D-01 0.909D-01 0.296D+00 0.653D+00
 Gap=     0.172 Goal=   None    Shift=    0.000
 RMSDP=5.80D-07 MaxDP=1.26D-05 DE=-4.32D-08 OVMax= 4.86D-05

 Cycle  11  Pass 1  IDiag  1:
 E= -268.396670934528     Delta-E=       -0.000000005206 Rises=F Damp=F
 DIIS: error= 1.01D-06 at cycle  11 NSaved=  11.
 NSaved=11 IEnMin=11 EnMin= -268.396670934528     IErMin=11 ErrMin= 1.01D-06
 ErrMax= 1.01D-06  0.00D+00 EMaxC= 1.00D+00 BMatC= 1.53D-10 BMatP= 4.54D-09
 IDIUse=1 WtCom= 1.00D+00 WtEn= 0.00D+00
 Coeff-Com:  0.772D-05 0.133D-04-0.223D-04-0.258D-03-0.145D-02-0.319D-02
 Coeff-Com: -0.102D-01-0.477D-02 0.327D-01 0.188D+00 0.799D+00
 Coeff:      0.772D-05 0.133D-04-0.223D-04-0.258D-03-0.145D-02-0.319D-02
 Coeff:     -0.102D-01-0.477D-02 0.327D-01 0.188D+00 0.799D+00
 Gap=     0.172 Goal=   None    Shift=    0.000
 RMSDP=1.64D-07 MaxDP=2.40D-06 DE=-5.21D-09 OVMax= 1.53D-05

 Cycle  12  Pass 1  IDiag  1:
[...]
 ITU=  1 -1  1  1  1  1  1  1  1  1  1  1  1  1
     Eigenvalues ---    0.00001   0.00077   0.00297   0.00435   0.00894
     Eigenvalues ---    0.00993   0.01940   0.02618   0.02838   0.04339
     Eigenvalues ---    0.04518   0.10173   0.10510   0.12447   0.13605
     Eigenvalues ---    0.15536   0.18798   0.21480   0.30506   0.31219
     Eigenvalues ---    0.35688   0.36041   0.36521   0.43477   0.51302
     Eigenvalues ---    0.61707   0.85648
 Eigenvalue     1 is   9.33D-06 Eigenvector:
                          D7        D11       A11       D10       D9
   1                    0.99499   0.08384  -0.03238   0.02154   0.02120
                          A12       D1        D2        D5        D3
   1                   -0.01927  -0.01601  -0.01593  -0.00667  -0.00659
 En-DIIS/RFO-DIIS/Sim-DIIS IScMMF=       -3 using points:    43   42   41
 RFO step:  Lambda=-9.99473493D-08.
 NNeg= 0 NGDIIS= 3 SimSw=  2.50D-03 Rises=F DC= -1.58D-06 SmlDif=  1.00D-05
 NRisDI= 0 DoIntr=F SqrtH=F CThrHd= 10.0 CDAdj=  3.0
 RMS Error=  0.4904630399D-02 NUsed= 3 OKEnD=F EnDIS=F
 InvSVX:  RCond= 2.53D-06 Info=           0 Equed=N FErr=  1.30D-13 BErr=  0.00D+00
 Old DIIS coefficients:      6.93723     -0.75381     -5.18342
 DidBck=F Rises=F RFO-DIIS coefs:    3.00000   -0.30919   -1.69081
 Iteration  1 RMS(Cart)=  0.07202367 RMS(Int)=  0.00256929
 Iteration  2 RMS(Cart)=  0.00500178 RMS(Int)=  0.00000470
 Iteration  3 RMS(Cart)=  0.00000705 RMS(Int)=  0.00000008
 Iteration  4 RMS(Cart)=  0.00000000 RMS(Int)=  0.00000008
 ITry= 1 IFail=0 DXMaxC= 1.90D-01 DCOld= 1.00D+10 DXMaxT= 4.66D-01 DXLimC= 3.00D+00 Rises=F
 Variable       Old X    -DE/DX   Delta X   Delta X   Delta X     New X
                                 (Linear)    (Quad)   (Total)
    R1        2.05084   0.00000  -0.00003   0.00001  -0.00002   2.05082
    R2        2.56437   0.00000   0.00003  -0.00002   0.00001   2.56437
    R3        2.52050  -0.00001  -0.00002  -0.00010  -0.00012   2.52038
    R4        1.84028   0.00001  -0.00006   0.00001  -0.00005   1.84024
    R5        2.05171   0.00001  -0.00006   0.00019   0.00013   2.05183
    R6        2.04541  -0.00000   0.00001  -0.00002  -0.00002   2.04540
    R7        2.08740   0.00001  -0.00003   0.00009   0.00006   2.08746
    R8        2.08785  -0.00000   0.00006  -0.00008  -0.00001   2.08783
    R9        2.27916  -0.00001  -0.00004  -0.00001  -0.00005   2.27911
   R10        3.65855  -0.00000  -0.00082   0.00082   0.00000   3.65855
    A1        1.92754   0.00002  -0.00033   0.00051   0.00017   1.92771
    A2        2.13409   0.00000   0.00016   0.00002   0.00018   2.13427
    A3        2.22156  -0.00002   0.00018  -0.00053  -0.00035   2.22120
    A4        1.94434   0.00003  -0.00051   0.00131   0.00080   1.94514
    A5        2.13764  -0.00000  -0.00000  -0.00015  -0.00016   2.13748
    A6        2.09252   0.00001  -0.00024   0.00056   0.00032   2.09284
    A7        2.05302  -0.00001   0.00025  -0.00040  -0.00016   2.05286
    A8        2.04298   0.00000  -0.00019   0.00019   0.00000   2.04298
    A9        2.11580  -0.00001   0.00017  -0.00028  -0.00011   2.11570
   A10        2.12440   0.00001   0.00002   0.00009   0.00011   2.12451
   A11        2.03704   0.00000   0.00612  -0.00194   0.00418   2.04122
   A12        2.80813  -0.00000   0.00240   0.00021   0.00261   2.81074
    D1        3.13804  -0.00000   0.00108   0.00146   0.00254   3.14059
    D2       -0.00374   0.00000   0.00069   0.00207   0.00276  -0.00098
    D3        3.14037   0.00000   0.00050   0.00062   0.00112   3.14149
    D4        0.00014   0.00000  -0.00034   0.00048   0.00014   0.00029
    D5       -0.00101  -0.00000   0.00093  -0.00005   0.00088  -0.00013
    D6       -3.14124  -0.00000   0.00010  -0.00020  -0.00010  -3.14134
    D7       -2.95142  -0.00000  -0.11066  -0.02091  -0.13157  -3.08299
    D8       -3.14153  -0.00000  -0.00008   0.00004  -0.00004  -3.14156
    D9       -3.13938  -0.00000  -0.00247  -0.00158  -0.00405   3.13975
   D10        0.00228  -0.00000  -0.00256  -0.00153  -0.00409  -0.00181
   D11        0.01216  -0.00000  -0.00946  -0.00427  -0.01373  -0.00157
         Item               Value     Threshold  Converged?
 Maximum Force            0.000030     0.000450     YES
 RMS     Force            0.000008     0.000300     YES
 Maximum Displacement     0.189657     0.001800     NO 
 RMS     Displacement     0.072551     0.001200     NO 
 Predicted change in Energy=-2.868661D-07
 Optimization stopped.
    -- Number of steps exceeded,  NStep=  43
    -- Flag reset to prevent archiving.
                           ----------------------------
                           ! Non-Optimized Parameters !
                           ! (Angstroms and Degrees)  !
 --------------------------                            --------------------------
 ! Name  Definition              Value          Derivative Info.                !
 --------------------------------------------------------------------------------
 ! R1    R(1,2)                  1.0852         -DE/DX =    0.0                 !
 ! R2    R(1,3)                  1.357          -DE/DX =    0.0                 !
 ! R3    R(1,4)                  1.3337         -DE/DX =    0.0                 !
 ! R4    R(3,11)                 0.9738         -DE/DX =    0.0                 !
 ! R5    R(4,5)                  1.0858         -DE/DX =    0.0                 !
 ! R6    R(4,6)                  1.0824         -DE/DX =    0.0                 !
 ! R7    R(7,8)                  1.1046         -DE/DX =    0.0                 !
 ! R8    R(7,9)                  1.1048         -DE/DX =    0.0                 !
 ! R9    R(7,10)                 1.2061         -DE/DX =    0.0                 !
 ! R10   R(10,11)                1.936          -DE/DX =    0.0                 !
 ! A1    A(2,1,3)              110.4497         -DE/DX =    0.0                 !
 ! A2    A(2,1,4)              122.2848         -DE/DX =    0.0                 !
 ! A3    A(3,1,4)              127.2655         -DE/DX =    0.0                 !
 ! A4    A(1,3,11)             111.4481         -DE/DX =    0.0                 !
 ! A5    A(1,4,5)              122.4687         -DE/DX =    0.0                 !
 ! A6    A(1,4,6)              119.9109         -DE/DX =    0.0                 !
 ! A7    A(5,4,6)              117.6203         -DE/DX =    0.0                 !
 ! A8    A(8,7,9)              117.0543         -DE/DX =    0.0                 !
 ! A9    A(8,7,10)             121.2205         -DE/DX =    0.0                 !
 ! A10   A(9,7,10)             121.7252         -DE/DX =    0.0                 !
 ! A11   A(7,10,11)            116.9536         -DE/DX =    0.0                 !
 ! A12   A(3,11,10)            161.0435         -DE/DX =    0.0                 !
 ! D1    D(2,1,3,11)           179.9424         -DE/DX =    0.0                 !
 ! D2    D(4,1,3,11)            -0.056          -DE/DX =    0.0                 !
 ! D3    D(2,1,4,5)            179.9941         -DE/DX =    0.0                 !
 ! D4    D(2,1,4,6)              0.0163         -DE/DX =    0.0                 !
 ! D5    D(3,1,4,5)             -0.0077         -DE/DX =    0.0                 !
 ! D6    D(3,1,4,6)           -179.9854         -DE/DX =    0.0                 !
 ! D7    D(1,3,11,10)         -176.6424         -DE/DX =    0.0                 !
 ! D8    D(8,7,9,10)          -179.9984         -DE/DX =    0.0                 !
 ! D9    D(8,7,10,11)          179.8947         -DE/DX =    0.0                 !
 ! D10   D(9,7,10,11)           -0.1036         -DE/DX =    0.0                 !
 ! D11   D(7,10,11,3)           -0.0901         -DE/DX =    0.0                 !
 --------------------------------------------------------------------------------
 Lowest energy point so far.  Saving SCF results.
 Largest change from initial coordinates is atom    9       1.279 Angstoms.
 GradGradGradGradGradGradGradGradGradGradGradGradGradGradGradGradGradGrad

 Leave Link  103 at Wed Oct 16 00:40:16 2019, MaxMem=   280000000 cpu:               0.9 elap:               0.1
 (Enter /home/soft/g16/l202.exe)
                          Input orientation:                          
 ---------------------------------------------------------------------
 Center     Atomic      Atomic             Coordinates (Angstroms)
 Number     Number       Type             X           Y           Z
 ---------------------------------------------------------------------
      1          6           0       -1.860463    0.442430    0.057020
      2          1           0       -2.782870   -0.031693    0.376631
      3          8           0       -0.792065   -0.160111    0.637482
      4          6           0       -1.845446    1.471697   -0.791140
      5          1           0       -0.924737    1.949184   -1.112201
      6          1           0       -2.776027    1.860518   -1.184073
      7          6           0        2.686221   -0.285948    0.536374
      8          1           0        3.781487   -0.189135    0.430684
      9          1           0        2.309316   -1.181675    1.062006
     10          8           0        1.939032    0.551930    0.095583
     11          1           0        0.044277    0.252812    0.357513
 ---------------------------------------------------------------------
                    Distance matrix (angstroms):
                    1          2          3          4          5
     1  C    0.000000
     2  H    1.085255   0.000000
     3  O    1.357006   2.011924   0.000000
     4  C    1.333789   2.121941   2.411093   0.000000
     5  H    2.124375   3.097282   2.743741   1.085716   0.000000
     6  H    2.095124   2.452817   3.367062   1.082386   1.854805
     7  C    4.629541   5.477328   3.482030   5.038613   4.555506
     8  H    5.689473   6.566468   4.578317   5.992796   5.394576
     9  H    4.586367   5.265221   3.292777   5.266553   4.998855
    10  O    3.801268   4.766127   2.873943   3.994312   3.407673
    11  H    1.937598   2.841491   0.973836   2.525102   2.444735
                    6          7          8          9         10
     6  H    0.000000
     7  C    6.115833   0.000000
     8  H    7.057586   1.104604   0.000000
     9  H    6.337233   1.104841   1.884407   0.000000
    10  O    5.057836   1.206079   2.013979   2.019026   0.000000
    11  H    3.593790   2.702244   3.763962   2.772086   1.936020
                   11
    11  H    0.000000
 Stoichiometry    C3H6O2
 Framework group  C1[X(C3H6O2)]
 Deg. of freedom    27
 Full point group                 C1      NOp   1
 RotChk:  IX=2 Diff= 6.12D-16
 Largest Abelian subgroup         C1      NOp   1
 Largest concise Abelian subgroup C1      NOp   1
                         Standard orientation:                         
 ---------------------------------------------------------------------
 Center     Atomic      Atomic             Coordinates (Angstroms)
 Number     Number       Type             X           Y           Z
 ---------------------------------------------------------------------
      1          6           0       -1.884325   -0.416054   -0.019021
      2          1           0       -2.630821   -1.202340   -0.066747
      3          8           0       -0.639213   -0.949143    0.064500
      4          6           0       -2.209602    0.877239   -0.043087
      5          1           0       -1.465652    1.666511    0.005590
      6          1           0       -3.249114    1.170835   -0.112189
      7          6           0        2.733790   -0.096959   -0.080993
      8          1           0        3.756875    0.319086   -0.099793
      9          1           0        2.631917   -1.187268   -0.227698
     10          8           0        1.773592    0.611992    0.092317
     11          1           0        0.042584   -0.254970    0.104915
 ---------------------------------------------------------------------
 Rotational constants (GHZ):          12.8450442           1.7475039           1.5419452
 Leave Link  202 at Wed Oct 16 00:40:16 2019, MaxMem=   280000000 cpu:               0.7 elap:               0.1
 (Enter /home/soft/g16/l601.exe)
 Copying SCF densities to generalized density rwf, IOpCl= 0 IROHF=0.

 **********************************************************************

            Population analysis using the SCF density.

 **********************************************************************

 Orbital symmetries:
       Occupied  (A) (A) (A) (A) (A) (A) (A) (A) (A) (A) (A) (A)
                 (A) (A) (A) (A) (A) (A) (A) (A)
       Virtual   (A) (A) (A) (A) (A) (A) (A) (A) (A) (A) (A) (A)
                 (A) (A) (A) (A) (A) (A) (A) (A) (A) (A) (A) (A)
                 (A) (A) (A) (A) (A) (A) (A) (A) (A) (A) (A) (A)
                 (A) (A) (A) (A) (A) (A) (A) (A) (A) (A) (A) (A)
                 (A) (A) (A) (A) (A) (A) (A) (A) (A) (A) (A) (A)
                 (A) (A) (A) (A) (A) (A) (A) (A) (A) (A) (A) (A)
                 (A) (A) (A) (A) (A) (A) (A) (A) (A) (A) (A) (A)
                 (A) (A) (A) (A) (A) (A) (A) (A) (A) (A) (A) (A)
                 (A) (A) (A) (A) (A) (A) (A) (A) (A) (A) (A) (A)
 The electronic state is 1-A.
 Alpha  occ. eigenvalues --  -19.17645 -19.13731 -10.30135 -10.21945 -10.14485
 Alpha  occ. eigenvalues --   -1.10202  -1.04906  -0.74261  -0.66801  -0.61476
 Alpha  occ. eigenvalues --   -0.53271  -0.49874  -0.48442  -0.47253  -0.43792
 Alpha  occ. eigenvalues --   -0.38147  -0.37856  -0.35817  -0.30790  -0.22675
 Alpha virt. eigenvalues --   -0.08496  -0.00031   0.02064   0.02496   0.02998
 Alpha virt. eigenvalues --    0.04087   0.04750   0.05419   0.08006   0.08409
 Alpha virt. eigenvalues --    0.09309   0.10178   0.11516   0.12804   0.13494
 Alpha virt. eigenvalues --    0.16260   0.17948   0.19227   0.19649   0.20180
 Alpha virt. eigenvalues --    0.22558   0.23235   0.24741   0.25461   0.26732
 Alpha virt. eigenvalues --    0.28685   0.30666   0.32989   0.35559   0.37257
 Alpha virt. eigenvalues --    0.38645   0.44722   0.47422   0.49124   0.49912
 Alpha virt. eigenvalues --    0.50691   0.54235   0.55612   0.60849   0.63203
 Alpha virt. eigenvalues --    0.63921   0.65340   0.66548   0.72200   0.75454
 Alpha virt. eigenvalues --    0.79885   0.85604   0.88136   0.92824   1.01554
 Alpha virt. eigenvalues --    1.03939   1.05742   1.06740   1.12762   1.16985
 Alpha virt. eigenvalues --    1.19430   1.21528   1.21881   1.33341   1.40057
 Alpha virt. eigenvalues --    1.44035   1.48634   1.49386   1.51987   1.53164
 Alpha virt. eigenvalues --    1.62101   1.76478   1.77006   1.90198   1.94658
 Alpha virt. eigenvalues --    2.03780   2.19635   2.29845   2.32479   2.38863
 Alpha virt. eigenvalues --    2.41865   2.49072   2.57773   2.64669   2.66711
 Alpha virt. eigenvalues --    2.76763   2.80017   2.88109   2.89457   3.02801
 Alpha virt. eigenvalues --    3.09338   3.16217   3.17311   3.18794   3.27187
 Alpha virt. eigenvalues --    3.27988   3.28679   3.33146   3.38828   3.58568
 Alpha virt. eigenvalues --    3.73408   4.01309   4.93682   4.98089   5.05343
 Alpha virt. eigenvalues --    5.14860   5.54966   5.58086  23.41665  23.67367
 Alpha virt. eigenvalues --   24.19258  49.84420  49.87206
          Condensed to atoms (all electrons):
               1          2          3          4          5          6
     1  C    5.137842   0.407167   0.253368   0.426122   0.005580  -0.008221
     2  H    0.407167   0.481554  -0.071143  -0.044685   0.004503  -0.004077
     3  O    0.253368  -0.071143   8.156549  -0.107915  -0.017979   0.007919
     4  C    0.426122  -0.044685  -0.107915   5.494369   0.352572   0.360374
     5  H    0.005580   0.004503  -0.017979   0.352572   0.459142  -0.026974
     6  H   -0.008221  -0.004077   0.007919   0.360374  -0.026974   0.452058
     7  C    0.005692   0.000336  -0.003908  -0.007245   0.000730   0.000094
     8  H   -0.000099  -0.000001   0.001422   0.000291  -0.000006   0.000000
     9  H    0.001153   0.000007  -0.004304  -0.001528   0.000015  -0.000000
    10  O   -0.011416  -0.000456   0.012181   0.018029  -0.000392   0.000089
    11  H    0.038419   0.011367   0.181231  -0.072320   0.008623   0.000765
               7          8          9         10         11
     1  C    0.005692  -0.000099   0.001153  -0.011416   0.038419
     2  H    0.000336  -0.000001   0.000007  -0.000456   0.011367
     3  O   -0.003908   0.001422  -0.004304   0.012181   0.181231
     4  C   -0.007245   0.000291  -0.001528   0.018029  -0.072320
     5  H    0.000730  -0.000006   0.000015  -0.000392   0.008623
     6  H    0.000094   0.000000  -0.000000   0.000089   0.000765
     7  C    5.117796   0.369372   0.383900   0.311990   0.009947
     8  H    0.369372   0.560432  -0.078804  -0.064882  -0.001425
     9  H    0.383900  -0.078804   0.550468  -0.077144   0.006399
    10  O    0.311990  -0.064882  -0.077144   8.046349  -0.015120
    11  H    0.009947  -0.001425   0.006399  -0.015120   0.424217
 Mulliken charges:
               1
     1  C   -0.255607
     2  H    0.215429
     3  O   -0.407421
     4  C   -0.418063
     5  H    0.214187
     6  H    0.217973
     7  C   -0.188704
     8  H    0.213699
     9  H    0.219838
    10  O   -0.219228
    11  H    0.407897
 Sum of Mulliken charges =  -0.00000
 Mulliken charges with hydrogens summed into heavy atoms:
               1
     1  C   -0.040178
     3  O    0.000476
     4  C    0.014097
     7  C    0.244834
    10  O   -0.219228
 Electronic spatial extent (au):  <R**2>=            733.7627
 Charge=             -0.0000 electrons
 Dipole moment (field-independent basis, Debye):
    X=              3.2548    Y=             -0.3422    Z=             -0.3599  Tot=              3.2925
 Quadrupole moment (field-independent basis, Debye-Ang):
   XX=            -18.4317   YY=            -32.8516   ZZ=            -33.2635
   XY=             -1.9550   XZ=             -0.5381   YZ=              0.0900
 Traceless Quadrupole moment (field-independent basis, Debye-Ang):
   XX=              9.7506   YY=             -4.6693   ZZ=             -5.0812
   XY=             -1.9550   XZ=             -0.5381   YZ=              0.0900
 Octapole moment (field-independent basis, Debye-Ang**2):
  XXX=             40.3812  YYY=             -0.5878  ZZZ=              0.8144  XYY=              1.1223
  XXY=             -9.3458  XXZ=             -2.8514  XZZ=              8.8585  YZZ=             -1.5535
  YYZ=             -0.4252  XYZ=             -0.2517
 Hexadecapole moment (field-independent basis, Debye-Ang**3):
 XXXX=           -653.9075 YYYY=           -139.2906 ZZZZ=            -37.4558 XXXY=              8.2873
 XXXZ=             -1.0598 YYYX=              4.0094 YYYZ=              0.5140 ZZZX=             -0.3975
 ZZZY=              0.3322 XXYY=           -150.9381 XXZZ=           -153.6158 YYZZ=            -31.2106
 XXYZ=             -0.6363 YYXZ=             -0.2042 ZZXY=              5.2815
 N-N= 1.550926931318D+02 E-N=-9.392361682315D+02  KE= 2.674469978581D+02
 No NMR shielding tensors so no spin-rotation constants.
 Leave Link  601 at Wed Oct 16 00:40:16 2019, MaxMem=   280000000 cpu:               2.5 elap:               0.1
 (Enter /home/soft/g16/l9999.exe)


     ON THE SURVIVAL OF THE FITTEST -
 "STRONG REPRESENTATIVES FROM EACH PAST ERA THRIVE TODAY,
 SUCH AS PROGRAMMING IN THE THIRTY YEAR OLD LANGUAGE KNOWN
 AS FORTRAN, AND EVEN IN THE ANCIENT SCRIPT KNOWN AS DIRECT
 MACHINE CODE. SOME PEOPLE MIGHT LOOK ON SUCH RELICS AS LIVING
 FOSSILS; OTHERS WOULD POINT OUT THAT EVEN A VERY OLD SPECIES
 MIGHT STILL BE FILLING A PARTICULAR ECOLOGICAL NICHE."
     -- ALAN KAY, SCI.AM. SEPTEMBER 1984
 Error termination request processed by link 9999.
 Error termination via Lnk1e in /home/soft/g16/l9999.exe at Wed Oct 16 00:40:16 2019.
 Job cpu time:       0 days  1 hours  3 minutes 58.8 seconds.
 Elapsed time:       0 days  0 hours  3 minutes 15.7 seconds.
 File lengths (MBytes):  RWF=    332 Int=      0 D2E=      0 Chk=      8 Scr=      8
