 Entering Gaussian System, Link 0=g16
 Input=P.gjf
 Output=P.log
 Initial command:
 /home/soft/g16/l1.exe "/tmp/gaussian/Gau-115094.inp" -scrdir="/tmp/gaussian/"
 Entering Link 1 = /home/soft/g16/l1.exe PID=    115095.
  
 Copyright (c) 1988,1990,1992,1993,1995,1998,2003,2009,2016,
            Gaussian, Inc.  All Rights Reserved.
  
 This is part of the Gaussian(R) 16 program.  It is based on
 the Gaussian(R) 09 system (copyright 2009, Gaussian, Inc.),
 the Gaussian(R) 03 system (copyright 2003, Gaussian, Inc.),
 the Gaussian(R) 98 system (copyright 1998, Gaussian, Inc.),
 the Gaussian(R) 94 system (copyright 1995, Gaussian, Inc.),
 the Gaussian 92(TM) system (copyright 1992, Gaussian, Inc.),
 the Gaussian 90(TM) system (copyright 1990, Gaussian, Inc.),
 the Gaussian 88(TM) system (copyright 1988, Gaussian, Inc.),
 the Gaussian 86(TM) system (copyright 1986, Carnegie Mellon
 University), and the Gaussian 82(TM) system (copyright 1983,
 Carnegie Mellon University). Gaussian is a federally registered
 trademark of Gaussian, Inc.
  
 This software contains proprietary and confidential information,
 including trade secrets, belonging to Gaussian, Inc.
  
 This software is provided under written license and may be
 used, copied, transmitted, or stored only in accord with that
 written license.
  
 The following legend is applicable only to US Government
 contracts under FAR:
  
                    RESTRICTED RIGHTS LEGEND
  
 Use, reproduction and disclosure by the US Government is
 subject to restrictions as set forth in subparagraphs (a)
 and (c) of the Commercial Computer Software - Restricted
 Rights clause in FAR 52.227-19.
  
 Gaussian, Inc.
 340 Quinnipiac St., Bldg. 40, Wallingford CT 06492
  
  
 ---------------------------------------------------------------
 Warning -- This program may not be used in any manner that
 competes with the business of Gaussian, Inc. or will provide
 assistance to any competitor of Gaussian, Inc.  The licensee
 of this program is prohibited from giving any competitor of
 Gaussian, Inc. access to this program.  By using this program,
 the user acknowledges that Gaussian, Inc. is engaged in the
 business of creating and licensing software in the field of
 computational chemistry and represents and warrants to the
 licensee that it is not a competitor of Gaussian, Inc. and that
 it will not use this program in any manner prohibited above.
 ---------------------------------------------------------------
  

 Cite this work as:
 Gaussian 16, Revision A.03,
 M. J. Frisch, G. W. Trucks, H. B. Schlegel, G. E. Scuseria, 
 M. A. Robb, J. R. Cheeseman, G. Scalmani, V. Barone, 
 G. A. Petersson, H. Nakatsuji, X. Li, M. Caricato, A. V. Marenich, 
 J. Bloino, B. G. Janesko, R. Gomperts, B. Mennucci, H. P. Hratchian, 
 J. V. Ortiz, A. F. Izmaylov, J. L. Sonnenberg, D. Williams-Young, 
 F. Ding, F. Lipparini, F. Egidi, J. Goings, B. Peng, A. Petrone, 
 T. Henderson, D. Ranasinghe, V. G. Zakrzewski, J. Gao, N. Rega, 
 G. Zheng, W. Liang, M. Hada, M. Ehara, K. Toyota, R. Fukuda, 
 J. Hasegawa, M. Ishida, T. Nakajima, Y. Honda, O. Kitao, H. Nakai, 
 T. Vreven, K. Throssell, J. A. Montgomery, Jr., J. E. Peralta, 
 F. Ogliaro, M. J. Bearpark, J. J. Heyd, E. N. Brothers, K. N. Kudin, 
 V. N. Staroverov, T. A. Keith, R. Kobayashi, J. Normand, 
 K. Raghavachari, A. P. Rendell, J. C. Burant, S. S. Iyengar, 
 J. Tomasi, M. Cossi, J. M. Millam, M. Klene, C. Adamo, R. Cammi, 
 J. W. Ochterski, R. L. Martin, K. Morokuma, O. Farkas, 
 J. B. Foresman, and D. J. Fox, Gaussian, Inc., Wallingford CT, 2016.
 
 ******************************************
 Gaussian 16:  ES64L-G16RevA.03 25-Dec-2016
                15-Oct-2019 
 ******************************************
 %chk=P.chk
 %nproc=24
 Will use up to   24 processors via shared memory.
 ---------------------
 #p b3lyp/6-311+g* opt
 ---------------------
 1/18=20,19=15,26=3,38=1/1,3;
 2/9=110,12=2,17=6,18=5,40=1/2;
 3/5=4,6=6,7=11,11=2,25=1,30=1,71=1,74=-5/1,2,3;
 4//1;
 5/5=2,38=5/2;
 6/7=2,8=2,9=2,10=2,28=1/1;
 7//1,2,3,16;
 1/18=20,19=15,26=3/3(2);
 2/9=110/2;
 99//99;
 2/9=110/2;
 3/5=4,6=6,7=11,11=2,25=1,30=1,71=1,74=-5/1,2,3;
 4/5=5,16=3,69=1/1;
 5/5=2,38=5/2;
 7//1,2,3,16;
 1/18=20,19=15,26=3/3(-5);
 2/9=110/2;
 6/7=2,8=2,9=2,10=2,19=2,28=1/1;
 99/9=1/99;
 Leave Link    1 at Tue Oct 15 20:05:24 2019, MaxMem=           0 cpu:               2.9 elap:               0.1
 (Enter /home/soft/g16/l101.exe)
 -------------------
 Title Card Required
 -------------------
 Symbolic Z-matrix:
 Charge =  0 Multiplicity = 1
 C                    -0.62607   2.66724   0. 
 H                    -1.69536   2.66765   0.03911 
 O                     0.00013   3.75781  -0.04584 
 C                     0.14129   1.33204   0. 
 H                     0.75633   1.27414   0.87365 
 H                    -0.55564   0.52013  0. 
 C                     1.02649   1.24871  -1.2574 
 H                     1.67239   0.39888  -1.1832 
 H                     0.40667   1.15101  -2.12411 
 O                     1.81361   2.43764  -1.36586 
 H                     1.23839   3.20591  -1.34372 
 
 ITRead=  0  0  0  0  0  0  0  0  0  0  0
 MicOpt= -1 -1 -1 -1 -1 -1 -1 -1 -1 -1 -1
 NAtoms=     11 NQM=       11 NQMF=       0 NMMI=      0 NMMIF=      0
                NMic=       0 NMicF=      0.
                    Isotopes and Nuclear Properties:
 (Nuclear quadrupole moments (NQMom) in fm**2, nuclear magnetic moments (NMagM)
  in nuclear magnetons)

  Atom         1           2           3           4           5           6           7           8           9          10
 IAtWgt=          12           1          16          12           1           1          12           1           1          16
 AtmWgt=  12.0000000   1.0078250  15.9949146  12.0000000   1.0078250   1.0078250  12.0000000   1.0078250   1.0078250  15.9949146
 NucSpn=           0           1           0           0           1           1           0           1           1           0
 AtZEff=  -0.0000000  -0.0000000  -0.0000000  -0.0000000  -0.0000000  -0.0000000  -0.0000000  -0.0000000  -0.0000000  -0.0000000
 NQMom=    0.0000000   0.0000000   0.0000000   0.0000000   0.0000000   0.0000000   0.0000000   0.0000000   0.0000000   0.0000000
 NMagM=    0.0000000   2.7928460   0.0000000   0.0000000   2.7928460   2.7928460   0.0000000   2.7928460   2.7928460   0.0000000
 AtZNuc=   6.0000000   1.0000000   8.0000000   6.0000000   1.0000000   1.0000000   6.0000000   1.0000000   1.0000000   8.0000000

  Atom        11
 IAtWgt=           1
 AtmWgt=   1.0078250
 NucSpn=           1
 AtZEff=  -0.0000000
 NQMom=    0.0000000
 NMagM=    2.7928460
 AtZNuc=   1.0000000
 Leave Link  101 at Tue Oct 15 20:05:24 2019, MaxMem=   280000000 cpu:               5.7 elap:               0.3
 (Enter /home/soft/g16/l103.exe)

 GradGradGradGradGradGradGradGradGradGradGradGradGradGradGradGradGradGrad
 Berny optimization.
 Initialization pass.
                           ----------------------------
                           !    Initial Parameters    !
                           ! (Angstroms and Degrees)  !
 --------------------------                            --------------------------
 ! Name  Definition              Value          Derivative Info.                !
 --------------------------------------------------------------------------------
 ! R1    R(1,2)                  1.07           estimate D2E/DX2                !
 ! R2    R(1,3)                  1.2584         estimate D2E/DX2                !
 ! R3    R(1,4)                  1.54           estimate D2E/DX2                !
 ! R4    R(4,5)                  1.07           estimate D2E/DX2                !
 ! R5    R(4,6)                  1.07           estimate D2E/DX2                !
 ! R6    R(4,7)                  1.54           estimate D2E/DX2                !
 ! R7    R(7,8)                  1.07           estimate D2E/DX2                !
 ! R8    R(7,9)                  1.07           estimate D2E/DX2                !
 ! R9    R(7,10)                 1.43           estimate D2E/DX2                !
 ! R10   R(10,11)                0.96           estimate D2E/DX2                !
 ! A1    A(2,1,3)              119.8865         estimate D2E/DX2                !
 ! A2    A(2,1,4)              119.8865         estimate D2E/DX2                !
 ! A3    A(3,1,4)              120.2269         estimate D2E/DX2                !
 ! A4    A(1,4,5)              109.4712         estimate D2E/DX2                !
 ! A5    A(1,4,6)              109.4712         estimate D2E/DX2                !
 ! A6    A(1,4,7)              109.4712         estimate D2E/DX2                !
 ! A7    A(5,4,6)              109.4713         estimate D2E/DX2                !
 ! A8    A(5,4,7)              109.4712         estimate D2E/DX2                !
 ! A9    A(6,4,7)              109.4712         estimate D2E/DX2                !
 ! A10   A(4,7,8)              109.4712         estimate D2E/DX2                !
 ! A11   A(4,7,9)              109.4712         estimate D2E/DX2                !
 ! A12   A(4,7,10)             109.4712         estimate D2E/DX2                !
 ! A13   A(8,7,9)              109.4712         estimate D2E/DX2                !
 ! A14   A(8,7,10)             109.4713         estimate D2E/DX2                !
 ! A15   A(9,7,10)             109.4712         estimate D2E/DX2                !
 ! A16   A(7,10,11)            109.5            estimate D2E/DX2                !
 ! D1    D(2,1,4,5)           -117.5839         estimate D2E/DX2                !
 ! D2    D(2,1,4,6)              2.4161         estimate D2E/DX2                !
 ! D3    D(2,1,4,7)            122.4161         estimate D2E/DX2                !
 ! D4    D(3,1,4,5)             62.4161         estimate D2E/DX2                !
 ! D5    D(3,1,4,6)           -177.5839         estimate D2E/DX2                !
 ! D6    D(3,1,4,7)            -57.5839         estimate D2E/DX2                !
 ! D7    D(1,4,7,8)            171.1409         estimate D2E/DX2                !
 ! D8    D(1,4,7,9)            -68.8591         estimate D2E/DX2                !
 ! D9    D(1,4,7,10)            51.1409         estimate D2E/DX2                !
 ! D10   D(5,4,7,8)             51.1409         estimate D2E/DX2                !
 ! D11   D(5,4,7,9)            171.1409         estimate D2E/DX2                !
 ! D12   D(5,4,7,10)           -68.8591         estimate D2E/DX2                !
 ! D13   D(6,4,7,8)            -68.8591         estimate D2E/DX2                !
 ! D14   D(6,4,7,9)             51.1409         estimate D2E/DX2                !
 ! D15   D(6,4,7,10)           171.1409         estimate D2E/DX2                !
 ! D16   D(4,7,10,11)          -54.3624         estimate D2E/DX2                !
 ! D17   D(8,7,10,11)         -174.3624         estimate D2E/DX2                !
 ! D18   D(9,7,10,11)           65.6376         estimate D2E/DX2                !
 --------------------------------------------------------------------------------
 Trust Radius=3.00D-01 FncErr=1.00D-07 GrdErr=1.00D-06 EigMax=2.50D+02 EigMin=1.00D-04
 Number of steps in this run=     54 maximum allowed number of steps=    100.
 GradGradGradGradGradGradGradGradGradGradGradGradGradGradGradGradGradGrad

 Leave Link  103 at Tue Oct 15 20:05:24 2019, MaxMem=   280000000 cpu:               0.7 elap:               0.0
 (Enter /home/soft/g16/l202.exe)
                          Input orientation:                          
 ---------------------------------------------------------------------
 Center     Atomic      Atomic             Coordinates (Angstroms)
 Number     Number       Type             X           Y           Z
 ---------------------------------------------------------------------
      1          6           0       -0.626072    2.667238    0.000000
      2          1           0       -1.695357    2.667649    0.039109
      3          8           0        0.000130    3.757807   -0.045837
      4          6           0        0.141285    1.332037    0.000000
      5          1           0        0.756331    1.274138    0.873651
      6          1           0       -0.555642    0.520131   -0.000000
      7          6           0        1.026491    1.248705   -1.257405
      8          1           0        1.672393    0.398880   -1.183198
      9          1           0        0.406668    1.151006   -2.124108
     10          8           0        1.813614    2.437644   -1.365864
     11          1           0        1.238394    3.205909   -1.343720
 ---------------------------------------------------------------------
                    Distance matrix (angstroms):
                    1          2          3          4          5
     1  C    0.000000
     2  H    1.070000   0.000000
     3  O    1.258400   2.017508   0.000000
     4  C    1.540000   2.271265   2.430306   0.000000
     5  H    2.148263   2.940936   2.754253   1.070000   0.000000
     6  H    2.148263   2.431525   3.285351   1.070000   1.747303
     7  C    2.514810   3.332087   2.969327   1.540000   2.148263
     8  H    3.439237   4.240648   3.920771   2.148263   2.415756
     9  H    2.806661   3.376125   3.358555   2.148263   3.020594
    10  O    2.805417   3.786783   2.602696   2.425826   2.736242
    11  H    2.360505   3.287679   1.876803   2.553552   2.980077
                    6          7          8          9         10
     6  H    0.000000
     7  C    2.148263   0.000000
     8  H    2.525629   1.070000   0.000000
     9  H    2.415756   1.070000   1.747303   0.000000
    10  O    3.340032   1.430000   2.051796   2.051796   0.000000
    11  H    3.498222   1.970533   2.844914   2.350191   0.960000
                   11
    11  H    0.000000
 Stoichiometry    C3H6O2
 Framework group  C1[X(C3H6O2)]
 Deg. of freedom    27
 Full point group                 C1      NOp   1
 Largest Abelian subgroup         C1      NOp   1
 Largest concise Abelian subgroup C1      NOp   1
                         Standard orientation:                         
 ---------------------------------------------------------------------
 Center     Atomic      Atomic             Coordinates (Angstroms)
 Number     Number       Type             X           Y           Z
 ---------------------------------------------------------------------
      1          6           0       -1.243910    0.381617    0.196963
      2          1           0       -1.965462    0.911461    0.783077
      3          8           0       -1.438332   -0.827029   -0.094491
      4          6           0        0.028948    1.100769   -0.287033
      5          1           0        0.040875    1.123515   -1.356725
      6          1           0        0.038767    2.101667    0.091129
      7          6           0        1.270508    0.346638    0.224255
      8          1           0        2.147964    0.751292   -0.235339
      9          1           0        1.341662    0.455502    1.286322
     10          8           0        1.155616   -1.039916   -0.106150
     11          1           0        0.324639   -1.382026    0.231545
 ---------------------------------------------------------------------
 Rotational constants (GHZ):           8.1971640           4.6177254           3.2017397
 Leave Link  202 at Tue Oct 15 20:05:24 2019, MaxMem=   280000000 cpu:               1.5 elap:               0.1
 (Enter /home/soft/g16/l301.exe)
 Standard basis: 6-311+G(d) (5D, 7F)
 Ernie: Thresh=  0.10000D-02 Tol=  0.10000D-05 Strict=F.
 There are   133 symmetry adapted cartesian basis functions of A   symmetry.
 There are   128 symmetry adapted basis functions of A   symmetry.
   128 basis functions,   210 primitive gaussians,   133 cartesian basis functions
    20 alpha electrons       20 beta electrons
       nuclear repulsion energy       179.1135459306 Hartrees.
 IExCor=  402 DFT=T Ex+Corr=B3LYP ExCW=0 ScaHFX=  0.200000
 ScaDFX=  0.800000  0.720000  1.000000  0.810000 ScalE2=  1.000000  1.000000
 IRadAn=      5 IRanWt=     -1 IRanGd=            0 ICorTp=0 IEmpDi=  4
 NAtoms=   11 NActive=   11 NUniq=   11 SFac= 1.00D+00 NAtFMM=   60 NAOKFM=F Big=F
 Integral buffers will be    131072 words long.
 Raffenetti 2 integral format.
 Two-electron integral symmetry is turned on.
 Leave Link  301 at Tue Oct 15 20:05:25 2019, MaxMem=   280000000 cpu:               2.1 elap:               0.1
 (Enter /home/soft/g16/l302.exe)
 NPDir=0 NMtPBC=     1 NCelOv=     1 NCel=       1 NClECP=     1 NCelD=      1
         NCelK=      1 NCelE2=     1 NClLst=     1 CellRange=     0.0.
 One-electron integrals computed using PRISM.
 One-electron integral symmetry used in STVInt
 NBasis=   128 RedAO= T EigKep=  9.64D-05  NBF=   128
 NBsUse=   128 1.00D-06 EigRej= -1.00D+00 NBFU=   128
 Precomputing XC quadrature grid using
 IXCGrd= 4 IRadAn=           5 IRanWt=          -1 IRanGd=           0 AccXCQ= 0.00D+00.
 Generated NRdTot=       0 NPtTot=           0 NUsed=           0 NTot=          32
 NSgBfM=   133   133   133   133   133 MxSgAt=    11 MxSgA2=    11.
 Leave Link  302 at Tue Oct 15 20:05:25 2019, MaxMem=   280000000 cpu:               8.0 elap:               0.4
 (Enter /home/soft/g16/l303.exe)
 DipDrv:  MaxL=1.
 Leave Link  303 at Tue Oct 15 20:05:25 2019, MaxMem=   280000000 cpu:               4.3 elap:               0.2
 (Enter /home/soft/g16/l401.exe)
 ExpMin= 4.38D-02 ExpMax= 8.59D+03 ExpMxC= 1.30D+03 IAcc=3 IRadAn=         5 AccDes= 0.00D+00
 Harris functional with IExCor=  402 and IRadAn=       5 diagonalized for initial guess.
 HarFok:  IExCor=  402 AccDes= 0.00D+00 IRadAn=         5 IDoV= 1 UseB2=F ITyADJ=14
 ICtDFT=  3500011 ScaDFX=  1.000000  1.000000  1.000000  1.000000
 FoFCou: FMM=F IPFlag=           0 FMFlag=      100000 FMFlg1=           0
         NFxFlg=           0 DoJE=T BraDBF=F KetDBF=T FulRan=T
         wScrn=  0.000000 ICntrl=       500 IOpCl=  0 I1Cent=   200000004 NGrid=           0
         NMat0=    1 NMatS0=      1 NMatT0=    0 NMatD0=    1 NMtDS0=    0 NMtDT0=    0
 Petite list used in FoFCou.
 Harris En= -268.456261748523    
 JPrj=0 DoOrth=F DoCkMO=F.
 Leave Link  401 at Tue Oct 15 20:05:26 2019, MaxMem=   280000000 cpu:               7.9 elap:               0.4
 (Enter /home/soft/g16/l502.exe)
 Keep R1 ints in memory in canonical form, NReq=57089853.
 FoFCou: FMM=F IPFlag=           0 FMFlag=           0 FMFlg1=           0
         NFxFlg=           0 DoJE=F BraDBF=F KetDBF=F FulRan=T
         wScrn=  0.000000 ICntrl=       600 IOpCl=  0 I1Cent=           0 NGrid=           0
         NMat0=    1 NMatS0=   8256 NMatT0=    0 NMatD0=    1 NMtDS0=    0 NMtDT0=    0
 Symmetry not used in FoFCou.
 Two-electron integral symmetry not used.
 Closed shell SCF:
 Using DIIS extrapolation, IDIIS=  1040.
 NGot=   280000000 LenX=   245875047 LenY=   245856917
 Requested convergence on RMS density matrix=1.00D-08 within 128 cycles.
 Requested convergence on MAX density matrix=1.00D-06.
 Requested convergence on             energy=1.00D-06.
 No special actions if energy rises.

 Cycle   1  Pass 1  IDiag  1:
 E= -268.254237936171    
 DIIS: error= 2.93D-02 at cycle   1 NSaved=   1.
 NSaved= 1 IEnMin= 1 EnMin= -268.254237936171     IErMin= 1 ErrMin= 2.93D-02
 ErrMax= 2.93D-02  0.00D+00 EMaxC= 1.00D-01 BMatC= 2.17D-01 BMatP= 2.17D-01
 IDIUse=3 WtCom= 7.07D-01 WtEn= 2.93D-01
 Coeff-Com:  0.100D+01
 Coeff-En:   0.100D+01
 Coeff:      0.100D+01
 Gap=     0.109 Goal=   None    Shift=    0.000
 GapD=    0.109 DampG=1.000 DampE=0.500 DampFc=0.5000 IDamp=-1.
 Damping current iteration by 5.00D-01
 RMSDP=1.32D-02 MaxDP=4.49D-01              OVMax= 2.37D-01

 Cycle   2  Pass 1  IDiag  1:
 E= -268.283034559596     Delta-E=       -0.028796623425 Rises=F Damp=T
 DIIS: error= 1.77D-02 at cycle   2 NSaved=   2.
 NSaved= 2 IEnMin= 2 EnMin= -268.283034559596     IErMin= 2 ErrMin= 1.77D-02
 ErrMax= 1.77D-02  0.00D+00 EMaxC= 1.00D-01 BMatC= 3.96D-02 BMatP= 2.17D-01
 IDIUse=3 WtCom= 8.23D-01 WtEn= 1.77D-01
 Coeff-Com:  0.249D+00 0.751D+00
 Coeff-En:   0.415D+00 0.585D+00
 Coeff:      0.279D+00 0.721D+00
 Gap=     0.184 Goal=   None    Shift=    0.000
 RMSDP=4.48D-03 MaxDP=1.87D-01 DE=-2.88D-02 OVMax= 1.73D-01

 Cycle   3  Pass 1  IDiag  1:
 E= -268.396246844239     Delta-E=       -0.113212284643 Rises=F Damp=F
 DIIS: error= 1.39D-02 at cycle   3 NSaved=   3.
 NSaved= 3 IEnMin= 3 EnMin= -268.396246844239     IErMin= 3 ErrMin= 1.39D-02
 ErrMax= 1.39D-02  0.00D+00 EMaxC= 1.00D-01 BMatC= 2.41D-02 BMatP= 3.96D-02
 IDIUse=3 WtCom= 8.61D-01 WtEn= 1.39D-01
 Coeff-Com:  0.798D-01 0.441D+00 0.479D+00
 Coeff-En:   0.000D+00 0.000D+00 0.100D+01
 Coeff:      0.687D-01 0.379D+00 0.552D+00
 Gap=     0.197 Goal=   None    Shift=    0.000
 RMSDP=1.33D-03 MaxDP=2.45D-02 DE=-1.13D-01 OVMax= 8.75D-02

 Cycle   4  Pass 1  IDiag  1:
 E= -268.410927898206     Delta-E=       -0.014681053966 Rises=F Damp=F
 DIIS: error= 7.86D-03 at cycle   4 NSaved=   4.
 NSaved= 4 IEnMin= 4 EnMin= -268.410927898206     IErMin= 4 ErrMin= 7.86D-03
 ErrMax= 7.86D-03  0.00D+00 EMaxC= 1.00D-01 BMatC= 7.87D-03 BMatP= 2.41D-02
 IDIUse=3 WtCom= 9.21D-01 WtEn= 7.86D-02
 Coeff-Com:  0.166D-01 0.125D+00 0.371D+00 0.488D+00
 Coeff-En:   0.000D+00 0.000D+00 0.269D+00 0.731D+00
 Coeff:      0.153D-01 0.115D+00 0.363D+00 0.507D+00
 Gap=     0.194 Goal=   None    Shift=    0.000
 RMSDP=5.60D-04 MaxDP=9.28D-03 DE=-1.47D-02 OVMax= 3.06D-02

 Cycle   5  Pass 1  IDiag  1:
 E= -268.416794634598     Delta-E=       -0.005866736393 Rises=F Damp=F
 DIIS: error= 1.24D-03 at cycle   5 NSaved=   5.
 NSaved= 5 IEnMin= 5 EnMin= -268.416794634598     IErMin= 5 ErrMin= 1.24D-03
 ErrMax= 1.24D-03  0.00D+00 EMaxC= 1.00D-01 BMatC= 3.71D-04 BMatP= 7.87D-03
 IDIUse=3 WtCom= 9.88D-01 WtEn= 1.24D-02
 Coeff-Com:  0.192D-02 0.285D-01 0.161D+00 0.287D+00 0.521D+00
 Coeff-En:   0.000D+00 0.000D+00 0.000D+00 0.000D+00 0.100D+01
 Coeff:      0.189D-02 0.281D-01 0.159D+00 0.283D+00 0.527D+00
 Gap=     0.192 Goal=   None    Shift=    0.000
 RMSDP=1.57D-04 MaxDP=3.43D-03 DE=-5.87D-03 OVMax= 4.44D-03

 Cycle   6  Pass 1  IDiag  1:
 E= -268.417040946577     Delta-E=       -0.000246311979 Rises=F Damp=F
 DIIS: error= 3.36D-04 at cycle   6 NSaved=   6.
 NSaved= 6 IEnMin= 6 EnMin= -268.417040946577     IErMin= 6 ErrMin= 3.36D-04
 ErrMax= 3.36D-04  0.00D+00 EMaxC= 1.00D-01 BMatC= 2.76D-05 BMatP= 3.71D-04
 IDIUse=3 WtCom= 9.97D-01 WtEn= 3.36D-03
 Coeff-Com: -0.849D-03-0.115D-02 0.386D-01 0.845D-01 0.272D+00 0.607D+00
 Coeff-En:   0.000D+00 0.000D+00 0.000D+00 0.000D+00 0.718D-02 0.993D+00
 Coeff:     -0.846D-03-0.115D-02 0.385D-01 0.842D-01 0.271D+00 0.608D+00
 Gap=     0.191 Goal=   None    Shift=    0.000
 RMSDP=3.91D-05 MaxDP=5.63D-04 DE=-2.46D-04 OVMax= 8.30D-04

 Cycle   7  Pass 1  IDiag  1:
 E= -268.417061542360     Delta-E=       -0.000020595783 Rises=F Damp=F
 DIIS: error= 4.17D-05 at cycle   7 NSaved=   7.
 NSaved= 7 IEnMin= 7 EnMin= -268.417061542360     IErMin= 7 ErrMin= 4.17D-05
 ErrMax= 4.17D-05  0.00D+00 EMaxC= 1.00D-01 BMatC= 6.11D-07 BMatP= 2.76D-05
 IDIUse=1 WtCom= 1.00D+00 WtEn= 0.00D+00
 Coeff-Com: -0.131D-03-0.136D-02 0.974D-02 0.225D-01 0.865D-01 0.235D+00
 Coeff-Com:  0.647D+00
 Coeff:     -0.131D-03-0.136D-02 0.974D-02 0.225D-01 0.865D-01 0.235D+00
 Coeff:      0.647D+00
 Gap=     0.191 Goal=   None    Shift=    0.000
 RMSDP=6.39D-06 MaxDP=1.88D-04 DE=-2.06D-05 OVMax= 1.82D-04

 Cycle   8  Pass 1  IDiag  1:
 E= -268.417062016044     Delta-E=       -0.000000473684 Rises=F Damp=F
 DIIS: error= 1.82D-05 at cycle   8 NSaved=   8.
 NSaved= 8 IEnMin= 8 EnMin= -268.417062016044     IErMin= 8 ErrMin= 1.82D-05
 ErrMax= 1.82D-05  0.00D+00 EMaxC= 1.00D-01 BMatC= 6.33D-08 BMatP= 6.11D-07
 IDIUse=1 WtCom= 1.00D+00 WtEn= 0.00D+00
 Coeff-Com:  0.732D-04-0.648D-03 0.711D-03 0.178D-02 0.123D-01 0.434D-01
 Coeff-Com:  0.265D+00 0.678D+00
 Coeff:      0.732D-04-0.648D-03 0.711D-03 0.178D-02 0.123D-01 0.434D-01
 Coeff:      0.265D+00 0.678D+00
 Gap=     0.191 Goal=   None    Shift=    0.000
 RMSDP=2.50D-06 MaxDP=5.39D-05 DE=-4.74D-07 OVMax= 8.57D-05

 Cycle   9  Pass 1  IDiag  1:
 E= -268.417062076311     Delta-E=       -0.000000060267 Rises=F Damp=F
 DIIS: error= 3.16D-06 at cycle   9 NSaved=   9.
 NSaved= 9 IEnMin= 9 EnMin= -268.417062076311     IErMin= 9 ErrMin= 3.16D-06
 ErrMax= 3.16D-06  0.00D+00 EMaxC= 1.00D-01 BMatC= 2.54D-09 BMatP= 6.33D-08
 IDIUse=1 WtCom= 1.00D+00 WtEn= 0.00D+00
 Coeff-Com:  0.404D-04-0.129D-03-0.277D-03-0.774D-03-0.117D-02-0.123D-02
 Coeff-Com:  0.342D-01 0.203D+00 0.767D+00
 Coeff:      0.404D-04-0.129D-03-0.277D-03-0.774D-03-0.117D-02-0.123D-02
 Coeff:      0.342D-01 0.203D+00 0.767D+00
 Gap=     0.191 Goal=   None    Shift=    0.000
 RMSDP=6.53D-07 MaxDP=8.08D-06 DE=-6.03D-08 OVMax= 2.12D-05

 Cycle  10  Pass 1  IDiag  1:
 E= -268.417062078833     Delta-E=       -0.000000002522 Rises=F Damp=F
 DIIS: error= 8.11D-07 at cycle  10 NSaved=  10.
 NSaved=10 IEnMin=10 EnMin= -268.417062078833     IErMin=10 ErrMin= 8.11D-07
 ErrMax= 8.11D-07  0.00D+00 EMaxC= 1.00D-01 BMatC= 1.68D-10 BMatP= 2.54D-09
 IDIUse=1 WtCom= 1.00D+00 WtEn= 0.00D+00
 Coeff-Com:  0.893D-05-0.166D-04-0.125D-03-0.366D-03-0.921D-03-0.240D-02
 Coeff-Com:  0.780D-03 0.438D-01 0.282D+00 0.677D+00
 Coeff:      0.893D-05-0.166D-04-0.125D-03-0.366D-03-0.921D-03-0.240D-02
 Coeff:      0.780D-03 0.438D-01 0.282D+00 0.677D+00
 Gap=     0.191 Goal=   None    Shift=    0.000
 RMSDP=1.32D-07 MaxDP=2.88D-06 DE=-2.52D-09 OVMax= 8.05D-06

 Cycle  11  Pass 1  IDiag  1:
 E= -268.417062079012     Delta-E=       -0.000000000179 Rises=F Damp=F
 DIIS: error= 3.75D-07 at cycle  11 NSaved=  11.
 NSaved=11 IEnMin=11 EnMin= -268.417062079012     IErMin=11 ErrMin= 3.75D-07
 ErrMax= 3.75D-07  0.00D+00 EMaxC= 1.00D-01 BMatC= 2.48D-11 BMatP= 1.68D-10
 IDIUse=1 WtCom= 1.00D+00 WtEn= 0.00D+00
 Coeff-Com: -0.369D-05 0.114D-04-0.758D-05-0.303D-04-0.136D-03-0.610D-03
 Coeff-Com: -0.394D-02-0.127D-01-0.910D-02 0.272D+00 0.755D+00
 Coeff:     -0.369D-05 0.114D-04-0.758D-05-0.303D-04-0.136D-03-0.610D-03
 Coeff:     -0.394D-02-0.127D-01-0.910D-02 0.272D+00 0.755D+00
 Gap=     0.191 Goal=   None    Shift=    0.000
 RMSDP=6.45D-08 MaxDP=9.98D-07 DE=-1.79D-10 OVMax= 4.15D-06

 Cycle  12  Pass 1  IDiag  1:
 E= -268.417062079047     Delta-E=       -0.000000000035 Rises=F Damp=F
 DIIS: error= 8.89D-08 at cycle  12 NSaved=  12.
 NSaved=12 IEnMin=12 EnMin= -268.417062079047     IErMin=12 ErrMin= 8.89D-08
 ErrMax= 8.89D-08  0.00D+00 EMaxC= 1.00D-01 BMatC= 5.79D-13 BMatP= 2.48D-11
 IDIUse=1 WtCom= 1.00D+00 WtEn= 0.00D+00
 Coeff-Com: -0.107D-05 0.297D-05 0.550D-05 0.155D-04 0.302D-04 0.568D-04
 Coeff-Com: -0.672D-03-0.488D-02-0.228D-01-0.782D-02 0.115D+00 0.921D+00
 Coeff:     -0.107D-05 0.297D-05 0.550D-05 0.155D-04 0.302D-04 0.568D-04
 Coeff:     -0.672D-03-0.488D-02-0.228D-01-0.782D-02 0.115D+00 0.921D+00
 Gap=     0.191 Goal=   None    Shift=    0.000
 RMSDP=1.85D-08 MaxDP=3.01D-07 DE=-3.47D-11 OVMax= 1.45D-06

 Cycle  13  Pass 1  IDiag  1:
 E= -268.417062079050     Delta-E=       -0.000000000003 Rises=F Damp=F
 DIIS: error= 1.41D-08 at cycle  13 NSaved=  13.
 NSaved=13 IEnMin=13 EnMin= -268.417062079050     IErMin=13 ErrMin= 1.41D-08
 ErrMax= 1.41D-08  0.00D+00 EMaxC= 1.00D-01 BMatC= 4.18D-14 BMatP= 5.79D-13
 IDIUse=1 WtCom= 1.00D+00 WtEn= 0.00D+00
 Coeff-Com:  0.935D-07-0.110D-06 0.122D-05 0.474D-05 0.123D-04 0.494D-04
 Coeff-Com:  0.976D-04-0.285D-05-0.348D-02-0.196D-01-0.263D-01 0.143D+00
 Coeff-Com:  0.906D+00
 Coeff:      0.935D-07-0.110D-06 0.122D-05 0.474D-05 0.123D-04 0.494D-04
 Coeff:      0.976D-04-0.285D-05-0.348D-02-0.196D-01-0.263D-01 0.143D+00
 Coeff:      0.906D+00
 Gap=     0.191 Goal=   None    Shift=    0.000
 RMSDP=4.68D-09 MaxDP=5.34D-08 DE=-2.90D-12 OVMax= 2.81D-07

 SCF Done:  E(RB3LYP) =  -268.417062079     A.U. after   13 cycles
            NFock= 13  Conv=0.47D-08     -V/T= 2.0034
 KE= 2.675175276559D+02 PE=-9.873618706395D+02 EE= 2.723137349740D+02
 Leave Link  502 at Tue Oct 15 20:05:29 2019, MaxMem=   280000000 cpu:              61.9 elap:               3.2
 (Enter /home/soft/g16/l601.exe)
 Copying SCF densities to generalized density rwf, IOpCl= 0 IROHF=0.

 **********************************************************************

            Population analysis using the SCF density.

 **********************************************************************

 Orbital symmetries:
       Occupied  (A) (A) (A) (A) (A) (A) (A) (A) (A) (A) (A) (A)
                 (A) (A) (A) (A) (A) (A) (A) (A)
       Virtual   (A) (A) (A) (A) (A) (A) (A) (A) (A) (A) (A) (A)
                 (A) (A) (A) (A) (A) (A) (A) (A) (A) (A) (A) (A)
                 (A) (A) (A) (A) (A) (A) (A) (A) (A) (A) (A) (A)
                 (A) (A) (A) (A) (A) (A) (A) (A) (A) (A) (A) (A)
                 (A) (A) (A) (A) (A) (A) (A) (A) (A) (A) (A) (A)
                 (A) (A) (A) (A) (A) (A) (A) (A) (A) (A) (A) (A)
                 (A) (A) (A) (A) (A) (A) (A) (A) (A) (A) (A) (A)
                 (A) (A) (A) (A) (A) (A) (A) (A) (A) (A) (A) (A)
                 (A) (A) (A) (A) (A) (A) (A) (A) (A) (A) (A) (A)
 The electronic state is 1-A.
 Alpha  occ. eigenvalues --  -19.14895 -19.11168 -10.29090 -10.23122 -10.19660
 Alpha  occ. eigenvalues --   -1.06007  -1.01774  -0.79546  -0.67619  -0.60931
 Alpha  occ. eigenvalues --   -0.52794  -0.51113  -0.46377  -0.44653  -0.43223
 Alpha  occ. eigenvalues --   -0.42041  -0.38432  -0.33990  -0.29000  -0.26886
 Alpha virt. eigenvalues --   -0.07745  -0.00132   0.02009   0.02685   0.03135
 Alpha virt. eigenvalues --    0.05274   0.06059   0.07099   0.07364   0.08834
 Alpha virt. eigenvalues --    0.11142   0.11218   0.14490   0.15223   0.16928
 Alpha virt. eigenvalues --    0.18304   0.19317   0.20173   0.20321   0.21607
 Alpha virt. eigenvalues --    0.22178   0.24383   0.25554   0.26309   0.27141
 Alpha virt. eigenvalues --    0.28614   0.29258   0.29445   0.31503   0.33907
 Alpha virt. eigenvalues --    0.40282   0.42052   0.45002   0.47802   0.49440
 Alpha virt. eigenvalues --    0.51650   0.54014   0.56165   0.58308   0.61405
 Alpha virt. eigenvalues --    0.64282   0.66553   0.67421   0.69719   0.70305
 Alpha virt. eigenvalues --    0.74142   0.81605   0.88965   0.95715   1.03761
 Alpha virt. eigenvalues --    1.06476   1.08435   1.09446   1.13330   1.15962
 Alpha virt. eigenvalues --    1.22798   1.28773   1.35454   1.41909   1.44401
 Alpha virt. eigenvalues --    1.51149   1.53465   1.58560   1.60187   1.61706
 Alpha virt. eigenvalues --    1.63978   1.69410   1.75724   1.87730   1.89958
 Alpha virt. eigenvalues --    2.00496   2.10268   2.29933   2.38497   2.46932
 Alpha virt. eigenvalues --    2.48132   2.51367   2.54089   2.66787   2.81436
 Alpha virt. eigenvalues --    2.82776   2.83656   2.87286   2.90939   2.95287
 Alpha virt. eigenvalues --    3.02795   3.09706   3.17859   3.18421   3.25505
 Alpha virt. eigenvalues --    3.30180   3.39486   3.40749   3.59439   3.79341
 Alpha virt. eigenvalues --    3.94247   4.05166   4.99131   5.01988   5.06858
 Alpha virt. eigenvalues --    5.16914   5.43094   5.58544  23.48001  23.64511
 Alpha virt. eigenvalues --   23.65733  49.87190  49.87696
          Condensed to atoms (all electrons):
               1          2          3          4          5          6
     1  C    5.475242   0.374749   0.304930  -0.031709  -0.050529  -0.051958
     2  H    0.374749   0.535983  -0.050896  -0.090811   0.002246   0.003160
     3  O    0.304930  -0.050896   8.090206  -0.068506  -0.007188   0.010913
     4  C   -0.031709  -0.090811  -0.068506   6.120273   0.422958   0.343711
     5  H   -0.050529   0.002246  -0.007188   0.422958   0.408336  -0.027914
     6  H   -0.051958   0.003160   0.010913   0.343711  -0.027914   0.475758
     7  C   -0.050988   0.002767  -0.005331   0.068295  -0.038519  -0.009176
     8  H    0.028901  -0.000513  -0.002507  -0.101522  -0.009765  -0.000874
     9  H   -0.054558  -0.000713   0.003200  -0.004422   0.006776  -0.003128
    10  O   -0.056667   0.000359   0.000573  -0.030392  -0.006303   0.012363
    11  H    0.050443  -0.000019  -0.001139  -0.072625   0.001630  -0.001522
               7          8          9         10         11
     1  C   -0.050988   0.028901  -0.054558  -0.056667   0.050443
     2  H    0.002767  -0.000513  -0.000713   0.000359  -0.000019
     3  O   -0.005331  -0.002507   0.003200   0.000573  -0.001139
     4  C    0.068295  -0.101522  -0.004422  -0.030392  -0.072625
     5  H   -0.038519  -0.009765   0.006776  -0.006303   0.001630
     6  H   -0.009176  -0.000874  -0.003128   0.012363  -0.001522
     7  C    5.436712   0.440518   0.398742   0.206053   0.020716
     8  H    0.440518   0.478309  -0.044352  -0.053652   0.008974
     9  H    0.398742  -0.044352   0.536715  -0.065272  -0.005935
    10  O    0.206053  -0.053652  -0.065272   8.155516   0.225405
    11  H    0.020716   0.008974  -0.005935   0.225405   0.408997
 Mulliken charges:
               1
     1  C    0.062144
     2  H    0.223689
     3  O   -0.274256
     4  C   -0.555250
     5  H    0.298272
     6  H    0.248666
     7  C   -0.469790
     8  H    0.256485
     9  H    0.232947
    10  O   -0.387982
    11  H    0.365076
 Sum of Mulliken charges =  -0.00000
 Mulliken charges with hydrogens summed into heavy atoms:
               1
     1  C    0.285833
     3  O   -0.274256
     4  C   -0.008313
     7  C    0.019642
    10  O   -0.022906
 Electronic spatial extent (au):  <R**2>=            406.8110
 Charge=              0.0000 electrons
 Dipole moment (field-independent basis, Debye):
    X=             -0.4885    Y=              3.8748    Z=              1.2641  Tot=              4.1050
 Quadrupole moment (field-independent basis, Debye-Ang):
   XX=            -33.3165   YY=            -31.6785   ZZ=            -29.7670
   XY=              0.1862   XZ=             -0.4626   YZ=             -1.2812
 Traceless Quadrupole moment (field-independent basis, Debye-Ang):
   XX=             -1.7291   YY=             -0.0912   ZZ=              1.8203
   XY=              0.1862   XZ=             -0.4626   YZ=             -1.2812
 Octapole moment (field-independent basis, Debye-Ang**2):
  XXX=              0.0014  YYY=             -3.4298  ZZZ=             -0.5717  XYY=             -2.2198
  XXY=             11.0401  XXZ=              1.1695  XZZ=             -0.9869  YZZ=             -0.2918
  YYZ=              1.6268  XYZ=             -1.5329
 Hexadecapole moment (field-independent basis, Debye-Ang**3):
 XXXX=           -287.9365 YYYY=           -170.9438 ZZZZ=            -52.0632 XXXY=             -0.9168
 XXXZ=             -4.7115 YYYX=              3.1438 YYYZ=             -0.1679 ZZZX=              0.2170
 ZZZY=             -1.5785 XXYY=            -87.0978 XXZZ=            -56.0143 YYZZ=            -38.9032
 XXYZ=              0.4908 YYXZ=             -0.3527 ZZXY=              0.3916
 N-N= 1.791135459306D+02 E-N=-9.873618710277D+02  KE= 2.675175276559D+02
 No NMR shielding tensors so no spin-rotation constants.
 Leave Link  601 at Tue Oct 15 20:05:29 2019, MaxMem=   280000000 cpu:               2.2 elap:               0.1
 (Enter /home/soft/g16/l701.exe)
 ... and contract with generalized density number  0.
 Compute integral first derivatives.
 Leave Link  701 at Tue Oct 15 20:05:29 2019, MaxMem=   280000000 cpu:               3.1 elap:               0.2
 (Enter /home/soft/g16/l702.exe)
 L702 exits ... SP integral derivatives will be done elsewhere.
 Leave Link  702 at Tue Oct 15 20:05:29 2019, MaxMem=   280000000 cpu:               0.8 elap:               0.1
 (Enter /home/soft/g16/l703.exe)
 Integral derivatives from FoFJK, PRISM(SPDF).
 Compute integral first derivatives, UseDBF=F ICtDFT=           0.
 Calling FoFJK, ICntrl=      2127 FMM=F ISym2X=0 I1Cent= 0 IOpClX= 0 NMat=1 NMatS=1 NMatT=0.
 FoFJK:  IHMeth= 1 ICntrl=    2127 DoSepK=F KAlg= 0 I1Cent=           0 FoldK=F
 IRaf=         0 NMat=       1 IRICut=       1 DoRegI=T DoRafI=F ISym2E= 0 IDoP0=0 IntGTp=1.
 FoFCou: FMM=F IPFlag=           0 FMFlag=      100000 FMFlg1=         800
         NFxFlg=           0 DoJE=F BraDBF=F KetDBF=F FulRan=T
         wScrn=  0.000000 ICntrl=      2127 IOpCl=  0 I1Cent=           0 NGrid=           0
         NMat0=    1 NMatS0=      1 NMatT0=    0 NMatD0=    1 NMtDS0=    0 NMtDT0=    0
 Symmetry not used in FoFCou.
 Leave Link  703 at Tue Oct 15 20:05:30 2019, MaxMem=   280000000 cpu:              15.3 elap:               0.7
 (Enter /home/soft/g16/l716.exe)
 Dipole        =-1.92186312D-01 1.52448260D+00 4.97324841D-01
 ***** Axes restored to original set *****
 -------------------------------------------------------------------
 Center     Atomic                   Forces (Hartrees/Bohr)
 Number     Number              X              Y              Z
 -------------------------------------------------------------------
      1        6           0.064636207    0.036200378    0.005098934
      2        1          -0.021598215    0.000282813    0.000108941
      3        8          -0.043573430   -0.045630235    0.003456954
      4        6          -0.015071464    0.020857592   -0.015105005
      5        1           0.008647998    0.001473330    0.013212478
      6        1          -0.010799656   -0.013543357    0.003119339
      7        6           0.000511944    0.035070617    0.013351215
      8        1           0.011598886   -0.008171012   -0.000786705
      9        1          -0.010065597   -0.005499033   -0.015517536
     10        8           0.015951097   -0.024882789   -0.010388895
     11        1          -0.000237769    0.003841697    0.003450280
 -------------------------------------------------------------------
 Cartesian Forces:  Max     0.064636207 RMS     0.020901086
 Leave Link  716 at Tue Oct 15 20:05:30 2019, MaxMem=   280000000 cpu:               0.9 elap:               0.1
 (Enter /home/soft/g16/l103.exe)

 GradGradGradGradGradGradGradGradGradGradGradGradGradGradGradGradGradGrad
 Berny optimization.
 FormGI is forming the generalized inverse of G from B-inverse, IUseBI=4.
 Internal  Forces:  Max     0.061353786 RMS     0.015572729
 Search for a local minimum.
 Step number   1 out of a maximum of   54
 All quantities printed in internal units (Hartrees-Bohrs-Radians)
 RMS Force = .15573D-01 SwitMx=.10000D-02 MixMth= 1
 Mixed Optimization -- RFO/linear search
 Second derivative matrix not updated -- first step.
 ITU=  0
     Eigenvalues ---    0.00237   0.00237   0.00237   0.01295   0.04356
     Eigenvalues ---    0.05139   0.05410   0.05816   0.08669   0.11239
     Eigenvalues ---    0.12376   0.13704   0.16000   0.16000   0.21983
     Eigenvalues ---    0.22000   0.22071   0.28519   0.28519   0.37230
     Eigenvalues ---    0.37230   0.37230   0.37230   0.37230   0.40989
     Eigenvalues ---    0.55473   0.80209
 RFO step:  Lambda=-3.57796507D-02 EMin= 2.36824207D-03
 Linear search not attempted -- first point.
 Maximum step size (   0.300) exceeded in Quadratic search.
    -- Step size scaled by   0.944
 Iteration  1 RMS(Cart)=  0.19955137 RMS(Int)=  0.01382424
 Iteration  2 RMS(Cart)=  0.01630879 RMS(Int)=  0.00188093
 Iteration  3 RMS(Cart)=  0.00015841 RMS(Int)=  0.00187934
 Iteration  4 RMS(Cart)=  0.00000035 RMS(Int)=  0.00187934
 ITry= 1 IFail=0 DXMaxC= 7.64D-01 DCOld= 1.00D+10 DXMaxT= 3.00D-01 DXLimC= 3.00D+00 Rises=F
 Variable       Old X    -DE/DX   Delta X   Delta X   Delta X     New X
                                 (Linear)    (Quad)   (Total)
    R1        2.02201   0.02159   0.00000   0.04995   0.04995   2.07196
    R2        2.37803  -0.06135   0.00000  -0.06915  -0.06915   2.30889
    R3        2.91018  -0.00766   0.00000  -0.02255  -0.02255   2.88763
    R4        2.02201   0.01568   0.00000   0.03628   0.03628   2.05829
    R5        2.02201   0.01731   0.00000   0.04006   0.04006   2.06206
    R6        2.91018   0.01827   0.00000   0.05374   0.05374   2.96391
    R7        2.02201   0.01344   0.00000   0.03109   0.03109   2.05310
    R8        2.02201   0.01890   0.00000   0.04374   0.04374   2.06575
    R9        2.70231  -0.00832   0.00000  -0.01762  -0.01762   2.68468
   R10        1.81414   0.00330   0.00000   0.00527   0.00527   1.81941
    A1        2.09241  -0.01215   0.00000  -0.04520  -0.04520   2.04721
    A2        2.09241  -0.01157   0.00000  -0.04239  -0.04239   2.05002
    A3        2.09836   0.02373   0.00000   0.08759   0.08759   2.18594
    A4        1.91063  -0.00683   0.00000  -0.00303  -0.00593   1.90471
    A5        1.91063  -0.01420   0.00000  -0.07087  -0.07006   1.84057
    A6        1.91063   0.03285   0.00000   0.12962   0.12895   2.03958
    A7        1.91063   0.00378   0.00000  -0.01344  -0.01476   1.89587
    A8        1.91063  -0.00798   0.00000  -0.01172  -0.01439   1.89624
    A9        1.91063  -0.00763   0.00000  -0.03055  -0.02847   1.88216
   A10        1.91063  -0.00560   0.00000  -0.03090  -0.02772   1.88291
   A11        1.91063  -0.00815   0.00000  -0.00763  -0.01337   1.89727
   A12        1.91063   0.03696   0.00000   0.14404   0.14167   2.05230
   A13        1.91063   0.00188   0.00000  -0.02186  -0.02247   1.88816
   A14        1.91063  -0.02107   0.00000  -0.11696  -0.11457   1.79606
   A15        1.91063  -0.00401   0.00000   0.03332   0.02767   1.93830
   A16        1.91114   0.00327   0.00000   0.01579   0.01579   1.92693
    D1       -2.05223   0.00441   0.00000   0.03188   0.03204  -2.02018
    D2        0.04217  -0.00383   0.00000  -0.02984  -0.02852   0.01365
    D3        2.13656  -0.00175   0.00000  -0.03128  -0.03276   2.10381
    D4        1.08937   0.00418   0.00000   0.02630   0.02646   1.11583
    D5       -3.09942  -0.00406   0.00000  -0.03542  -0.03410  -3.13353
    D6       -1.00503  -0.00198   0.00000  -0.03686  -0.03834  -1.04336
    D7        2.98697   0.00669   0.00000   0.12067   0.12070   3.10767
    D8       -1.20182   0.00057   0.00000   0.07030   0.06996  -1.13185
    D9        0.89258   0.01330   0.00000   0.19464   0.19602   1.08860
   D10        0.89258  -0.00017   0.00000   0.05219   0.05158   0.94416
   D11        2.98697  -0.00629   0.00000   0.00182   0.00084   2.98782
   D12       -1.20182   0.00643   0.00000   0.12615   0.12690  -1.07492
   D13       -1.20182   0.00475   0.00000   0.09454   0.09414  -1.10768
   D14        0.89258  -0.00137   0.00000   0.04417   0.04340   0.93598
   D15        2.98697   0.01136   0.00000   0.16851   0.16946  -3.12676
   D16       -0.94880  -0.00042   0.00000  -0.00097  -0.00563  -0.95444
   D17       -3.04320  -0.00329   0.00000   0.02030   0.02279  -3.02041
   D18        1.14559   0.00977   0.00000   0.09829   0.10047   1.24606
         Item               Value     Threshold  Converged?
 Maximum Force            0.061354     0.000450     NO 
 RMS     Force            0.015573     0.000300     NO 
 Maximum Displacement     0.764164     0.001800     NO 
 RMS     Displacement     0.203870     0.001200     NO 
 Predicted change in Energy=-2.190970D-02
 Lowest energy point so far.  Saving SCF results.
 GradGradGradGradGradGradGradGradGradGradGradGradGradGradGradGradGradGrad

 Leave Link  103 at Tue Oct 15 20:05:31 2019, MaxMem=   280000000 cpu:              10.4 elap:               0.5
 (Enter /home/soft/g16/l202.exe)
                          Input orientation:                          
 ---------------------------------------------------------------------
 Center     Atomic      Atomic             Coordinates (Angstroms)
 Number     Number       Type             X           Y           Z
 ---------------------------------------------------------------------
      1          6           0       -0.739689    2.670311    0.089308
      2          1           0       -1.823857    2.523571    0.161527
      3          8           0       -0.327986    3.820613    0.100402
      4          6           0        0.135263    1.421486   -0.010113
      5          1           0        0.770122    1.359202    0.872740
      6          1           0       -0.558209    0.579037   -0.000838
      7          6           0        1.036820    1.287683   -1.286547
      8          1           0        1.616939    0.374060   -1.190968
      9          1           0        0.391083    1.191600   -2.163337
     10          8           0        2.034977    2.277167   -1.493713
     11          1           0        1.642772    3.156415   -1.485832
 ---------------------------------------------------------------------
                    Distance matrix (angstroms):
                    1          2          3          4          5
     1  C    0.000000
     2  H    1.096434   0.000000
     3  O    1.221810   1.980830   0.000000
     4  C    1.528067   2.254374   2.445940   0.000000
     5  H    2.147626   2.930922   2.803728   1.089199   0.000000
     6  H    2.101068   2.325820   3.251318   1.091197   1.770948
     7  C    2.638299   3.436250   3.194066   1.568436   2.176870
     8  H    3.530662   4.276531   4.162823   2.164921   2.438544
     9  H    2.922266   3.476363   3.543061   2.180519   3.064232
    10  O    3.218586   4.206083   3.241454   2.557767   2.835951
    11  H    2.897151   3.889961   2.615565   2.731356   3.091011
                    6          7          8          9         10
     6  H    0.000000
     7  C    2.167798   0.000000
     8  H    2.487910   1.086453   0.000000
     9  H    2.439834   1.093146   1.765388   0.000000
    10  O    3.440485   1.420674   1.971858   2.080682   0.000000
    11  H    3.700324   1.974602   2.798054   2.426156   0.962790
                   11
    11  H    0.000000
 Stoichiometry    C3H6O2
 Framework group  C1[X(C3H6O2)]
 Deg. of freedom    27
 Full point group                 C1      NOp   1
 RotChk:  IX=2 Diff= 1.81D-01
 Largest Abelian subgroup         C1      NOp   1
 Largest concise Abelian subgroup C1      NOp   1
                         Standard orientation:                         
 ---------------------------------------------------------------------
 Center     Atomic      Atomic             Coordinates (Angstroms)
 Number     Number       Type             X           Y           Z
 ---------------------------------------------------------------------
      1          6           0       -1.386060    0.272186    0.154931
      2          1           0       -2.136245    0.856375    0.700928
      3          8           0       -1.633800   -0.906681   -0.049318
      4          6           0       -0.118900    0.997836   -0.295321
      5          1           0       -0.081814    1.009386   -1.383827
      6          1           0       -0.229094    2.023473    0.060539
      7          6           0        1.244963    0.444960    0.247077
      8          1           0        2.042915    1.040561   -0.187562
      9          1           0        1.271157    0.579064    1.331649
     10          8           0        1.606943   -0.881019   -0.112180
     11          1           0        0.907918   -1.497146    0.130133
 ---------------------------------------------------------------------
 Rotational constants (GHZ):           8.9119428           3.5174136           2.6989563
 Leave Link  202 at Tue Oct 15 20:05:31 2019, MaxMem=   280000000 cpu:               1.2 elap:               0.1
 (Enter /home/soft/g16/l301.exe)
 Standard basis: 6-311+G(d) (5D, 7F)
 Ernie: Thresh=  0.10000D-02 Tol=  0.10000D-05 Strict=F.
 There are   133 symmetry adapted cartesian basis functions of A   symmetry.
 There are   128 symmetry adapted basis functions of A   symmetry.
   128 basis functions,   210 primitive gaussians,   133 cartesian basis functions
    20 alpha electrons       20 beta electrons
       nuclear repulsion energy       172.7248383547 Hartrees.
 IExCor=  402 DFT=T Ex+Corr=B3LYP ExCW=0 ScaHFX=  0.200000
 ScaDFX=  0.800000  0.720000  1.000000  0.810000 ScalE2=  1.000000  1.000000
 IRadAn=      5 IRanWt=     -1 IRanGd=            0 ICorTp=0 IEmpDi=  4
 NAtoms=   11 NActive=   11 NUniq=   11 SFac= 1.00D+00 NAtFMM=   60 NAOKFM=F Big=F
 Integral buffers will be    131072 words long.
 Raffenetti 2 integral format.
 Two-electron integral symmetry is turned on.
 Leave Link  301 at Tue Oct 15 20:05:31 2019, MaxMem=   280000000 cpu:               2.3 elap:               0.1
 (Enter /home/soft/g16/l302.exe)
 NPDir=0 NMtPBC=     1 NCelOv=     1 NCel=       1 NClECP=     1 NCelD=      1
         NCelK=      1 NCelE2=     1 NClLst=     1 CellRange=     0.0.
 One-electron integrals computed using PRISM.
 One-electron integral symmetry used in STVInt
 NBasis=   128 RedAO= T EigKep=  1.07D-04  NBF=   128
 NBsUse=   128 1.00D-06 EigRej= -1.00D+00 NBFU=   128
 Precomputing XC quadrature grid using
 IXCGrd= 4 IRadAn=           5 IRanWt=          -1 IRanGd=           0 AccXCQ= 0.00D+00.
 Generated NRdTot=       0 NPtTot=           0 NUsed=           0 NTot=          32
 NSgBfM=   133   133   133   133   133 MxSgAt=    11 MxSgA2=    11.
 Leave Link  302 at Tue Oct 15 20:05:31 2019, MaxMem=   280000000 cpu:               3.3 elap:               0.2
 (Enter /home/soft/g16/l303.exe)
 DipDrv:  MaxL=1.
 Leave Link  303 at Tue Oct 15 20:05:31 2019, MaxMem=   280000000 cpu:               1.0 elap:               0.1
 (Enter /home/soft/g16/l401.exe)
 Initial guess from the checkpoint file:  "P.chk"
 B after Tr=    -0.000000   -0.000000    0.000000
         Rot=    0.998480    0.008125    0.002166   -0.054470 Ang=   6.32 deg.
 Guess basis will be translated and rotated to current coordinates.
 JPrj=2 DoOrth=T DoCkMO=T.
 Generating alternative initial guess.
 ExpMin= 4.38D-02 ExpMax= 8.59D+03 ExpMxC= 1.30D+03 IAcc=2 IRadAn=         4 AccDes= 0.00D+00
 Harris functional with IExCor=  402 and IRadAn=       4 diagonalized for initial guess.
 HarFok:  IExCor=  402 AccDes= 0.00D+00 IRadAn=         4 IDoV= 1 UseB2=F ITyADJ=14
 ICtDFT=  3500011 ScaDFX=  1.000000  1.000000  1.000000  1.000000
 FoFCou: FMM=F IPFlag=           0 FMFlag=      100000 FMFlg1=           0
         NFxFlg=           0 DoJE=T BraDBF=F KetDBF=T FulRan=T
         wScrn=  0.000000 ICntrl=       500 IOpCl=  0 I1Cent=   200000004 NGrid=           0
         NMat0=    1 NMatS0=      1 NMatT0=    0 NMatD0=    1 NMtDS0=    0 NMtDT0=    0
 Petite list used in FoFCou.
 Harris En= -268.457817555655    
 Leave Link  401 at Tue Oct 15 20:05:31 2019, MaxMem=   280000000 cpu:               7.0 elap:               0.3
 (Enter /home/soft/g16/l502.exe)
 Keep R1 ints in memory in canonical form, NReq=57089853.
 FoFCou: FMM=F IPFlag=           0 FMFlag=           0 FMFlg1=           0
         NFxFlg=           0 DoJE=F BraDBF=F KetDBF=F FulRan=T
         wScrn=  0.000000 ICntrl=       600 IOpCl=  0 I1Cent=           0 NGrid=           0
         NMat0=    1 NMatS0=   8256 NMatT0=    0 NMatD0=    1 NMtDS0=    0 NMtDT0=    0
 Symmetry not used in FoFCou.
 Two-electron integral symmetry not used.
 Closed shell SCF:
 Using DIIS extrapolation, IDIIS=  1040.
 NGot=   280000000 LenX=   245875047 LenY=   245856917
 Requested convergence on RMS density matrix=1.00D-08 within 128 cycles.
 Requested convergence on MAX density matrix=1.00D-06.
 Requested convergence on             energy=1.00D-06.
 No special actions if energy rises.

 Cycle   1  Pass 1  IDiag  1:
 E= -268.373702687670    
 DIIS: error= 1.59D-02 at cycle   1 NSaved=   1.
 NSaved= 1 IEnMin= 1 EnMin= -268.373702687670     IErMin= 1 ErrMin= 1.59D-02
 ErrMax= 1.59D-02  0.00D+00 EMaxC= 1.00D-01 BMatC= 3.38D-02 BMatP= 3.38D-02
 IDIUse=3 WtCom= 8.41D-01 WtEn= 1.59D-01
 Coeff-Com:  0.100D+01
 Coeff-En:   0.100D+01
 Coeff:      0.100D+01
 Recover alternate guess density for next cycle.
 RMSDP=4.17D-03 MaxDP=5.65D-02              OVMax= 0.00D+00

 Cycle   2  Pass 1  IDiag  1:
 E= -268.269009640820     Delta-E=        0.104693046850 Rises=F Damp=F
 Switch densities from cycles 1 and 2 for lowest energy.
 DIIS: error= 2.86D-02 at cycle   2 NSaved=   2.
 NSaved= 2 IEnMin= 1 EnMin= -268.373702687670     IErMin= 1 ErrMin= 1.59D-02
 ErrMax= 2.86D-02  0.00D+00 EMaxC= 1.00D+00 BMatC= 2.11D-01 BMatP= 3.38D-02
 IDIUse=1 WtCom= 1.00D+00 WtEn= 0.00D+00
 Coeff-Com:  0.885D+00 0.115D+00
 Coeff:      0.885D+00 0.115D+00
 Gap=     0.202 Goal=   None    Shift=    0.000
 RMSDP=3.92D-03 MaxDP=9.03D-02 DE= 1.05D-01 OVMax= 1.14D-01

 Cycle   3  Pass 1  IDiag  1:
 E= -268.415561884493     Delta-E=       -0.146552243673 Rises=F Damp=F
 DIIS: error= 1.10D-02 at cycle   3 NSaved=   3.
 NSaved= 3 IEnMin= 3 EnMin= -268.415561884493     IErMin= 3 ErrMin= 1.10D-02
 ErrMax= 1.10D-02  0.00D+00 EMaxC= 1.00D+00 BMatC= 1.40D-02 BMatP= 3.38D-02
 IDIUse=1 WtCom= 1.00D+00 WtEn= 0.00D+00
 Coeff-Com:  0.310D-01 0.185D+00 0.784D+00
 Coeff:      0.310D-01 0.185D+00 0.784D+00
 Gap=     0.219 Goal=   None    Shift=    0.000
 RMSDP=1.06D-03 MaxDP=1.52D-02 DE=-1.47D-01 OVMax= 4.57D-02

 Cycle   4  Pass 1  IDiag  1:
 E= -268.422427092012     Delta-E=       -0.006865207519 Rises=F Damp=F
 DIIS: error= 7.55D-03 at cycle   4 NSaved=   4.
 NSaved= 4 IEnMin= 4 EnMin= -268.422427092012     IErMin= 4 ErrMin= 7.55D-03
 ErrMax= 7.55D-03  0.00D+00 EMaxC= 1.00D+00 BMatC= 4.62D-03 BMatP= 1.40D-02
 IDIUse=1 WtCom= 1.00D+00 WtEn= 0.00D+00
 Coeff-Com: -0.179D-01 0.874D-01 0.493D+00 0.438D+00
 Coeff:     -0.179D-01 0.874D-01 0.493D+00 0.438D+00
 Gap=     0.213 Goal=   None    Shift=    0.000
 RMSDP=4.42D-04 MaxDP=6.75D-03 DE=-6.87D-03 OVMax= 2.60D-02

 Cycle   5  Pass 1  IDiag  1:
 E= -268.425828664634     Delta-E=       -0.003401572622 Rises=F Damp=F
 DIIS: error= 1.36D-03 at cycle   5 NSaved=   5.
 NSaved= 5 IEnMin= 5 EnMin= -268.425828664634     IErMin= 5 ErrMin= 1.36D-03
 ErrMax= 1.36D-03  0.00D+00 EMaxC= 1.00D+00 BMatC= 2.95D-04 BMatP= 4.62D-03
 IDIUse=1 WtCom= 1.00D+00 WtEn= 0.00D+00
 Coeff-Com: -0.127D-01 0.205D-01 0.170D+00 0.247D+00 0.575D+00
 Coeff:     -0.127D-01 0.205D-01 0.170D+00 0.247D+00 0.575D+00
 Gap=     0.213 Goal=   None    Shift=    0.000
 RMSDP=1.33D-04 MaxDP=2.07D-03 DE=-3.40D-03 OVMax= 3.62D-03

 Cycle   6  Pass 1  IDiag  1:
 E= -268.426042900456     Delta-E=       -0.000214235823 Rises=F Damp=F
 DIIS: error= 4.59D-04 at cycle   6 NSaved=   6.
 NSaved= 6 IEnMin= 6 EnMin= -268.426042900456     IErMin= 6 ErrMin= 4.59D-04
 ErrMax= 4.59D-04  0.00D+00 EMaxC= 1.00D+00 BMatC= 1.79D-05 BMatP= 2.95D-04
 IDIUse=1 WtCom= 1.00D+00 WtEn= 0.00D+00
 Coeff-Com: -0.465D-02 0.426D-02 0.514D-01 0.965D-01 0.289D+00 0.564D+00
 Coeff:     -0.465D-02 0.426D-02 0.514D-01 0.965D-01 0.289D+00 0.564D+00
 Gap=     0.213 Goal=   None    Shift=    0.000
 RMSDP=4.18D-05 MaxDP=1.47D-03 DE=-2.14D-04 OVMax= 9.50D-04

 Cycle   7  Pass 1  IDiag  1:
 E= -268.426055126691     Delta-E=       -0.000012226235 Rises=F Damp=F
 DIIS: error= 1.10D-04 at cycle   7 NSaved=   7.
 NSaved= 7 IEnMin= 7 EnMin= -268.426055126691     IErMin= 7 ErrMin= 1.10D-04
 ErrMax= 1.10D-04  0.00D+00 EMaxC= 1.00D+00 BMatC= 2.10D-06 BMatP= 1.79D-05
 IDIUse=1 WtCom= 1.00D+00 WtEn= 0.00D+00
 Coeff-Com: -0.691D-03-0.426D-03 0.630D-02 0.218D-01 0.838D-01 0.301D+00
 Coeff-Com:  0.589D+00
 Coeff:     -0.691D-03-0.426D-03 0.630D-02 0.218D-01 0.838D-01 0.301D+00
 Coeff:      0.589D+00
 Gap=     0.213 Goal=   None    Shift=    0.000
 RMSDP=1.53D-05 MaxDP=5.10D-04 DE=-1.22D-05 OVMax= 2.99D-04

 Cycle   8  Pass 1  IDiag  1:
 E= -268.426056803763     Delta-E=       -0.000001677073 Rises=F Damp=F
 DIIS: error= 1.05D-05 at cycle   8 NSaved=   8.
 NSaved= 8 IEnMin= 8 EnMin= -268.426056803763     IErMin= 8 ErrMin= 1.05D-05
 ErrMax= 1.05D-05  0.00D+00 EMaxC= 1.00D+00 BMatC= 3.24D-08 BMatP= 2.10D-06
 IDIUse=1 WtCom= 1.00D+00 WtEn= 0.00D+00
 Coeff-Com: -0.107D-03-0.226D-03 0.236D-03 0.369D-02 0.160D-01 0.760D-01
 Coeff-Com:  0.186D+00 0.719D+00
 Coeff:     -0.107D-03-0.226D-03 0.236D-03 0.369D-02 0.160D-01 0.760D-01
 Coeff:      0.186D+00 0.719D+00
 Gap=     0.213 Goal=   None    Shift=    0.000
 RMSDP=1.96D-06 MaxDP=5.09D-05 DE=-1.68D-06 OVMax= 1.14D-04

 Cycle   9  Pass 1  IDiag  1:
 E= -268.426056838544     Delta-E=       -0.000000034781 Rises=F Damp=F
 DIIS: error= 6.10D-06 at cycle   9 NSaved=   9.
 NSaved= 9 IEnMin= 9 EnMin= -268.426056838544     IErMin= 9 ErrMin= 6.10D-06
 ErrMax= 6.10D-06  0.00D+00 EMaxC= 1.00D+00 BMatC= 5.89D-09 BMatP= 3.24D-08
 IDIUse=1 WtCom= 1.00D+00 WtEn= 0.00D+00
 Coeff-Com:  0.454D-04-0.584D-04-0.798D-03-0.103D-02-0.331D-02-0.273D-02
 Coeff-Com:  0.946D-02 0.298D+00 0.701D+00
 Coeff:      0.454D-04-0.584D-04-0.798D-03-0.103D-02-0.331D-02-0.273D-02
 Coeff:      0.946D-02 0.298D+00 0.701D+00
 Gap=     0.213 Goal=   None    Shift=    0.000
 RMSDP=1.01D-06 MaxDP=2.76D-05 DE=-3.48D-08 OVMax= 6.52D-05

 Cycle  10  Pass 1  IDiag  1:
 E= -268.426056846344     Delta-E=       -0.000000007800 Rises=F Damp=F
 DIIS: error= 1.35D-06 at cycle  10 NSaved=  10.
 NSaved=10 IEnMin=10 EnMin= -268.426056846344     IErMin=10 ErrMin= 1.35D-06
 ErrMax= 1.35D-06  0.00D+00 EMaxC= 1.00D+00 BMatC= 3.13D-10 BMatP= 5.89D-09
 IDIUse=1 WtCom= 1.00D+00 WtEn= 0.00D+00
 Coeff-Com:  0.223D-04 0.113D-04-0.240D-03-0.698D-03-0.278D-02-0.978D-02
 Coeff-Com: -0.194D-01-0.617D-02 0.180D+00 0.859D+00
 Coeff:      0.223D-04 0.113D-04-0.240D-03-0.698D-03-0.278D-02-0.978D-02
 Coeff:     -0.194D-01-0.617D-02 0.180D+00 0.859D+00
 Gap=     0.213 Goal=   None    Shift=    0.000
 RMSDP=3.43D-07 MaxDP=6.50D-06 DE=-7.80D-09 OVMax= 2.79D-05

 Cycle  11  Pass 1  IDiag  1:
 E= -268.426056847001     Delta-E=       -0.000000000657 Rises=F Damp=F
 DIIS: error= 4.31D-07 at cycle  11 NSaved=  11.
 NSaved=11 IEnMin=11 EnMin= -268.426056847001     IErMin=11 ErrMin= 4.31D-07
 ErrMax= 4.31D-07  0.00D+00 EMaxC= 1.00D+00 BMatC= 3.15D-11 BMatP= 3.13D-10
 IDIUse=1 WtCom= 1.00D+00 WtEn= 0.00D+00
 Coeff-Com:  0.378D-05 0.662D-05-0.756D-05-0.132D-03-0.552D-03-0.256D-02
 Coeff-Com: -0.590D-02-0.199D-01 0.632D-02 0.268D+00 0.754D+00
 Coeff:      0.378D-05 0.662D-05-0.756D-05-0.132D-03-0.552D-03-0.256D-02
 Coeff:     -0.590D-02-0.199D-01 0.632D-02 0.268D+00 0.754D+00
 Gap=     0.213 Goal=   None    Shift=    0.000
 RMSDP=6.76D-08 MaxDP=1.41D-06 DE=-6.57D-10 OVMax= 5.75D-06

 Cycle  12  Pass 1  IDiag  1:
 E= -268.426056847038     Delta-E=       -0.000000000037 Rises=F Damp=F
 DIIS: error= 1.74D-07 at cycle  12 NSaved=  12.
 NSaved=12 IEnMin=12 EnMin= -268.426056847038     IErMin=12 ErrMin= 1.74D-07
 ErrMax= 1.74D-07  0.00D+00 EMaxC= 1.00D+00 BMatC= 7.08D-12 BMatP= 3.15D-11
 IDIUse=1 WtCom= 1.00D+00 WtEn= 0.00D+00
 Coeff-Com: -0.106D-05 0.186D-05 0.292D-04 0.238D-04 0.908D-04 0.358D-04
 Coeff-Com: -0.246D-03-0.864D-02-0.226D-01 0.114D-01 0.370D+00 0.650D+00
 Coeff:     -0.106D-05 0.186D-05 0.292D-04 0.238D-04 0.908D-04 0.358D-04
 Coeff:     -0.246D-03-0.864D-02-0.226D-01 0.114D-01 0.370D+00 0.650D+00
 Gap=     0.213 Goal=   None    Shift=    0.000
 RMSDP=2.60D-08 MaxDP=5.53D-07 DE=-3.68D-11 OVMax= 1.58D-06

 Cycle  13  Pass 1  IDiag  1:
 E= -268.426056847044     Delta-E=       -0.000000000006 Rises=F Damp=F
 DIIS: error= 1.69D-08 at cycle  13 NSaved=  13.
 NSaved=13 IEnMin=13 EnMin= -268.426056847044     IErMin=13 ErrMin= 1.69D-08
 ErrMax= 1.69D-08  0.00D+00 EMaxC= 1.00D+00 BMatC= 6.11D-14 BMatP= 7.08D-12
 IDIUse=1 WtCom= 1.00D+00 WtEn= 0.00D+00
 Coeff-Com: -0.265D-06 0.513D-07 0.411D-05 0.779D-05 0.297D-04 0.841D-04
 Coeff-Com:  0.151D-03-0.863D-03-0.353D-02-0.662D-02 0.308D-01 0.115D+00
 Coeff-Com:  0.865D+00
 Coeff:     -0.265D-06 0.513D-07 0.411D-05 0.779D-05 0.297D-04 0.841D-04
 Coeff:      0.151D-03-0.863D-03-0.353D-02-0.662D-02 0.308D-01 0.115D+00
 Coeff:      0.865D+00
 Gap=     0.213 Goal=   None    Shift=    0.000
 RMSDP=4.31D-09 MaxDP=1.79D-07 DE=-6.25D-12 OVMax= 1.93D-07

 SCF Done:  E(RB3LYP) =  -268.426056847     A.U. after   13 cycles
            NFock= 13  Conv=0.43D-08     -V/T= 2.0038
 KE= 2.674062455376D+02 PE=-9.744150163468D+02 EE= 2.658578756075D+02
 Leave Link  502 at Tue Oct 15 20:05:34 2019, MaxMem=   280000000 cpu:              57.8 elap:               3.0
 (Enter /home/soft/g16/l701.exe)
 ... and contract with generalized density number  0.
 Compute integral first derivatives.
 Leave Link  701 at Tue Oct 15 20:05:35 2019, MaxMem=   280000000 cpu:               2.7 elap:               0.1
 (Enter /home/soft/g16/l702.exe)
 L702 exits ... SP integral derivatives will be done elsewhere.
 Leave Link  702 at Tue Oct 15 20:05:35 2019, MaxMem=   280000000 cpu:               1.0 elap:               0.1
 (Enter /home/soft/g16/l703.exe)
 Integral derivatives from FoFJK, PRISM(SPDF).
 Compute integral first derivatives, UseDBF=F ICtDFT=           0.
 Calling FoFJK, ICntrl=      2127 FMM=F ISym2X=0 I1Cent= 0 IOpClX= 0 NMat=1 NMatS=1 NMatT=0.
 FoFJK:  IHMeth= 1 ICntrl=    2127 DoSepK=F KAlg= 0 I1Cent=           0 FoldK=F
 IRaf=         0 NMat=       1 IRICut=       1 DoRegI=T DoRafI=F ISym2E= 0 IDoP0=0 IntGTp=1.
 FoFCou: FMM=F IPFlag=           0 FMFlag=      100000 FMFlg1=         800
         NFxFlg=           0 DoJE=F BraDBF=F KetDBF=F FulRan=T
         wScrn=  0.000000 ICntrl=      2127 IOpCl=  0 I1Cent=           0 NGrid=           0
         NMat0=    1 NMatS0=      1 NMatT0=    0 NMatD0=    1 NMtDS0=    0 NMtDT0=    0
 Symmetry not used in FoFCou.
 Leave Link  703 at Tue Oct 15 20:05:35 2019, MaxMem=   280000000 cpu:              15.4 elap:               0.7
 (Enter /home/soft/g16/l716.exe)
 Dipole        =-1.94995095D-01 1.22206759D+00 3.81044632D-01
 ***** Axes restored to original set *****
 -------------------------------------------------------------------
 Center     Atomic                   Forces (Hartrees/Bohr)
 Number     Number              X              Y              Z
 -------------------------------------------------------------------
      1        6           0.017692862    0.018962621   -0.001938509
      2        1          -0.006864035   -0.005286875    0.000442250
      3        8          -0.000442159   -0.018630968   -0.002857796
      4        6          -0.001337638    0.007369181   -0.009376603
      5        1           0.001200648    0.001627073    0.003782800
      6        1           0.002731422   -0.005780115    0.000777856
      7        6          -0.001175971    0.004315373    0.005468785
      8        1          -0.002914639   -0.005471104    0.000217717
      9        1          -0.001342438    0.000739464   -0.003091644
     10        8          -0.005430068   -0.000923194    0.005674617
     11        1          -0.002117984    0.003078546    0.000900527
 -------------------------------------------------------------------
 Cartesian Forces:  Max     0.018962621 RMS     0.006716355
 Leave Link  716 at Tue Oct 15 20:05:35 2019, MaxMem=   280000000 cpu:               1.0 elap:               0.1
 (Enter /home/soft/g16/l103.exe)

 GradGradGradGradGradGradGradGradGradGradGradGradGradGradGradGradGradGrad
 Berny optimization.
 Using GEDIIS/GDIIS optimizer.
 FormGI is forming the generalized inverse of G from B-inverse, IUseBI=4.
 Internal  Forces:  Max     0.017715343 RMS     0.006195984
 Search for a local minimum.
 Step number   2 out of a maximum of   54
 All quantities printed in internal units (Hartrees-Bohrs-Radians)
 RMS Force = .61960D-02 SwitMx=.10000D-02 MixMth= 1
 Mixed Optimization -- RFO/linear search
 Update second derivatives using D2CorX and points    1    2
 DE= -8.99D-03 DEPred=-2.19D-02 R= 4.11D-01
 Trust test= 4.11D-01 RLast= 4.69D-01 DXMaxT set to 3.00D-01
 ITU=  0  0
 Use linear search instead of GDIIS.
     Eigenvalues ---    0.00236   0.00237   0.00271   0.01302   0.03649
     Eigenvalues ---    0.04700   0.05344   0.05846   0.09875   0.12215
     Eigenvalues ---    0.13221   0.14368   0.15932   0.16022   0.21879
     Eigenvalues ---    0.22131   0.26213   0.28111   0.34317   0.36329
     Eigenvalues ---    0.37230   0.37230   0.37230   0.37836   0.41010
     Eigenvalues ---    0.55461   0.72813
 RFO step:  Lambda=-5.15681754D-03 EMin= 2.36194430D-03
 Quartic linear search produced a step of -0.29683.
 Iteration  1 RMS(Cart)=  0.11491048 RMS(Int)=  0.00514433
 Iteration  2 RMS(Cart)=  0.00681511 RMS(Int)=  0.00080717
 Iteration  3 RMS(Cart)=  0.00002760 RMS(Int)=  0.00080696
 Iteration  4 RMS(Cart)=  0.00000002 RMS(Int)=  0.00080696
 ITry= 1 IFail=0 DXMaxC= 3.91D-01 DCOld= 1.00D+10 DXMaxT= 3.00D-01 DXLimC= 3.00D+00 Rises=F
 Variable       Old X    -DE/DX   Delta X   Delta X   Delta X     New X
                                 (Linear)    (Quad)   (Total)
    R1        2.07196   0.00752  -0.01483   0.04055   0.02572   2.09768
    R2        2.30889  -0.01772   0.02052  -0.05387  -0.03335   2.27554
    R3        2.88763  -0.01028   0.00669  -0.03687  -0.03017   2.85745
    R4        2.05829   0.00367  -0.01077   0.02605   0.01528   2.07357
    R5        2.06206   0.00273  -0.01189   0.02626   0.01437   2.07643
    R6        2.96391  -0.01507  -0.01595  -0.00965  -0.02560   2.93831
    R7        2.05310   0.00306  -0.00923   0.02217   0.01294   2.06604
    R8        2.06575   0.00321  -0.01298   0.02909   0.01611   2.08186
    R9        2.68468  -0.00476   0.00523  -0.01756  -0.01233   2.67236
   R10        1.81941   0.00368  -0.00156   0.00756   0.00600   1.82541
    A1        2.04721   0.00763   0.01342   0.00740   0.01815   2.06536
    A2        2.05002  -0.00131   0.01258  -0.03005  -0.02011   2.02991
    A3        2.18594  -0.00632  -0.02600   0.02328  -0.00536   2.18058
    A4        1.90471   0.00251   0.00176  -0.02287  -0.02093   1.88378
    A5        1.84057   0.00858   0.02080   0.02252   0.04333   1.88390
    A6        2.03958  -0.01504  -0.03828   0.01113  -0.02739   2.01219
    A7        1.89587  -0.00252   0.00438   0.00068   0.00566   1.90153
    A8        1.89624   0.00502   0.00427  -0.01258  -0.00834   1.88790
    A9        1.88216   0.00192   0.00845   0.00215   0.01024   1.89240
   A10        1.88291   0.00108   0.00823  -0.00144   0.00607   1.88898
   A11        1.89727   0.00509   0.00397  -0.00726  -0.00199   1.89528
   A12        2.05230  -0.01664  -0.04205   0.01329  -0.02831   2.02400
   A13        1.88816  -0.00190   0.00667  -0.00294   0.00396   1.89213
   A14        1.79606   0.00869   0.03401  -0.00039   0.03306   1.82912
   A15        1.93830   0.00442  -0.00821  -0.00192  -0.00888   1.92942
   A16        1.92693  -0.00147  -0.00469   0.00095  -0.00374   1.92319
    D1       -2.02018  -0.00167  -0.00951   0.01607   0.00690  -2.01328
    D2        0.01365   0.00112   0.00847   0.01767   0.02586   0.03950
    D3        2.10381   0.00079   0.00972   0.04388   0.05384   2.15765
    D4        1.11583  -0.00034  -0.00786   0.15268   0.14497   1.26080
    D5       -3.13353   0.00245   0.01012   0.15428   0.16393  -2.96960
    D6       -1.04336   0.00212   0.01138   0.18049   0.19191  -0.85145
    D7        3.10767  -0.00140  -0.03583  -0.14803  -0.18375   2.92393
    D8       -1.13185  -0.00034  -0.02077  -0.15618  -0.17679  -1.30865
    D9        1.08860  -0.00319  -0.05818  -0.15457  -0.21298   0.87562
   D10        0.94416   0.00226  -0.01531  -0.11500  -0.13024   0.81391
   D11        2.98782   0.00332  -0.00025  -0.12315  -0.12329   2.86453
   D12       -1.07492   0.00046  -0.03767  -0.12154  -0.15948  -1.23439
   D13       -1.10768   0.00148  -0.02794  -0.11020  -0.13803  -1.24571
   D14        0.93598   0.00255  -0.01288  -0.11835  -0.13108   0.80490
   D15       -3.12676  -0.00031  -0.05030  -0.11674  -0.16726   2.98916
   D16       -0.95444   0.00093   0.00167   0.00172   0.00451  -0.94993
   D17       -3.02041   0.00237  -0.00676  -0.00341  -0.01079  -3.03120
   D18        1.24606  -0.00202  -0.02982   0.00104  -0.02929   1.21677
         Item               Value     Threshold  Converged?
 Maximum Force            0.017715     0.000450     NO 
 RMS     Force            0.006196     0.000300     NO 
 Maximum Displacement     0.391178     0.001800     NO 
 RMS     Displacement     0.115116     0.001200     NO 
 Predicted change in Energy=-4.029371D-04
 Lowest energy point so far.  Saving SCF results.
 GradGradGradGradGradGradGradGradGradGradGradGradGradGradGradGradGradGrad

 Leave Link  103 at Tue Oct 15 20:05:36 2019, MaxMem=   280000000 cpu:              21.9 elap:               1.1
 (Enter /home/soft/g16/l202.exe)
                          Input orientation:                          
 ---------------------------------------------------------------------
 Center     Atomic      Atomic             Coordinates (Angstroms)
 Number     Number       Type             X           Y           Z
 ---------------------------------------------------------------------
      1          6           0       -0.652209    2.683262    0.106211
      2          1           0       -1.757540    2.600700    0.166414
      3          8           0       -0.165089    3.780834    0.016449
      4          6           0        0.110812    1.384088   -0.021823
      5          1           0        0.721989    1.260835    0.881121
      6          1           0       -0.620553    0.565591   -0.072136
      7          6           0        1.047459    1.282982   -1.258811
      8          1           0        1.698941    0.415319   -1.124515
      9          1           0        0.428763    1.118096   -2.155309
     10          8           0        1.929893    2.369971   -1.457780
     11          1           0        1.435769    3.199465   -1.487192
 ---------------------------------------------------------------------
                    Distance matrix (angstroms):
                    1          2          3          4          5
     1  C    0.000000
     2  H    1.110044   0.000000
     3  O    1.204163   1.987739   0.000000
     4  C    1.512099   2.237480   2.412877   0.000000
     5  H    2.124194   2.907595   2.808018   1.097286   0.000000
     6  H    2.125403   2.343356   3.248551   1.098801   1.787311
     7  C    2.590934   3.411109   3.055459   1.554886   2.164655
     8  H    3.490867   4.288315   4.012866   2.162545   2.385772
     9  H    2.955117   3.516878   3.487029   2.173387   3.053893
    10  O    3.035041   4.035890   2.924523   2.518530   2.856514
    11  H    2.676762   3.645567   2.271932   2.682986   3.142718
                    6          7          8          9         10
     6  H    0.000000
     7  C    2.169126   0.000000
     8  H    2.551496   1.093299   0.000000
     9  H    2.397068   1.101671   1.780389   0.000000
    10  O    3.417685   1.414151   1.996263   2.075363   0.000000
    11  H    3.628793   1.968718   2.819975   2.406770   0.965963
                   11
    11  H    0.000000
 Stoichiometry    C3H6O2
 Framework group  C1[X(C3H6O2)]
 Deg. of freedom    27
 Full point group                 C1      NOp   1
 RotChk:  IX=0 Diff= 4.70D-02
 Largest Abelian subgroup         C1      NOp   1
 Largest concise Abelian subgroup C1      NOp   1
                         Standard orientation:                         
 ---------------------------------------------------------------------
 Center     Atomic      Atomic             Coordinates (Angstroms)
 Number     Number       Type             X           Y           Z
 ---------------------------------------------------------------------
      1          6           0       -1.342860    0.275235    0.124837
      2          1           0       -2.109520    0.819072    0.715320
      3          8           0       -1.492356   -0.905860   -0.055929
      4          6           0       -0.104359    1.058441   -0.248187
      5          1           0       -0.081404    1.153894   -1.341072
      6          1           0       -0.190724    2.059862    0.195726
      7          6           0        1.241901    0.431235    0.212104
      8          1           0        2.055093    0.954239   -0.298277
      9          1           0        1.351541    0.591652    1.296505
     10          8           0        1.431552   -0.932728   -0.109551
     11          1           0        0.693349   -1.459485    0.223117
 ---------------------------------------------------------------------
 Rotational constants (GHZ):           8.5643204           4.0221082           2.9235521
 Leave Link  202 at Tue Oct 15 20:05:36 2019, MaxMem=   280000000 cpu:               0.9 elap:               0.1
 (Enter /home/soft/g16/l301.exe)
 Standard basis: 6-311+G(d) (5D, 7F)
 Ernie: Thresh=  0.10000D-02 Tol=  0.10000D-05 Strict=F.
 There are   133 symmetry adapted cartesian basis functions of A   symmetry.
 There are   128 symmetry adapted basis functions of A   symmetry.
   128 basis functions,   210 primitive gaussians,   133 cartesian basis functions
    20 alpha electrons       20 beta electrons
       nuclear repulsion energy       176.0787535995 Hartrees.
 IExCor=  402 DFT=T Ex+Corr=B3LYP ExCW=0 ScaHFX=  0.200000
 ScaDFX=  0.800000  0.720000  1.000000  0.810000 ScalE2=  1.000000  1.000000
 IRadAn=      5 IRanWt=     -1 IRanGd=            0 ICorTp=0 IEmpDi=  4
 NAtoms=   11 NActive=   11 NUniq=   11 SFac= 1.00D+00 NAtFMM=   60 NAOKFM=F Big=F
 Integral buffers will be    131072 words long.
 Raffenetti 2 integral format.
 Two-electron integral symmetry is turned on.
 Leave Link  301 at Tue Oct 15 20:05:37 2019, MaxMem=   280000000 cpu:               1.7 elap:               0.1
 (Enter /home/soft/g16/l302.exe)
 NPDir=0 NMtPBC=     1 NCelOv=     1 NCel=       1 NClECP=     1 NCelD=      1
         NCelK=      1 NCelE2=     1 NClLst=     1 CellRange=     0.0.
 One-electron integrals computed using PRISM.
 One-electron integral symmetry used in STVInt
 NBasis=   128 RedAO= T EigKep=  9.26D-05  NBF=   128
 NBsUse=   128 1.00D-06 EigRej= -1.00D+00 NBFU=   128
 Precomputing XC quadrature grid using
 IXCGrd= 4 IRadAn=           5 IRanWt=          -1 IRanGd=           0 AccXCQ= 0.00D+00.
 Generated NRdTot=       0 NPtTot=           0 NUsed=           0 NTot=          32
 NSgBfM=   133   133   133   133   133 MxSgAt=    11 MxSgA2=    11.
 Leave Link  302 at Tue Oct 15 20:05:37 2019, MaxMem=   280000000 cpu:               4.6 elap:               0.3
 (Enter /home/soft/g16/l303.exe)
 DipDrv:  MaxL=1.
 Leave Link  303 at Tue Oct 15 20:05:37 2019, MaxMem=   280000000 cpu:               0.9 elap:               0.1
 (Enter /home/soft/g16/l401.exe)
 Initial guess from the checkpoint file:  "P.chk"
 B after Tr=     0.000000    0.000000   -0.000000
         Rot=    0.999935   -0.006809   -0.002574    0.008755 Ang=  -1.30 deg.
 Guess basis will be translated and rotated to current coordinates.
 JPrj=2 DoOrth=T DoCkMO=T.
 Generating alternative initial guess.
 ExpMin= 4.38D-02 ExpMax= 8.59D+03 ExpMxC= 1.30D+03 IAcc=2 IRadAn=         4 AccDes= 0.00D+00
 Harris functional with IExCor=  402 and IRadAn=       4 diagonalized for initial guess.
 HarFok:  IExCor=  402 AccDes= 0.00D+00 IRadAn=         4 IDoV= 1 UseB2=F ITyADJ=14
 ICtDFT=  3500011 ScaDFX=  1.000000  1.000000  1.000000  1.000000
 FoFCou: FMM=F IPFlag=           0 FMFlag=      100000 FMFlg1=           0
         NFxFlg=           0 DoJE=T BraDBF=F KetDBF=T FulRan=T
         wScrn=  0.000000 ICntrl=       500 IOpCl=  0 I1Cent=   200000004 NGrid=           0
         NMat0=    1 NMatS0=      1 NMatT0=    0 NMatD0=    1 NMtDS0=    0 NMtDT0=    0
 Petite list used in FoFCou.
 Harris En= -268.457987061932    
 Leave Link  401 at Tue Oct 15 20:05:37 2019, MaxMem=   280000000 cpu:               5.9 elap:               0.3
 (Enter /home/soft/g16/l502.exe)
 Keep R1 ints in memory in canonical form, NReq=57089853.
 FoFCou: FMM=F IPFlag=           0 FMFlag=           0 FMFlg1=           0
         NFxFlg=           0 DoJE=F BraDBF=F KetDBF=F FulRan=T
         wScrn=  0.000000 ICntrl=       600 IOpCl=  0 I1Cent=           0 NGrid=           0
         NMat0=    1 NMatS0=   8256 NMatT0=    0 NMatD0=    1 NMtDS0=    0 NMtDT0=    0
 Symmetry not used in FoFCou.
 Two-electron integral symmetry not used.
 Closed shell SCF:
 Using DIIS extrapolation, IDIIS=  1040.
 NGot=   280000000 LenX=   245875047 LenY=   245856917
 Requested convergence on RMS density matrix=1.00D-08 within 128 cycles.
 Requested convergence on MAX density matrix=1.00D-06.
 Requested convergence on             energy=1.00D-06.
 No special actions if energy rises.

 Cycle   1  Pass 1  IDiag  1:
 E= -268.407945724191    
 DIIS: error= 6.95D-03 at cycle   1 NSaved=   1.
 NSaved= 1 IEnMin= 1 EnMin= -268.407945724191     IErMin= 1 ErrMin= 6.95D-03
 ErrMax= 6.95D-03  0.00D+00 EMaxC= 1.00D-01 BMatC= 1.19D-02 BMatP= 1.19D-02
 IDIUse=3 WtCom= 9.31D-01 WtEn= 6.95D-02
 Coeff-Com:  0.100D+01
 Coeff-En:   0.100D+01
 Coeff:      0.100D+01
 Gap=     0.468 Goal=   None    Shift=    0.000
 GapD=    0.468 DampG=2.000 DampE=1.000 DampFc=2.0000 IDamp=-1.
 RMSDP=2.06D-03 MaxDP=4.55D-02              OVMax= 3.73D-02

 Cycle   2  Pass 1  IDiag  1:
 E= -268.426524786356     Delta-E=       -0.018579062165 Rises=F Damp=F
 DIIS: error= 1.33D-03 at cycle   2 NSaved=   2.
 NSaved= 2 IEnMin= 2 EnMin= -268.426524786356     IErMin= 2 ErrMin= 1.33D-03
 ErrMax= 1.33D-03  0.00D+00 EMaxC= 1.00D-01 BMatC= 3.58D-04 BMatP= 1.19D-02
 IDIUse=3 WtCom= 9.87D-01 WtEn= 1.33D-02
 Coeff-Com: -0.278D-01 0.103D+01
 Coeff-En:   0.000D+00 0.100D+01
 Coeff:     -0.274D-01 0.103D+01
 Gap=     0.213 Goal=   None    Shift=    0.000
 RMSDP=2.72D-04 MaxDP=4.92D-03 DE=-1.86D-02 OVMax= 1.22D-02

 Cycle   3  Pass 1  IDiag  1:
 E= -268.426297302239     Delta-E=        0.000227484117 Rises=F Damp=F
 DIIS: error= 2.73D-03 at cycle   3 NSaved=   3.
 NSaved= 3 IEnMin= 2 EnMin= -268.426524786356     IErMin= 2 ErrMin= 1.33D-03
 ErrMax= 2.73D-03  0.00D+00 EMaxC= 1.00D-01 BMatC= 7.77D-04 BMatP= 3.58D-04
 IDIUse=3 WtCom= 1.61D-01 WtEn= 8.39D-01
 Coeff-Com: -0.377D-01 0.643D+00 0.395D+00
 Coeff-En:   0.000D+00 0.642D+00 0.358D+00
 Coeff:     -0.606D-02 0.642D+00 0.364D+00
 Gap=     0.214 Goal=   None    Shift=    0.000
 RMSDP=1.73D-04 MaxDP=3.57D-03 DE= 2.27D-04 OVMax= 1.00D-02

 Cycle   4  Pass 1  IDiag  1:
 E= -268.426834407896     Delta-E=       -0.000537105657 Rises=F Damp=F
 DIIS: error= 6.46D-04 at cycle   4 NSaved=   4.
 NSaved= 4 IEnMin= 4 EnMin= -268.426834407896     IErMin= 4 ErrMin= 6.46D-04
 ErrMax= 6.46D-04  0.00D+00 EMaxC= 1.00D-01 BMatC= 3.86D-05 BMatP= 3.58D-04
 IDIUse=3 WtCom= 9.94D-01 WtEn= 6.46D-03
 Coeff-Com: -0.155D-01 0.175D+00 0.207D+00 0.633D+00
 Coeff-En:   0.000D+00 0.000D+00 0.108D-01 0.989D+00
 Coeff:     -0.154D-01 0.174D+00 0.206D+00 0.636D+00
 Gap=     0.214 Goal=   None    Shift=    0.000
 RMSDP=5.30D-05 MaxDP=1.82D-03 DE=-5.37D-04 OVMax= 1.71D-03

 Cycle   5  Pass 1  IDiag  1:
 E= -268.426861988806     Delta-E=       -0.000027580910 Rises=F Damp=F
 DIIS: error= 9.47D-05 at cycle   5 NSaved=   5.
 NSaved= 5 IEnMin= 5 EnMin= -268.426861988806     IErMin= 5 ErrMin= 9.47D-05
 ErrMax= 9.47D-05  0.00D+00 EMaxC= 1.00D-01 BMatC= 1.52D-06 BMatP= 3.86D-05
 IDIUse=1 WtCom= 1.00D+00 WtEn= 0.00D+00
 Coeff-Com: -0.476D-02 0.441D-01 0.715D-01 0.283D+00 0.607D+00
 Coeff:     -0.476D-02 0.441D-01 0.715D-01 0.283D+00 0.607D+00
 Gap=     0.214 Goal=   None    Shift=    0.000
 RMSDP=1.19D-05 MaxDP=3.55D-04 DE=-2.76D-05 OVMax= 3.49D-04

 Cycle   6  Pass 1  IDiag  1:
 E= -268.426863353517     Delta-E=       -0.000001364711 Rises=F Damp=F
 DIIS: error= 2.75D-05 at cycle   6 NSaved=   6.
 NSaved= 6 IEnMin= 6 EnMin= -268.426863353517     IErMin= 6 ErrMin= 2.75D-05
 ErrMax= 2.75D-05  0.00D+00 EMaxC= 1.00D-01 BMatC= 1.10D-07 BMatP= 1.52D-06
 IDIUse=1 WtCom= 1.00D+00 WtEn= 0.00D+00
 Coeff-Com:  0.123D-03-0.617D-02 0.215D-02 0.345D-01 0.239D+00 0.730D+00
 Coeff:      0.123D-03-0.617D-02 0.215D-02 0.345D-01 0.239D+00 0.730D+00
 Gap=     0.214 Goal=   None    Shift=    0.000
 RMSDP=4.26D-06 MaxDP=1.03D-04 DE=-1.36D-06 OVMax= 9.80D-05

 Cycle   7  Pass 1  IDiag  1:
 E= -268.426863455058     Delta-E=       -0.000000101542 Rises=F Damp=F
 DIIS: error= 6.83D-06 at cycle   7 NSaved=   7.
 NSaved= 7 IEnMin= 7 EnMin= -268.426863455058     IErMin= 7 ErrMin= 6.83D-06
 ErrMax= 6.83D-06  0.00D+00 EMaxC= 1.00D-01 BMatC= 6.62D-09 BMatP= 1.10D-07
 IDIUse=1 WtCom= 1.00D+00 WtEn= 0.00D+00
 Coeff-Com:  0.237D-03-0.438D-02-0.250D-02 0.770D-04 0.621D-01 0.281D+00
 Coeff-Com:  0.663D+00
 Coeff:      0.237D-03-0.438D-02-0.250D-02 0.770D-04 0.621D-01 0.281D+00
 Coeff:      0.663D+00
 Gap=     0.214 Goal=   None    Shift=    0.000
 RMSDP=9.45D-07 MaxDP=2.03D-05 DE=-1.02D-07 OVMax= 2.38D-05

 Cycle   8  Pass 1  IDiag  1:
 E= -268.426863460505     Delta-E=       -0.000000005446 Rises=F Damp=F
 DIIS: error= 3.26D-06 at cycle   8 NSaved=   8.
[...]
    R6        2.88857   0.00001   0.00008  -0.00005   0.00004   2.88860
    R7        2.06258  -0.00001  -0.00001   0.00000  -0.00001   2.06257
    R8        2.07428  -0.00003  -0.00002  -0.00005  -0.00007   2.07421
    R9        2.68096   0.00008   0.00002   0.00022   0.00024   2.68120
   R10        1.82613   0.00003  -0.00004   0.00009   0.00005   1.82618
    A1        2.08991  -0.00001   0.00003  -0.00007  -0.00004   2.08987
    A2        2.02244   0.00000  -0.00004   0.00002  -0.00002   2.02242
    A3        2.17079   0.00001   0.00001   0.00005   0.00005   2.17085
    A4        1.87296   0.00002   0.00012   0.00006   0.00018   1.87314
    A5        1.88558  -0.00002  -0.00018  -0.00014  -0.00032   1.88526
    A6        1.98687  -0.00002   0.00004  -0.00005  -0.00002   1.98685
    A7        1.84029  -0.00000   0.00005  -0.00004   0.00000   1.84030
    A8        1.93006  -0.00001   0.00003   0.00003   0.00006   1.93013
    A9        1.94090   0.00002  -0.00006   0.00014   0.00008   1.94098
   A10        1.91585  -0.00002  -0.00001  -0.00009  -0.00010   1.91575
   A11        1.91583  -0.00000   0.00002  -0.00011  -0.00008   1.91575
   A12        1.96528   0.00000   0.00007  -0.00002   0.00005   1.96533
   A13        1.87718   0.00001   0.00003   0.00001   0.00005   1.87723
   A14        1.85249   0.00003  -0.00013   0.00042   0.00029   1.85278
   A15        1.93424  -0.00001   0.00001  -0.00021  -0.00020   1.93404
   A16        1.88046   0.00002  -0.00008   0.00023   0.00016   1.88062
    D1       -1.07986   0.00002   0.00063   0.00041   0.00104  -1.07882
    D2        0.89677   0.00001   0.00066   0.00032   0.00098   0.89775
    D3        3.06167   0.00002   0.00047   0.00037   0.00084   3.06250
    D4        2.05215  -0.00002   0.00082  -0.00031   0.00050   2.05265
    D5       -2.25440  -0.00002   0.00084  -0.00040   0.00044  -2.25396
    D6       -0.08951  -0.00001   0.00066  -0.00036   0.00030  -0.08920
    D7       -3.12914   0.00002  -0.00015   0.00001  -0.00014  -3.12928
    D8       -1.06933   0.00001  -0.00010  -0.00008  -0.00019  -1.06952
    D9        1.09441  -0.00000  -0.00002  -0.00044  -0.00047   1.09394
   D10        1.04400   0.00001  -0.00036  -0.00005  -0.00040   1.04360
   D11        3.10381   0.00000  -0.00031  -0.00014  -0.00045   3.10336
   D12       -1.01563  -0.00002  -0.00023  -0.00050  -0.00074  -1.01636
   D13       -0.99442  -0.00000  -0.00040  -0.00010  -0.00050  -0.99492
   D14        1.06539  -0.00001  -0.00035  -0.00020  -0.00055   1.06484
   D15       -3.05405  -0.00002  -0.00027  -0.00056  -0.00083  -3.05488
   D16       -1.20110   0.00001  -0.00012   0.00052   0.00041  -1.20070
   D17        2.98550   0.00001  -0.00006   0.00037   0.00031   2.98581
   D18        0.95242  -0.00000  -0.00003   0.00022   0.00019   0.95261
         Item               Value     Threshold  Converged?
 Maximum Force            0.000083     0.000450     YES
 RMS     Force            0.000023     0.000300     YES
 Maximum Displacement     0.000890     0.001800     YES
 RMS     Displacement     0.000343     0.001200     YES
 Predicted change in Energy=-6.661678D-08
 Optimization completed.
    -- Stationary point found.
                           ----------------------------
                           !   Optimized Parameters   !
                           ! (Angstroms and Degrees)  !
 --------------------------                            --------------------------
 ! Name  Definition              Value          Derivative Info.                !
 --------------------------------------------------------------------------------
 ! R1    R(1,2)                  1.1104         -DE/DX =    0.0                 !
 ! R2    R(1,3)                  1.2099         -DE/DX =    0.0                 !
 ! R3    R(1,4)                  1.5071         -DE/DX =    0.0                 !
 ! R4    R(4,5)                  1.0992         -DE/DX =   -0.0001              !
 ! R5    R(4,6)                  1.0993         -DE/DX =    0.0                 !
 ! R6    R(4,7)                  1.5286         -DE/DX =    0.0                 !
 ! R7    R(7,8)                  1.0915         -DE/DX =    0.0                 !
 ! R8    R(7,9)                  1.0977         -DE/DX =    0.0                 !
 ! R9    R(7,10)                 1.4187         -DE/DX =    0.0001              !
 ! R10   R(10,11)                0.9663         -DE/DX =    0.0                 !
 ! A1    A(2,1,3)              119.7429         -DE/DX =    0.0                 !
 ! A2    A(2,1,4)              115.8775         -DE/DX =    0.0                 !
 ! A3    A(3,1,4)              124.3773         -DE/DX =    0.0                 !
 ! A4    A(1,4,5)              107.3129         -DE/DX =    0.0                 !
 ! A5    A(1,4,6)              108.0356         -DE/DX =    0.0                 !
 ! A6    A(1,4,7)              113.839          -DE/DX =    0.0                 !
 ! A7    A(5,4,6)              105.441          -DE/DX =    0.0                 !
 ! A8    A(5,4,7)              110.5844         -DE/DX =    0.0                 !
 ! A9    A(6,4,7)              111.2054         -DE/DX =    0.0                 !
 ! A10   A(4,7,8)              109.7701         -DE/DX =    0.0                 !
 ! A11   A(4,7,9)              109.7689         -DE/DX =    0.0                 !
 ! A12   A(4,7,10)             112.602          -DE/DX =    0.0                 !
 ! A13   A(8,7,9)              107.5543         -DE/DX =    0.0                 !
 ! A14   A(8,7,10)             106.1396         -DE/DX =    0.0                 !
 ! A15   A(9,7,10)             110.8238         -DE/DX =    0.0                 !
 ! A16   A(7,10,11)            107.7425         -DE/DX =    0.0                 !
 ! D1    D(2,1,4,5)            -61.8715         -DE/DX =    0.0                 !
 ! D2    D(2,1,4,6)             51.3813         -DE/DX =    0.0                 !
 ! D3    D(2,1,4,7)            175.4206         -DE/DX =    0.0                 !
 ! D4    D(3,1,4,5)            117.5796         -DE/DX =    0.0                 !
 ! D5    D(3,1,4,6)           -129.1676         -DE/DX =    0.0                 !
 ! D6    D(3,1,4,7)             -5.1284         -DE/DX =    0.0                 !
 ! D7    D(1,4,7,8)           -179.2868         -DE/DX =    0.0                 !
 ! D8    D(1,4,7,9)            -61.2683         -DE/DX =    0.0                 !
 ! D9    D(1,4,7,10)            62.7051         -DE/DX =    0.0                 !
 ! D10   D(5,4,7,8)             59.817          -DE/DX =    0.0                 !
 ! D11   D(5,4,7,9)            177.8354         -DE/DX =    0.0                 !
 ! D12   D(5,4,7,10)           -58.1911         -DE/DX =    0.0                 !
 ! D13   D(6,4,7,8)            -56.9763         -DE/DX =    0.0                 !
 ! D14   D(6,4,7,9)             61.0422         -DE/DX =    0.0                 !
 ! D15   D(6,4,7,10)          -174.9844         -DE/DX =    0.0                 !
 ! D16   D(4,7,10,11)          -68.8182         -DE/DX =    0.0                 !
 ! D17   D(8,7,10,11)          171.0567         -DE/DX =    0.0                 !
 ! D18   D(9,7,10,11)           54.5698         -DE/DX =    0.0                 !
 --------------------------------------------------------------------------------
 Lowest energy point so far.  Saving SCF results.
 Largest change from initial coordinates is atom    2       0.667 Angstoms.
 GradGradGradGradGradGradGradGradGradGradGradGradGradGradGradGradGradGrad

 Leave Link  103 at Tue Oct 15 20:06:29 2019, MaxMem=   280000000 cpu:               3.0 elap:               0.2
 (Enter /home/soft/g16/l202.exe)
                          Input orientation:                          
 ---------------------------------------------------------------------
 Center     Atomic      Atomic             Coordinates (Angstroms)
 Number     Number       Type             X           Y           Z
 ---------------------------------------------------------------------
      1          6           0       -0.709954    2.644123    0.008858
      2          1           0       -1.482393    2.682764    0.805576
      3          8           0       -0.548273    3.598316   -0.717184
      4          6           0        0.086242    1.367206   -0.073991
      5          1           0        0.626691    1.256419    0.876772
      6          1           0       -0.621297    0.526541   -0.108151
      7          6           0        1.057855    1.320381   -1.253094
      8          1           0        1.588151    0.366400   -1.256837
      9          1           0        0.500960    1.393294   -2.196180
     10          8           0        2.055738    2.325990   -1.177594
     11          1           0        1.624515    3.179711   -1.315547
 ---------------------------------------------------------------------
                    Distance matrix (angstroms):
                    1          2          3          4          5
     1  C    0.000000
     2  H    1.110367   0.000000
     3  O    1.209860   2.007389   0.000000
     4  C    1.507086   2.228216   2.407106   0.000000
     5  H    2.113201   2.547109   3.066874   1.099232   0.000000
     6  H    2.122664   2.495131   3.132419   1.099316   1.749363
     7  C    2.543613   3.542185   2.838280   1.528564   2.174011
     8  H    3.474376   4.364324   3.911625   2.157885   2.503763
     9  H    2.809462   3.821905   2.854898   2.162489   3.078568
    10  O    3.026207   4.071685   2.934564   2.452778   2.721503
    11  H    2.736905   3.794601   2.292221   2.681962   3.082364
                    6          7          8          9         10
     6  H    0.000000
     7  C    2.181887   0.000000
     8  H    2.495353   1.091470   0.000000
     9  H    2.524003   1.097661   1.766030   0.000000
    10  O    3.398270   1.418703   2.016162   2.079609   0.000000
    11  H    3.679781   1.944765   2.814158   2.286739   0.966345
                   11
    11  H    0.000000
 Stoichiometry    C3H6O2
 Framework group  C1[X(C3H6O2)]
 Deg. of freedom    27
 Full point group                 C1      NOp   1
 RotChk:  IX=0 Diff= 9.16D-16
 Largest Abelian subgroup         C1      NOp   1
 Largest concise Abelian subgroup C1      NOp   1
                         Standard orientation:                         
 ---------------------------------------------------------------------
 Center     Atomic      Atomic             Coordinates (Angstroms)
 Number     Number       Type             X           Y           Z
 ---------------------------------------------------------------------
      1          6           0       -1.357789    0.216629   -0.121919
      2          1           0       -2.296059    0.715957   -0.443221
      3          8           0       -1.380924   -0.945440    0.213971
      4          6           0       -0.115262    1.068976   -0.152618
      5          1           0        0.046554    1.373897   -1.196241
      6          1           0       -0.326700    1.998717    0.394530
      7          6           0        1.126460    0.371174    0.402093
      8          1           0        1.980711    1.049264    0.360190
      9          1           0        0.964680    0.107170    1.455179
     10          8           0        1.492946   -0.772023   -0.353889
     11          1           0        0.814184   -1.445975   -0.216428
 ---------------------------------------------------------------------
 Rotational constants (GHZ):           8.6551419           4.0794432           3.0826614
 Leave Link  202 at Tue Oct 15 20:06:29 2019, MaxMem=   280000000 cpu:               1.0 elap:               0.1
 (Enter /home/soft/g16/l601.exe)
 Copying SCF densities to generalized density rwf, IOpCl= 0 IROHF=0.

 **********************************************************************

            Population analysis using the SCF density.

 **********************************************************************

 Orbital symmetries:
       Occupied  (A) (A) (A) (A) (A) (A) (A) (A) (A) (A) (A) (A)
                 (A) (A) (A) (A) (A) (A) (A) (A)
       Virtual   (A) (A) (A) (A) (A) (A) (A) (A) (A) (A) (A) (A)
                 (A) (A) (A) (A) (A) (A) (A) (A) (A) (A) (A) (A)
                 (A) (A) (A) (A) (A) (A) (A) (A) (A) (A) (A) (A)
                 (A) (A) (A) (A) (A) (A) (A) (A) (A) (A) (A) (A)
                 (A) (A) (A) (A) (A) (A) (A) (A) (A) (A) (A) (A)
                 (A) (A) (A) (A) (A) (A) (A) (A) (A) (A) (A) (A)
                 (A) (A) (A) (A) (A) (A) (A) (A) (A) (A) (A) (A)
                 (A) (A) (A) (A) (A) (A) (A) (A) (A) (A) (A) (A)
                 (A) (A) (A) (A) (A) (A) (A) (A) (A) (A) (A) (A)
 The electronic state is 1-A.
 Alpha  occ. eigenvalues --  -19.14665 -19.12295 -10.28355 -10.22911 -10.19863
 Alpha  occ. eigenvalues --   -1.07786  -1.02873  -0.79484  -0.67678  -0.58702
 Alpha  occ. eigenvalues --   -0.52726  -0.50779  -0.46890  -0.45998  -0.42825
 Alpha  occ. eigenvalues --   -0.41283  -0.38608  -0.34593  -0.28890  -0.27720
 Alpha virt. eigenvalues --   -0.05289  -0.00271   0.01785   0.02508   0.03228
 Alpha virt. eigenvalues --    0.05187   0.05585   0.06671   0.08320   0.08478
 Alpha virt. eigenvalues --    0.10865   0.11607   0.14302   0.15560   0.16241
 Alpha virt. eigenvalues --    0.16840   0.18302   0.19346   0.20431   0.21603
 Alpha virt. eigenvalues --    0.23219   0.24564   0.25209   0.26056   0.26550
 Alpha virt. eigenvalues --    0.28254   0.28761   0.30606   0.32636   0.33817
 Alpha virt. eigenvalues --    0.41868   0.45060   0.45957   0.48697   0.50499
 Alpha virt. eigenvalues --    0.52411   0.52866   0.56578   0.58578   0.60827
 Alpha virt. eigenvalues --    0.64120   0.65877   0.66532   0.69231   0.70017
 Alpha virt. eigenvalues --    0.70529   0.82747   0.90470   0.95977   1.02591
 Alpha virt. eigenvalues --    1.05903   1.09163   1.10898   1.11560   1.18348
 Alpha virt. eigenvalues --    1.20381   1.28809   1.32301   1.43138   1.45927
 Alpha virt. eigenvalues --    1.48321   1.55340   1.58126   1.61177   1.62191
 Alpha virt. eigenvalues --    1.68894   1.71656   1.79046   1.83230   1.91818
 Alpha virt. eigenvalues --    2.05421   2.15273   2.25049   2.38920   2.45039
 Alpha virt. eigenvalues --    2.49500   2.51983   2.56039   2.63745   2.80667
 Alpha virt. eigenvalues --    2.83895   2.84872   2.85676   2.90602   2.98382
 Alpha virt. eigenvalues --    3.02280   3.08311   3.19686   3.20515   3.23516
 Alpha virt. eigenvalues --    3.33131   3.36449   3.41461   3.62060   3.73958
 Alpha virt. eigenvalues --    3.93513   4.11218   4.98922   5.03096   5.10024
 Alpha virt. eigenvalues --    5.12610   5.42704   5.63787  23.49687  23.66593
 Alpha virt. eigenvalues --   23.76117  49.86431  49.90543
          Condensed to atoms (all electrons):
               1          2          3          4          5          6
     1  C    5.381689   0.369777   0.367131  -0.074815  -0.041567  -0.049415
     2  H    0.369777   0.579683  -0.057330  -0.108487   0.001123  -0.000569
     3  O    0.367131  -0.057330   8.043820  -0.135846  -0.005805   0.004775
     4  C   -0.074815  -0.108487  -0.135846   6.093990   0.410584   0.380686
     5  H   -0.041567   0.001123  -0.005805   0.410584   0.430816  -0.032595
     6  H   -0.049415  -0.000569   0.004775   0.380686  -0.032595   0.468249
     7  C    0.019231   0.018034   0.056767   0.106557  -0.040748  -0.038990
     8  H    0.015150  -0.000253   0.001640  -0.074817  -0.007040  -0.000821
     9  H   -0.021906  -0.000015  -0.003319  -0.017736   0.006236  -0.001779
    10  O   -0.077567  -0.000806   0.000220   0.016209  -0.013332   0.013621
    11  H    0.025436   0.000088   0.013031  -0.029217   0.000993  -0.000956
               7          8          9         10         11
     1  C    0.019231   0.015150  -0.021906  -0.077567   0.025436
     2  H    0.018034  -0.000253  -0.000015  -0.000806   0.000088
     3  O    0.056767   0.001640  -0.003319   0.000220   0.013031
     4  C    0.106557  -0.074817  -0.017736   0.016209  -0.029217
     5  H   -0.040748  -0.007040   0.006236  -0.013332   0.000993
     6  H   -0.038990  -0.000821  -0.001779   0.013621  -0.000956
     7  C    5.341742   0.427474   0.378637   0.177670  -0.014115
     8  H    0.427474   0.487051  -0.041925  -0.063182   0.009694
     9  H    0.378637  -0.041925   0.525202  -0.047861  -0.008120
    10  O    0.177670  -0.063182  -0.047861   8.156289   0.226273
    11  H   -0.014115   0.009694  -0.008120   0.226273   0.419265
 Mulliken charges:
               1
     1  C    0.086856
     2  H    0.198756
     3  O   -0.285083
     4  C   -0.567108
     5  H    0.291335
     6  H    0.257794
     7  C   -0.432259
     8  H    0.247029
     9  H    0.232588
    10  O   -0.387536
    11  H    0.357628
 Sum of Mulliken charges =  -0.00000
 Mulliken charges with hydrogens summed into heavy atoms:
               1
     1  C    0.285612
     3  O   -0.285083
     4  C   -0.017979
     7  C    0.047359
    10  O   -0.029908
 Electronic spatial extent (au):  <R**2>=            423.9893
 Charge=             -0.0000 electrons
 Dipole moment (field-independent basis, Debye):
    X=             -1.1059    Y=              2.9179    Z=              0.3065  Tot=              3.1355
 Quadrupole moment (field-independent basis, Debye-Ang):
   XX=            -34.9965   YY=            -29.7740   ZZ=            -30.6403
   XY=             -1.1007   XZ=              2.8045   YZ=              0.0548
 Traceless Quadrupole moment (field-independent basis, Debye-Ang):
   XX=             -3.1929   YY=              2.0296   ZZ=              1.1633
   XY=             -1.1007   XZ=              2.8045   YZ=              0.0548
 Octapole moment (field-independent basis, Debye-Ang**2):
  XXX=             -7.5534  YYY=             -6.1530  ZZZ=              0.2166  XYY=              3.2374
  XXY=             10.1032  XXZ=              1.2459  XZZ=             -1.2834  YZZ=             -0.7343
  YYZ=             -0.8320  XYZ=             -1.7682
 Hexadecapole moment (field-independent basis, Debye-Ang**3):
 XXXX=           -326.4177 YYYY=           -154.3589 ZZZZ=            -60.3430 XXXY=              4.4319
 XXXZ=              5.9167 YYYX=             -4.8895 YYYZ=              4.0001 ZZZX=             -0.7769
 ZZZY=             -1.7111 XXYY=            -86.9265 XXZZ=            -64.9822 YYZZ=            -36.6509
 XXYZ=             -0.9155 YYXZ=             -0.4212 ZZXY=              0.7041
 N-N= 1.774874912840D+02 E-N=-9.840711072525D+02  KE= 2.674882146322D+02
 No NMR shielding tensors so no spin-rotation constants.
 Leave Link  601 at Tue Oct 15 20:06:29 2019, MaxMem=   280000000 cpu:               2.6 elap:               0.1
 (Enter /home/soft/g16/l9999.exe)
 1\1\GINC-NODE01\FOpt\RB3LYP\6-311+G(d)\C3H6O2\ROOT\15-Oct-2019\0\\#p b
 3lyp/6-311+g* opt\\Title Card Required\\0,1\C,-0.7099541629,2.64412253
 78,0.0088577669\H,-1.4823930298,2.6827637724,0.8055761852\O,-0.5482730
 533,3.5983156538,-0.717183521\C,0.0862420854,1.3672057442,-0.073991119
 6\H,0.6266912553,1.2564191521,0.8767724182\H,-0.6212973799,0.526541203
 2,-0.1081506305\C,1.05785535,1.3203809028,-1.2530940324\H,1.5881509345
 ,0.3663999925,-1.2568367047\H,0.5009597185,1.3932940004,-2.1961801373\
 O,2.0557376917,2.3259898741,-1.1775943765\H,1.6245151804,3.1797108866,
 -1.3155466982\\Version=ES64L-G16RevA.03\State=1-A\HF=-268.4343039\RMSD
 =9.488e-09\RMSF=3.902e-05\Dipole=-0.754585,-0.8424801,0.4925449\Quadru
 pole=-2.5447868,0.538248,2.0065388,1.891858,-0.5975229,0.1295512\PG=C0
 1 [X(C3H6O2)]\\@


 I DON'T EXACTLY UNDERSTAND WHAT YOU ARE SAYING,
 BUT YOU ARE ABSOLUTELY RIGHT.
     M.S.GORDON, IN A NDSU FACULTY MEETING
 Job cpu time:       0 days  0 hours 21 minutes  8.1 seconds.
 Elapsed time:       0 days  0 hours  1 minutes  4.3 seconds.
 File lengths (MBytes):  RWF=     72 Int=      0 D2E=      0 Chk=      8 Scr=      8
 Normal termination of Gaussian 16 at Tue Oct 15 20:06:29 2019.
