 Entering Gaussian System, Link 0=g16
 Input=R.gjf
 Output=R.log
 Initial command:
 /home/soft/g16/l1.exe "/tmp/gaussian/Gau-27387.inp" -scrdir="/tmp/gaussian/"
 Entering Link 1 = /home/soft/g16/l1.exe PID=     27389.
  
 Copyright (c) 1988,1990,1992,1993,1995,1998,2003,2009,2016,
            Gaussian, Inc.  All Rights Reserved.
  
 This is part of the Gaussian(R) 16 program.  It is based on
 the Gaussian(R) 09 system (copyright 2009, Gaussian, Inc.),
 the Gaussian(R) 03 system (copyright 2003, Gaussian, Inc.),
 the Gaussian(R) 98 system (copyright 1998, Gaussian, Inc.),
 the Gaussian(R) 94 system (copyright 1995, Gaussian, Inc.),
 the Gaussian 92(TM) system (copyright 1992, Gaussian, Inc.),
 the Gaussian 90(TM) system (copyright 1990, Gaussian, Inc.),
 the Gaussian 88(TM) system (copyright 1988, Gaussian, Inc.),
 the Gaussian 86(TM) system (copyright 1986, Carnegie Mellon
 University), and the Gaussian 82(TM) system (copyright 1983,
 Carnegie Mellon University). Gaussian is a federally registered
 trademark of Gaussian, Inc.
  
 This software contains proprietary and confidential information,
 including trade secrets, belonging to Gaussian, Inc.
  
 This software is provided under written license and may be
 used, copied, transmitted, or stored only in accord with that
 written license.
  
 The following legend is applicable only to US Government
 contracts under FAR:
  
                    RESTRICTED RIGHTS LEGEND
  
 Use, reproduction and disclosure by the US Government is
 subject to restrictions as set forth in subparagraphs (a)
 and (c) of the Commercial Computer Software - Restricted
 Rights clause in FAR 52.227-19.
  
 Gaussian, Inc.
 340 Quinnipiac St., Bldg. 40, Wallingford CT 06492
  
  
 ---------------------------------------------------------------
 Warning -- This program may not be used in any manner that
 competes with the business of Gaussian, Inc. or will provide
 assistance to any competitor of Gaussian, Inc.  The licensee
 of this program is prohibited from giving any competitor of
 Gaussian, Inc. access to this program.  By using this program,
 the user acknowledges that Gaussian, Inc. is engaged in the
 business of creating and licensing software in the field of
 computational chemistry and represents and warrants to the
 licensee that it is not a competitor of Gaussian, Inc. and that
 it will not use this program in any manner prohibited above.
 ---------------------------------------------------------------
  

 Cite this work as:
 Gaussian 16, Revision A.03,
 M. J. Frisch, G. W. Trucks, H. B. Schlegel, G. E. Scuseria, 
 M. A. Robb, J. R. Cheeseman, G. Scalmani, V. Barone, 
 G. A. Petersson, H. Nakatsuji, X. Li, M. Caricato, A. V. Marenich, 
 J. Bloino, B. G. Janesko, R. Gomperts, B. Mennucci, H. P. Hratchian, 
 J. V. Ortiz, A. F. Izmaylov, J. L. Sonnenberg, D. Williams-Young, 
 F. Ding, F. Lipparini, F. Egidi, J. Goings, B. Peng, A. Petrone, 
 T. Henderson, D. Ranasinghe, V. G. Zakrzewski, J. Gao, N. Rega, 
 G. Zheng, W. Liang, M. Hada, M. Ehara, K. Toyota, R. Fukuda, 
 J. Hasegawa, M. Ishida, T. Nakajima, Y. Honda, O. Kitao, H. Nakai, 
 T. Vreven, K. Throssell, J. A. Montgomery, Jr., J. E. Peralta, 
 F. Ogliaro, M. J. Bearpark, J. J. Heyd, E. N. Brothers, K. N. Kudin, 
 V. N. Staroverov, T. A. Keith, R. Kobayashi, J. Normand, 
 K. Raghavachari, A. P. Rendell, J. C. Burant, S. S. Iyengar, 
 J. Tomasi, M. Cossi, J. M. Millam, M. Klene, C. Adamo, R. Cammi, 
 J. W. Ochterski, R. L. Martin, K. Morokuma, O. Farkas, 
 J. B. Foresman, and D. J. Fox, Gaussian, Inc., Wallingford CT, 2016.
 
 ******************************************
 Gaussian 16:  ES64L-G16RevA.03 25-Dec-2016
                15-Oct-2019 
 ******************************************
 %chk=R.chk
 %nproc=24
 Will use up to   24 processors via shared memory.
 ---------------------
 #p b3lyp/6-311+g* opt
 ---------------------
 1/18=20,19=15,26=3,38=1/1,3;
 2/9=110,12=2,17=6,18=5,40=1/2;
 3/5=4,6=6,7=11,11=2,25=1,30=1,71=1,74=-5/1,2,3;
 4//1;
 5/5=2,38=5/2;
 6/7=2,8=2,9=2,10=2,28=1/1;
 7//1,2,3,16;
 1/18=20,19=15,26=3/3(2);
 2/9=110/2;
 99//99;
 2/9=110/2;
 3/5=4,6=6,7=11,11=2,25=1,30=1,71=1,74=-5/1,2,3;
 4/5=5,16=3,69=1/1;
 5/5=2,38=5/2;
 7//1,2,3,16;
 1/18=20,19=15,26=3/3(-5);
 2/9=110/2;
 6/7=2,8=2,9=2,10=2,19=2,28=1/1;
 99/9=1/99;
 Leave Link    1 at Tue Oct 15 20:05:20 2019, MaxMem=           0 cpu:               1.9 elap:               0.1
 (Enter /home/soft/g16/l101.exe)
 -------------------
 Title Card Required
 -------------------
 Symbolic Z-matrix:
 Charge =  0 Multiplicity = 1
 C                    -4.05561   1.27681   0.02214 
 H                    -3.54766   0.3512    0.1957 
 H                    -5.11435   1.28527  -0.13248 
 C                    -3.35802   2.43843  -0.00185 
 H                    -3.86598   3.36405  -0.1754 
 O                    -1.94308   2.42713   0.20478 
 H                    -1.64098   1.52101   0.30112 
 C                    -3.02393  -0.27372   1.18759 
 H                    -3.71497   0.53908   1.10562 
 H                    -3.38369  -1.28103   1.2158 
 O                    -1.78812  -0.04495   1.25081 
 
 ITRead=  0  0  0  0  0  0  0  0  0  0  0
 MicOpt= -1 -1 -1 -1 -1 -1 -1 -1 -1 -1 -1
 NAtoms=     11 NQM=       11 NQMF=       0 NMMI=      0 NMMIF=      0
                NMic=       0 NMicF=      0.
                    Isotopes and Nuclear Properties:
 (Nuclear quadrupole moments (NQMom) in fm**2, nuclear magnetic moments (NMagM)
  in nuclear magnetons)

  Atom         1           2           3           4           5           6           7           8           9          10
 IAtWgt=          12           1           1          12           1          16           1          12           1           1
 AtmWgt=  12.0000000   1.0078250   1.0078250  12.0000000   1.0078250  15.9949146   1.0078250  12.0000000   1.0078250   1.0078250
 NucSpn=           0           1           1           0           1           0           1           0           1           1
 AtZEff=  -0.0000000  -0.0000000  -0.0000000  -0.0000000  -0.0000000  -0.0000000  -0.0000000  -0.0000000  -0.0000000  -0.0000000
 NQMom=    0.0000000   0.0000000   0.0000000   0.0000000   0.0000000   0.0000000   0.0000000   0.0000000   0.0000000   0.0000000
 NMagM=    0.0000000   2.7928460   2.7928460   0.0000000   2.7928460   0.0000000   2.7928460   0.0000000   2.7928460   2.7928460
 AtZNuc=   6.0000000   1.0000000   1.0000000   6.0000000   1.0000000   8.0000000   1.0000000   6.0000000   1.0000000   1.0000000

  Atom        11
 IAtWgt=          16
 AtmWgt=  15.9949146
 NucSpn=           0
 AtZEff=  -0.0000000
 NQMom=    0.0000000
 NMagM=    0.0000000
 AtZNuc=   8.0000000
 Leave Link  101 at Tue Oct 15 20:05:21 2019, MaxMem=   280000000 cpu:               5.7 elap:               0.3
 (Enter /home/soft/g16/l103.exe)

 GradGradGradGradGradGradGradGradGradGradGradGradGradGradGradGradGradGrad
 Berny optimization.
 Initialization pass.
                           ----------------------------
                           !    Initial Parameters    !
                           ! (Angstroms and Degrees)  !
 --------------------------                            --------------------------
 ! Name  Definition              Value          Derivative Info.                !
 --------------------------------------------------------------------------------
 ! R1    R(1,2)                  1.07           estimate D2E/DX2                !
 ! R2    R(1,3)                  1.07           estimate D2E/DX2                !
 ! R3    R(1,4)                  1.3552         estimate D2E/DX2                !
 ! R4    R(2,8)                  1.284          estimate D2E/DX2                !
 ! R5    R(4,5)                  1.07           estimate D2E/DX2                !
 ! R6    R(4,6)                  1.43           estimate D2E/DX2                !
 ! R7    R(6,7)                  0.96           estimate D2E/DX2                !
 ! R8    R(8,9)                  1.07           estimate D2E/DX2                !
 ! R9    R(8,10)                 1.07           estimate D2E/DX2                !
 ! R10   R(8,11)                 1.2584         estimate D2E/DX2                !
 ! A1    A(2,1,3)              120.0            estimate D2E/DX2                !
 ! A2    A(2,1,4)              120.0            estimate D2E/DX2                !
 ! A3    A(3,1,4)              120.0            estimate D2E/DX2                !
 ! A4    A(1,2,8)              137.7276         estimate D2E/DX2                !
 ! A5    A(1,4,5)              120.0            estimate D2E/DX2                !
 ! A6    A(1,4,6)              120.0            estimate D2E/DX2                !
 ! A7    A(5,4,6)              120.0            estimate D2E/DX2                !
 ! A8    A(4,6,7)              109.4712         estimate D2E/DX2                !
 ! A9    A(2,8,9)               46.1866         estimate D2E/DX2                !
 ! A10   A(2,8,10)             109.9628         estimate D2E/DX2                !
 ! A11   A(2,8,11)             110.5424         estimate D2E/DX2                !
 ! A12   A(9,8,10)             120.0            estimate D2E/DX2                !
 ! A13   A(9,8,11)             120.0            estimate D2E/DX2                !
 ! A14   A(10,8,11)            120.0            estimate D2E/DX2                !
 ! D1    D(3,1,2,8)           -104.8287         estimate D2E/DX2                !
 ! D2    D(4,1,2,8)             75.1712         estimate D2E/DX2                !
 ! D3    D(2,1,4,5)           -179.9998         estimate D2E/DX2                !
 ! D4    D(2,1,4,6)              0.0002         estimate D2E/DX2                !
 ! D5    D(3,1,4,5)              0.0001         estimate D2E/DX2                !
 ! D6    D(3,1,4,6)           -179.9999         estimate D2E/DX2                !
 ! D7    D(1,2,8,9)             17.1285         estimate D2E/DX2                !
 ! D8    D(1,2,8,10)           130.0026         estimate D2E/DX2                !
 ! D9    D(1,2,8,11)           -95.2323         estimate D2E/DX2                !
 ! D10   D(1,4,6,7)              2.8188         estimate D2E/DX2                !
 ! D11   D(5,4,6,7)           -177.1812         estimate D2E/DX2                !
 --------------------------------------------------------------------------------
 Trust Radius=3.00D-01 FncErr=1.00D-07 GrdErr=1.00D-06 EigMax=2.50D+02 EigMin=1.00D-04
 Number of steps in this run=     45 maximum allowed number of steps=    100.
 GradGradGradGradGradGradGradGradGradGradGradGradGradGradGradGradGradGrad

 Leave Link  103 at Tue Oct 15 20:05:21 2019, MaxMem=   280000000 cpu:               0.7 elap:               0.1
 (Enter /home/soft/g16/l202.exe)
                          Input orientation:                          
 ---------------------------------------------------------------------
 Center     Atomic      Atomic             Coordinates (Angstroms)
 Number     Number       Type             X           Y           Z
 ---------------------------------------------------------------------
      1          6           0       -4.055613    1.276812    0.022139
      2          1           0       -3.547659    0.351198    0.195696
      3          1           0       -5.114349    1.285268   -0.132476
      4          6           0       -3.358023    2.438432   -0.001850
      5          1           0       -3.865976    3.364046   -0.175404
      6          8           0       -1.943076    2.427131    0.204783
      7          1           0       -1.640977    1.521010    0.301118
      8          6           0       -3.023931   -0.273719    1.187588
      9          1           0       -3.714974    0.539080    1.105619
     10          1           0       -3.383685   -1.281032    1.215800
     11          8           0       -1.788115   -0.044954    1.250809
 ---------------------------------------------------------------------
                    Distance matrix (angstroms):
                    1          2          3          4          5
     1  C    0.000000
     2  H    1.070000   0.000000
     3  H    1.070000   1.853294   0.000000
     4  C    1.355200   2.105120   2.105120   0.000000
     5  H    2.105120   3.052261   2.425200   1.070000   0.000000
     6  O    2.412344   2.623789   3.387413   1.430000   2.172533
     7  H    2.442934   2.239422   3.508260   1.970203   2.928221
     8  C    2.196994   1.284002   2.922816   2.980292   3.974937
     9  H    1.354331   0.944061   2.011946   2.227429   3.105521
    10  H    2.901531   1.931755   3.376233   3.913789   4.872865
    11  O    2.897972   2.089544   3.840156   3.193896   4.239443
                    6          7          8          9         10
     6  O    0.000000
     7  H    0.960000   0.000000
     8  C    3.070626   2.432990   0.000000
     9  H    2.741508   2.431639   1.070000   0.000000
    10  H    4.104630   3.424196   1.070000   1.853294   0.000000
    11  O    2.688752   1.837336   1.258400   2.018653   2.018653
                   11
    11  O    0.000000
 Stoichiometry    C3H6O2
 Framework group  C1[X(C3H6O2)]
 Deg. of freedom    27
 Full point group                 C1      NOp   1
 Largest Abelian subgroup         C1      NOp   1
 Largest concise Abelian subgroup C1      NOp   1
                         Standard orientation:                         
 ---------------------------------------------------------------------
 Center     Atomic      Atomic             Coordinates (Angstroms)
 Number     Number       Type             X           Y           Z
 ---------------------------------------------------------------------
      1          6           0        0.587186    1.176020   -0.154410
      2          1           0       -0.414225    0.929457   -0.439511
      3          1           0        0.880675    2.200987   -0.063818
      4          6           0        1.483799    0.190139    0.091945
      5          1           0        2.485209    0.436702    0.377049
      6          8           0        1.091566   -1.179677   -0.029129
      7          1           0        0.182130   -1.226471   -0.332997
      8          6           0       -1.481257    0.489499    0.123109
      9          1           0       -0.578561    0.931462    0.490135
     10          1           0       -2.313535    1.109806   -0.136568
     11          8           0       -1.564074   -0.759810   -0.003141
 ---------------------------------------------------------------------
 Rotational constants (GHZ):           8.1507591           3.9079676           2.6775250
 Leave Link  202 at Tue Oct 15 20:05:21 2019, MaxMem=   280000000 cpu:               0.7 elap:               0.1
 (Enter /home/soft/g16/l301.exe)
 Standard basis: 6-311+G(d) (5D, 7F)
 Ernie: Thresh=  0.10000D-02 Tol=  0.10000D-05 Strict=F.
 There are   133 symmetry adapted cartesian basis functions of A   symmetry.
 There are   128 symmetry adapted basis functions of A   symmetry.
   128 basis functions,   210 primitive gaussians,   133 cartesian basis functions
    20 alpha electrons       20 beta electrons
       nuclear repulsion energy       174.6524337098 Hartrees.
 IExCor=  402 DFT=T Ex+Corr=B3LYP ExCW=0 ScaHFX=  0.200000
 ScaDFX=  0.800000  0.720000  1.000000  0.810000 ScalE2=  1.000000  1.000000
 IRadAn=      5 IRanWt=     -1 IRanGd=            0 ICorTp=0 IEmpDi=  4
 NAtoms=   11 NActive=   11 NUniq=   11 SFac= 1.00D+00 NAtFMM=   60 NAOKFM=F Big=F
 Integral buffers will be    131072 words long.
 Raffenetti 2 integral format.
 Two-electron integral symmetry is turned on.
 Leave Link  301 at Tue Oct 15 20:05:21 2019, MaxMem=   280000000 cpu:               2.3 elap:               0.1
 (Enter /home/soft/g16/l302.exe)
 NPDir=0 NMtPBC=     1 NCelOv=     1 NCel=       1 NClECP=     1 NCelD=      1
         NCelK=      1 NCelE2=     1 NClLst=     1 CellRange=     0.0.
 One-electron integrals computed using PRISM.
 One-electron integral symmetry used in STVInt
 NBasis=   128 RedAO= T EigKep=  9.11D-05  NBF=   128
 NBsUse=   128 1.00D-06 EigRej= -1.00D+00 NBFU=   128
 Precomputing XC quadrature grid using
 IXCGrd= 4 IRadAn=           5 IRanWt=          -1 IRanGd=           0 AccXCQ= 0.00D+00.
 Generated NRdTot=       0 NPtTot=           0 NUsed=           0 NTot=          32
 NSgBfM=   133   133   133   133   133 MxSgAt=    11 MxSgA2=    11.
 Leave Link  302 at Tue Oct 15 20:05:22 2019, MaxMem=   280000000 cpu:               6.7 elap:               0.4
 (Enter /home/soft/g16/l303.exe)
 DipDrv:  MaxL=1.
 Leave Link  303 at Tue Oct 15 20:05:22 2019, MaxMem=   280000000 cpu:               1.3 elap:               0.1
 (Enter /home/soft/g16/l401.exe)
 ExpMin= 4.38D-02 ExpMax= 8.59D+03 ExpMxC= 1.30D+03 IAcc=3 IRadAn=         5 AccDes= 0.00D+00
 Harris functional with IExCor=  402 and IRadAn=       5 diagonalized for initial guess.
 HarFok:  IExCor=  402 AccDes= 0.00D+00 IRadAn=         5 IDoV= 1 UseB2=F ITyADJ=14
 ICtDFT=  3500011 ScaDFX=  1.000000  1.000000  1.000000  1.000000
 FoFCou: FMM=F IPFlag=           0 FMFlag=      100000 FMFlg1=           0
         NFxFlg=           0 DoJE=T BraDBF=F KetDBF=T FulRan=T
         wScrn=  0.000000 ICntrl=       500 IOpCl=  0 I1Cent=   200000004 NGrid=           0
         NMat0=    1 NMatS0=      1 NMatT0=    0 NMatD0=    1 NMtDS0=    0 NMtDT0=    0
 Petite list used in FoFCou.
 Harris En= -268.229308748579    
 JPrj=0 DoOrth=F DoCkMO=F.
 Leave Link  401 at Tue Oct 15 20:05:23 2019, MaxMem=   280000000 cpu:               9.8 elap:               0.6
 (Enter /home/soft/g16/l502.exe)
 Keep R1 ints in memory in canonical form, NReq=57089853.
 FoFCou: FMM=F IPFlag=           0 FMFlag=           0 FMFlg1=           0
         NFxFlg=           0 DoJE=F BraDBF=F KetDBF=F FulRan=T
         wScrn=  0.000000 ICntrl=       600 IOpCl=  0 I1Cent=           0 NGrid=           0
         NMat0=    1 NMatS0=   8256 NMatT0=    0 NMatD0=    1 NMtDS0=    0 NMtDT0=    0
 Symmetry not used in FoFCou.
 Two-electron integral symmetry not used.
 Closed shell SCF:
 Using DIIS extrapolation, IDIIS=  1040.
 NGot=   280000000 LenX=   245875047 LenY=   245856917
 Requested convergence on RMS density matrix=1.00D-08 within 128 cycles.
 Requested convergence on MAX density matrix=1.00D-06.
 Requested convergence on             energy=1.00D-06.
 No special actions if energy rises.

 Cycle   1  Pass 1  IDiag  1:
 E= -268.043123067344    
 DIIS: error= 2.72D-02 at cycle   1 NSaved=   1.
 NSaved= 1 IEnMin= 1 EnMin= -268.043123067344     IErMin= 1 ErrMin= 2.72D-02
 ErrMax= 2.72D-02  0.00D+00 EMaxC= 1.00D-01 BMatC= 1.90D-01 BMatP= 1.90D-01
 IDIUse=3 WtCom= 7.28D-01 WtEn= 2.72D-01
 Coeff-Com:  0.100D+01
 Coeff-En:   0.100D+01
 Coeff:      0.100D+01
 Gap=     0.113 Goal=   None    Shift=    0.000
 GapD=    0.113 DampG=1.000 DampE=0.500 DampFc=0.5000 IDamp=-1.
 Damping current iteration by 5.00D-01
 RMSDP=8.85D-03 MaxDP=2.86D-01              OVMax= 1.97D-01

 Cycle   2  Pass 1  IDiag  1:
 E= -268.097024362028     Delta-E=       -0.053901294683 Rises=F Damp=T
 DIIS: error= 8.86D-03 at cycle   2 NSaved=   2.
 NSaved= 2 IEnMin= 2 EnMin= -268.097024362028     IErMin= 2 ErrMin= 8.86D-03
 ErrMax= 8.86D-03  0.00D+00 EMaxC= 1.00D-01 BMatC= 1.60D-02 BMatP= 1.90D-01
 IDIUse=3 WtCom= 9.11D-01 WtEn= 8.86D-02
 Coeff-Com:  0.135D+00 0.865D+00
 Coeff-En:   0.243D+00 0.757D+00
 Coeff:      0.144D+00 0.856D+00
 Gap=     0.143 Goal=   None    Shift=    0.000
 RMSDP=2.05D-03 MaxDP=7.47D-02 DE=-5.39D-02 OVMax= 1.33D-01

 Cycle   3  Pass 1  IDiag  1:
 E= -268.174329370974     Delta-E=       -0.077305008946 Rises=F Damp=F
 DIIS: error= 1.35D-02 at cycle   3 NSaved=   3.
 NSaved= 3 IEnMin= 3 EnMin= -268.174329370974     IErMin= 2 ErrMin= 8.86D-03
 ErrMax= 1.35D-02  0.00D+00 EMaxC= 1.00D-01 BMatC= 1.80D-02 BMatP= 1.60D-02
 IDIUse=2 WtCom= 0.00D+00 WtEn= 1.00D+00
 Coeff-En:   0.000D+00 0.000D+00 0.100D+01
 Coeff:      0.000D+00 0.000D+00 0.100D+01
 Gap=     0.141 Goal=   None    Shift=    0.000
 RMSDP=2.87D-03 MaxDP=4.36D-02 DE=-7.73D-02 OVMax= 1.73D-01

 Cycle   4  Pass 1  IDiag  1:
 E= -268.093730459528     Delta-E=        0.080598911445 Rises=F Damp=F
 DIIS: error= 3.61D-02 at cycle   4 NSaved=   4.
 NSaved= 4 IEnMin= 3 EnMin= -268.174329370974     IErMin= 2 ErrMin= 8.86D-03
 ErrMax= 3.61D-02  0.00D+00 EMaxC= 1.00D-01 BMatC= 1.21D-01 BMatP= 1.60D-02
 IDIUse=2 WtCom= 0.00D+00 WtEn= 1.00D+00
 Coeff-En:   0.000D+00 0.000D+00 0.810D+00 0.190D+00
 Coeff:      0.000D+00 0.000D+00 0.810D+00 0.190D+00
 Gap=     0.139 Goal=   None    Shift=    0.000
 RMSDP=1.56D-03 MaxDP=2.36D-02 DE= 8.06D-02 OVMax= 7.95D-02

 Cycle   5  Pass 1  IDiag  1:
 E= -268.181483848692     Delta-E=       -0.087753389163 Rises=F Damp=F
 DIIS: error= 9.77D-03 at cycle   5 NSaved=   5.
 NSaved= 5 IEnMin= 5 EnMin= -268.181483848692     IErMin= 2 ErrMin= 8.86D-03
 ErrMax= 9.77D-03  0.00D+00 EMaxC= 1.00D-01 BMatC= 9.56D-03 BMatP= 1.60D-02
 IDIUse=3 WtCom= 9.02D-01 WtEn= 9.77D-02
 Coeff-Com:  0.114D-01 0.507D-02 0.396D+00-0.134D-01 0.601D+00
 Coeff-En:   0.000D+00 0.000D+00 0.379D+00 0.000D+00 0.621D+00
 Coeff:      0.103D-01 0.457D-02 0.394D+00-0.121D-01 0.603D+00
 Gap=     0.135 Goal=   None    Shift=    0.000
 RMSDP=6.10D-04 MaxDP=9.62D-03 DE=-8.78D-02 OVMax= 2.64D-02

 Cycle   6  Pass 1  IDiag  1:
 E= -268.189009072882     Delta-E=       -0.007525224190 Rises=F Damp=F
 DIIS: error= 6.29D-04 at cycle   6 NSaved=   6.
 NSaved= 6 IEnMin= 6 EnMin= -268.189009072882     IErMin= 6 ErrMin= 6.29D-04
 ErrMax= 6.29D-04  0.00D+00 EMaxC= 1.00D-01 BMatC= 3.81D-05 BMatP= 9.56D-03
 IDIUse=3 WtCom= 9.94D-01 WtEn= 6.29D-03
 Coeff-Com:  0.335D-02-0.699D-02 0.145D+00-0.298D-01 0.326D+00 0.562D+00
 Coeff-En:   0.000D+00 0.000D+00 0.000D+00 0.000D+00 0.000D+00 0.100D+01
 Coeff:      0.333D-02-0.695D-02 0.145D+00-0.296D-01 0.324D+00 0.564D+00
 Gap=     0.135 Goal=   None    Shift=    0.000
 RMSDP=6.54D-05 MaxDP=1.12D-03 DE=-7.53D-03 OVMax= 3.41D-03

 Cycle   7  Pass 1  IDiag  1:
 E= -268.189044164224     Delta-E=       -0.000035091342 Rises=F Damp=F
 DIIS: error= 1.25D-04 at cycle   7 NSaved=   7.
 NSaved= 7 IEnMin= 7 EnMin= -268.189044164224     IErMin= 7 ErrMin= 1.25D-04
 ErrMax= 1.25D-04  0.00D+00 EMaxC= 1.00D-01 BMatC= 2.91D-06 BMatP= 3.81D-05
 IDIUse=3 WtCom= 9.99D-01 WtEn= 1.25D-03
 Coeff-Com:  0.131D-02-0.345D-02 0.560D-01-0.161D-01 0.141D+00 0.301D+00
 Coeff-Com:  0.520D+00
 Coeff-En:   0.000D+00 0.000D+00 0.000D+00 0.000D+00 0.000D+00 0.000D+00
 Coeff-En:   0.100D+01
 Coeff:      0.131D-02-0.345D-02 0.559D-01-0.161D-01 0.141D+00 0.301D+00
 Coeff:      0.520D+00
 Gap=     0.135 Goal=   None    Shift=    0.000
 RMSDP=1.70D-05 MaxDP=3.27D-04 DE=-3.51D-05 OVMax= 9.84D-04

 Cycle   8  Pass 1  IDiag  1:
 E= -268.189046924073     Delta-E=       -0.000002759849 Rises=F Damp=F
 DIIS: error= 4.73D-05 at cycle   8 NSaved=   8.
 NSaved= 8 IEnMin= 8 EnMin= -268.189046924073     IErMin= 8 ErrMin= 4.73D-05
 ErrMax= 4.73D-05  0.00D+00 EMaxC= 1.00D-01 BMatC= 2.57D-07 BMatP= 2.91D-06
 IDIUse=1 WtCom= 1.00D+00 WtEn= 0.00D+00
 Coeff-Com:  0.510D-03-0.143D-02 0.159D-01-0.583D-02 0.436D-01 0.102D+00
 Coeff-Com:  0.258D+00 0.587D+00
 Coeff:      0.510D-03-0.143D-02 0.159D-01-0.583D-02 0.436D-01 0.102D+00
 Coeff:      0.258D+00 0.587D+00
 Gap=     0.135 Goal=   None    Shift=    0.000
 RMSDP=5.51D-06 MaxDP=7.21D-05 DE=-2.76D-06 OVMax= 3.49D-04

 Cycle   9  Pass 1  IDiag  1:
 E= -268.189047107085     Delta-E=       -0.000000183012 Rises=F Damp=F
 DIIS: error= 2.08D-05 at cycle   9 NSaved=   9.
 NSaved= 9 IEnMin= 9 EnMin= -268.189047107085     IErMin= 9 ErrMin= 2.08D-05
 ErrMax= 2.08D-05  0.00D+00 EMaxC= 1.00D-01 BMatC= 6.88D-08 BMatP= 2.57D-07
 IDIUse=1 WtCom= 1.00D+00 WtEn= 0.00D+00
 Coeff-Com:  0.160D-03-0.498D-03 0.129D-02-0.957D-03 0.479D-02 0.158D-01
 Coeff-Com:  0.808D-01 0.393D+00 0.506D+00
 Coeff:      0.160D-03-0.498D-03 0.129D-02-0.957D-03 0.479D-02 0.158D-01
 Coeff:      0.808D-01 0.393D+00 0.506D+00
 Gap=     0.135 Goal=   None    Shift=    0.000
 RMSDP=2.13D-06 MaxDP=3.39D-05 DE=-1.83D-07 OVMax= 1.13D-04

 Cycle  10  Pass 1  IDiag  1:
 E= -268.189047169797     Delta-E=       -0.000000062712 Rises=F Damp=F
 DIIS: error= 4.49D-06 at cycle  10 NSaved=  10.
 NSaved=10 IEnMin=10 EnMin= -268.189047169797     IErMin=10 ErrMin= 4.49D-06
 ErrMax= 4.49D-06  0.00D+00 EMaxC= 1.00D-01 BMatC= 3.37D-09 BMatP= 6.88D-08
 IDIUse=1 WtCom= 1.00D+00 WtEn= 0.00D+00
 Coeff-Com:  0.367D-05-0.114D-04-0.215D-02 0.763D-03-0.574D-02-0.101D-01
 Coeff-Com: -0.745D-02 0.795D-01 0.182D+00 0.763D+00
 Coeff:      0.367D-05-0.114D-04-0.215D-02 0.763D-03-0.574D-02-0.101D-01
 Coeff:     -0.745D-02 0.795D-01 0.182D+00 0.763D+00
 Gap=     0.135 Goal=   None    Shift=    0.000
 RMSDP=1.48D-06 MaxDP=3.44D-05 DE=-6.27D-08 OVMax= 7.62D-05

 Cycle  11  Pass 1  IDiag  1:
 E= -268.189047175084     Delta-E=       -0.000000005287 Rises=F Damp=F
 DIIS: error= 2.47D-06 at cycle  11 NSaved=  11.
 NSaved=11 IEnMin=11 EnMin= -268.189047175084     IErMin=11 ErrMin= 2.47D-06
 ErrMax= 2.47D-06  0.00D+00 EMaxC= 1.00D-01 BMatC= 6.60D-10 BMatP= 3.37D-09
 IDIUse=1 WtCom= 1.00D+00 WtEn= 0.00D+00
 Coeff-Com: -0.201D-04 0.391D-04-0.436D-03 0.250D-03-0.123D-02-0.190D-02
 Coeff-Com: -0.504D-02-0.358D-01-0.623D-01-0.886D-02 0.112D+01
 Coeff:     -0.201D-04 0.391D-04-0.436D-03 0.250D-03-0.123D-02-0.190D-02
 Coeff:     -0.504D-02-0.358D-01-0.623D-01-0.886D-02 0.112D+01
 Gap=     0.135 Goal=   None    Shift=    0.000
 RMSDP=6.30D-07 MaxDP=9.25D-06 DE=-5.29D-09 OVMax= 4.27D-05

 Cycle  12  Pass 1  IDiag  1:
 E= -268.189047176161     Delta-E=       -0.000000001077 Rises=F Damp=F
 DIIS: error= 1.56D-07 at cycle  12 NSaved=  12.
 NSaved=12 IEnMin=12 EnMin= -268.189047176161     IErMin=12 ErrMin= 1.56D-07
 ErrMax= 1.56D-07  0.00D+00 EMaxC= 1.00D-01 BMatC= 6.03D-12 BMatP= 6.60D-10
 IDIUse=1 WtCom= 1.00D+00 WtEn= 0.00D+00
 Coeff-Com: -0.233D-05 0.726D-05 0.345D-04-0.752D-05 0.108D-03 0.287D-03
 Coeff-Com:  0.354D-03-0.618D-02-0.174D-01-0.538D-01 0.148D+00 0.929D+00
 Coeff:     -0.233D-05 0.726D-05 0.345D-04-0.752D-05 0.108D-03 0.287D-03
 Coeff:      0.354D-03-0.618D-02-0.174D-01-0.538D-01 0.148D+00 0.929D+00
 Gap=     0.135 Goal=   None    Shift=    0.000
 RMSDP=1.00D-07 MaxDP=1.65D-06 DE=-1.08D-09 OVMax= 6.38D-06

 Cycle  13  Pass 1  IDiag  1:
 E= -268.189047176177     Delta-E=       -0.000000000015 Rises=F Damp=F
 DIIS: error= 5.43D-08 at cycle  13 NSaved=  13.
 NSaved=13 IEnMin=13 EnMin= -268.189047176177     IErMin=13 ErrMin= 5.43D-08
 ErrMax= 5.43D-08  0.00D+00 EMaxC= 1.00D-01 BMatC= 3.40D-13 BMatP= 6.03D-12
 IDIUse=1 WtCom= 1.00D+00 WtEn= 0.00D+00
 Coeff-Com:  0.585D-07 0.100D-05 0.145D-04-0.601D-05 0.395D-04 0.845D-04
 Coeff-Com:  0.998D-04-0.413D-03-0.238D-02-0.119D-01 0.103D-01 0.178D+00
 Coeff-Com:  0.826D+00
 Coeff:      0.585D-07 0.100D-05 0.145D-04-0.601D-05 0.395D-04 0.845D-04
 Coeff:      0.998D-04-0.413D-03-0.238D-02-0.119D-01 0.103D-01 0.178D+00
 Coeff:      0.826D+00
 Gap=     0.135 Goal=   None    Shift=    0.000
 RMSDP=1.29D-08 MaxDP=1.75D-07 DE=-1.53D-11 OVMax= 6.09D-07

 Cycle  14  Pass 1  IDiag  1:
 E= -268.189047176180     Delta-E=       -0.000000000003 Rises=F Damp=F
 DIIS: error= 9.35D-09 at cycle  14 NSaved=  14.
 NSaved=14 IEnMin=14 EnMin= -268.189047176180     IErMin=14 ErrMin= 9.35D-09
 ErrMax= 9.35D-09  0.00D+00 EMaxC= 1.00D-01 BMatC= 1.30D-14 BMatP= 3.40D-13
 IDIUse=1 WtCom= 1.00D+00 WtEn= 0.00D+00
 Coeff-Com:  0.181D-06-0.275D-06 0.202D-05-0.752D-06 0.317D-05 0.396D-05
 Coeff-Com:  0.694D-05 0.206D-03 0.363D-03 0.118D-03-0.499D-02-0.171D-01
 Coeff-Com:  0.182D+00 0.840D+00
 Coeff:      0.181D-06-0.275D-06 0.202D-05-0.752D-06 0.317D-05 0.396D-05
 Coeff:      0.694D-05 0.206D-03 0.363D-03 0.118D-03-0.499D-02-0.171D-01
 Coeff:      0.182D+00 0.840D+00
 Gap=     0.135 Goal=   None    Shift=    0.000
 RMSDP=2.67D-09 MaxDP=4.72D-08 DE=-3.01D-12 OVMax= 1.26D-07

 SCF Done:  E(RB3LYP) =  -268.189047176     A.U. after   14 cycles
            NFock= 14  Conv=0.27D-08     -V/T= 2.0008
 KE= 2.679704725861D+02 PE=-9.780021574760D+02 EE= 2.671902040039D+02
 Leave Link  502 at Tue Oct 15 20:05:27 2019, MaxMem=   280000000 cpu:              62.3 elap:               3.3
 (Enter /home/soft/g16/l601.exe)
 Copying SCF densities to generalized density rwf, IOpCl= 0 IROHF=0.

 **********************************************************************

            Population analysis using the SCF density.

 **********************************************************************

 Orbital symmetries:
       Occupied  (A) (A) (A) (A) (A) (A) (A) (A) (A) (A) (A) (A)
                 (A) (A) (A) (A) (A) (A) (A) (A)
       Virtual   (A) (A) (A) (A) (A) (A) (A) (A) (A) (A) (A) (A)
                 (A) (A) (A) (A) (A) (A) (A) (A) (A) (A) (A) (A)
                 (A) (A) (A) (A) (A) (A) (A) (A) (A) (A) (A) (A)
                 (A) (A) (A) (A) (A) (A) (A) (A) (A) (A) (A) (A)
                 (A) (A) (A) (A) (A) (A) (A) (A) (A) (A) (A) (A)
                 (A) (A) (A) (A) (A) (A) (A) (A) (A) (A) (A) (A)
                 (A) (A) (A) (A) (A) (A) (A) (A) (A) (A) (A) (A)
                 (A) (A) (A) (A) (A) (A) (A) (A) (A) (A) (A) (A)
                 (A) (A) (A) (A) (A) (A) (A) (A) (A) (A) (A) (A)
 The electronic state is 1-A.
 Alpha  occ. eigenvalues --  -19.15090 -19.14522 -10.26301 -10.25926 -10.18486
 Alpha  occ. eigenvalues --   -1.06612  -1.04185  -0.86153  -0.73114  -0.62334
 Alpha  occ. eigenvalues --   -0.56059  -0.50979  -0.49298  -0.46716  -0.43697
 Alpha  occ. eigenvalues --   -0.38508  -0.38093  -0.34107  -0.30503  -0.22516
 Alpha virt. eigenvalues --   -0.09015  -0.02574   0.00149   0.01738   0.02894
 Alpha virt. eigenvalues --    0.04110   0.04887   0.05859   0.07834   0.08057
 Alpha virt. eigenvalues --    0.09852   0.10499   0.13230   0.14010   0.14915
 Alpha virt. eigenvalues --    0.16461   0.17575   0.18839   0.19850   0.21214
 Alpha virt. eigenvalues --    0.23225   0.23597   0.25155   0.26180   0.27040
 Alpha virt. eigenvalues --    0.28708   0.30344   0.32270   0.34793   0.36933
 Alpha virt. eigenvalues --    0.39771   0.40747   0.41839   0.46127   0.52578
 Alpha virt. eigenvalues --    0.53720   0.54911   0.57214   0.57743   0.58778
 Alpha virt. eigenvalues --    0.63789   0.64997   0.69005   0.69790   0.73189
 Alpha virt. eigenvalues --    0.78162   0.82572   0.86165   0.93479   1.02620
 Alpha virt. eigenvalues --    1.04525   1.06261   1.07616   1.13007   1.14900
 Alpha virt. eigenvalues --    1.20049   1.24373   1.33520   1.38781   1.39697
 Alpha virt. eigenvalues --    1.43410   1.49729   1.59236   1.62111   1.66736
 Alpha virt. eigenvalues --    1.70487   1.73511   1.77457   1.87143   1.91182
 Alpha virt. eigenvalues --    2.01926   2.13606   2.28164   2.30642   2.38573
 Alpha virt. eigenvalues --    2.41330   2.48941   2.60730   2.63549   2.67731
 Alpha virt. eigenvalues --    2.77631   2.84079   2.87555   2.90633   2.93309
 Alpha virt. eigenvalues --    3.04558   3.09226   3.13026   3.16687   3.24197
 Alpha virt. eigenvalues --    3.27179   3.30445   3.36553   3.46235   3.61549
 Alpha virt. eigenvalues --    3.88849   4.02462   4.96011   4.98652   5.04660
 Alpha virt. eigenvalues --    5.16998   5.44363   5.57891  23.37726  23.63590
 Alpha virt. eigenvalues --   24.07573  49.84108  49.87021
          Condensed to atoms (all electrons):
               1          2          3          4          5          6
     1  C    6.543892   0.417011   0.304000   0.124071  -0.018574  -0.137701
     2  H    0.417011   0.588750  -0.024078   0.001725   0.004740  -0.016468
     3  H    0.304000  -0.024078   0.424505  -0.000973  -0.003649   0.006693
     4  C    0.124071   0.001725  -0.000973   5.373581   0.364974   0.297922
     5  H   -0.018574   0.004740  -0.003649   0.364974   0.444331  -0.039800
     6  O   -0.137701  -0.016468   0.006693   0.297922  -0.039800   8.065472
     7  H   -0.019413   0.002816   0.001007   0.002869   0.004306   0.206440
     8  C   -0.351479  -0.132594   0.022701  -0.105406  -0.002651   0.022649
     9  H   -0.229321  -0.206235   0.006723  -0.014561  -0.003508   0.022474
    10  H    0.056062   0.034343  -0.001151   0.000932   0.000043  -0.000821
    11  O   -0.020898  -0.001967   0.002254   0.025675   0.000027  -0.021927
               7          8          9         10         11
     1  C   -0.019413  -0.351479  -0.229321   0.056062  -0.020898
     2  H    0.002816  -0.132594  -0.206235   0.034343  -0.001967
     3  H    0.001007   0.022701   0.006723  -0.001151   0.002254
     4  C    0.002869  -0.105406  -0.014561   0.000932   0.025675
     5  H    0.004306  -0.002651  -0.003508   0.000043   0.000027
     6  O    0.206440   0.022649   0.022474  -0.000821  -0.021927
     7  H    0.403611   0.007222  -0.006617  -0.000511   0.014090
     8  C    0.007222   5.892172   0.513226   0.275465   0.277440
     9  H   -0.006617   0.513226   0.676130  -0.102895  -0.052669
    10  H   -0.000511   0.275465  -0.102895   0.578433  -0.065465
    11  O    0.014090   0.277440  -0.052669  -0.065465   8.131983
 Mulliken charges:
               1
     1  C   -0.667649
     2  H    0.331956
     3  H    0.261966
     4  C   -0.070810
     5  H    0.249761
     6  O   -0.404932
     7  H    0.384180
     8  C   -0.418746
     9  H    0.397253
    10  H    0.225564
    11  O   -0.288543
 Sum of Mulliken charges =  -0.00000
 Mulliken charges with hydrogens summed into heavy atoms:
               1
     1  C   -0.073727
     4  C    0.178951
     6  O   -0.020752
     8  C    0.204071
    11  O   -0.288543
 Electronic spatial extent (au):  <R**2>=            451.5144
 Charge=             -0.0000 electrons
 Dipole moment (field-independent basis, Debye):
    X=              0.0885    Y=              3.8282    Z=             -0.0724  Tot=              3.8299
 Quadrupole moment (field-independent basis, Debye-Ang):
   XX=            -30.3670   YY=            -32.0525   ZZ=            -32.8734
   XY=             -0.7277   XZ=              1.0474   YZ=              0.9934
 Traceless Quadrupole moment (field-independent basis, Debye-Ang):
   XX=              1.3973   YY=             -0.2882   ZZ=             -1.1091
   XY=             -0.7277   XZ=              1.0474   YZ=              0.9934
 Octapole moment (field-independent basis, Debye-Ang**2):
  XXX=              5.5110  YYY=              1.0670  ZZZ=              0.1715  XYY=             -3.1642
  XXY=             11.3278  XXZ=              3.6462  XZZ=             -2.2023  YZZ=             -4.0192
  YYZ=             -0.5458  XYZ=              1.4018
 Hexadecapole moment (field-independent basis, Debye-Ang**3):
 XXXX=           -325.7915 YYYY=           -182.8210 ZZZZ=            -39.8201 XXXY=             -8.0419
 XXXZ=              5.3061 YYYX=              7.3095 YYYZ=              3.1935 ZZZX=              0.9495
 ZZZY=              1.5177 XXYY=            -97.2279 XXZZ=            -68.1279 YYZZ=            -41.5194
 XXYZ=              0.3482 YYXZ=              1.3012 ZZXY=             -1.2505
 N-N= 1.746524337098D+02 E-N=-9.780021577520D+02  KE= 2.679704725861D+02
 No NMR shielding tensors so no spin-rotation constants.
 Leave Link  601 at Tue Oct 15 20:05:27 2019, MaxMem=   280000000 cpu:               5.0 elap:               0.3
 (Enter /home/soft/g16/l701.exe)
 ... and contract with generalized density number  0.
 Compute integral first derivatives.
 Leave Link  701 at Tue Oct 15 20:05:27 2019, MaxMem=   280000000 cpu:               3.0 elap:               0.3
 (Enter /home/soft/g16/l702.exe)
 L702 exits ... SP integral derivatives will be done elsewhere.
 Leave Link  702 at Tue Oct 15 20:05:28 2019, MaxMem=   280000000 cpu:               0.5 elap:               0.0
 (Enter /home/soft/g16/l703.exe)
 Integral derivatives from FoFJK, PRISM(SPDF).
 Compute integral first derivatives, UseDBF=F ICtDFT=           0.
 Calling FoFJK, ICntrl=      2127 FMM=F ISym2X=0 I1Cent= 0 IOpClX= 0 NMat=1 NMatS=1 NMatT=0.
 FoFJK:  IHMeth= 1 ICntrl=    2127 DoSepK=F KAlg= 0 I1Cent=           0 FoldK=F
 IRaf=         0 NMat=       1 IRICut=       1 DoRegI=T DoRafI=F ISym2E= 0 IDoP0=0 IntGTp=1.
 FoFCou: FMM=F IPFlag=           0 FMFlag=      100000 FMFlg1=         800
         NFxFlg=           0 DoJE=F BraDBF=F KetDBF=F FulRan=T
         wScrn=  0.000000 ICntrl=      2127 IOpCl=  0 I1Cent=           0 NGrid=           0
         NMat0=    1 NMatS0=      1 NMatT0=    0 NMatD0=    1 NMtDS0=    0 NMtDT0=    0
 Symmetry not used in FoFCou.
 Leave Link  703 at Tue Oct 15 20:05:28 2019, MaxMem=   280000000 cpu:              16.6 elap:               0.7
 (Enter /home/soft/g16/l716.exe)
 Dipole        = 3.48248587D-02 1.50613481D+00-2.84739717D-02
 ***** Axes restored to original set *****
 -------------------------------------------------------------------
 Center     Atomic                   Forces (Hartrees/Bohr)
 Number     Number              X              Y              Z
 -------------------------------------------------------------------
      1        6          -0.028353069    0.097048107   -0.099717678
      2        1          -0.019623367    0.017362843   -0.145909959
      3        1          -0.010395236   -0.006685259   -0.002531444
      4        6           0.043251496   -0.046407502    0.007924461
      5        1           0.008098894    0.014762460    0.006042836
      6        8          -0.053012630    0.038390827   -0.019472955
      7        1           0.003697486   -0.009860892    0.007175959
      8        6           0.113244247   -0.053075870    0.125622251
      9        1          -0.009791826   -0.010698823    0.147760120
     10        1          -0.009569168   -0.023987303   -0.012751896
     11        8          -0.037546827   -0.016848588   -0.014141693
 -------------------------------------------------------------------
 Cartesian Forces:  Max     0.147760120 RMS     0.057134371
 Leave Link  716 at Tue Oct 15 20:05:29 2019, MaxMem=   280000000 cpu:               1.2 elap:               0.1
 (Enter /home/soft/g16/l103.exe)

 GradGradGradGradGradGradGradGradGradGradGradGradGradGradGradGradGradGrad
 Berny optimization.
 FormGI is forming the generalized inverse of G from B-inverse, IUseBI=4.
 Internal  Forces:  Max     0.297910066 RMS     0.077880417
 Search for a local minimum.
 Step number   1 out of a maximum of   45
 All quantities printed in internal units (Hartrees-Bohrs-Radians)
 RMS Force = .77880D-01 SwitMx=.10000D-02 MixMth= 1
 Mixed Optimization -- RFO/linear search
 Second derivative matrix not updated -- first step.
 ITU=  0
     Eigenvalues ---    0.00230   0.00499   0.01295   0.01954   0.02219
     Eigenvalues ---    0.02681   0.06734   0.08522   0.16000   0.16000
     Eigenvalues ---    0.16000   0.16000   0.16000   0.16000   0.16000
     Eigenvalues ---    0.19425   0.22000   0.25000   0.37230   0.37230
     Eigenvalues ---    0.37230   0.37230   0.37230   0.40989   0.53930
     Eigenvalues ---    0.55473   0.80209
 RFO step:  Lambda=-3.72499592D-01 EMin= 2.30000000D-03
 Linear search not attempted -- first point.
 Maximum step size (   0.300) exceeded in Quadratic search.
    -- Step size scaled by   0.371
 Iteration  1 RMS(Cart)=  0.13693671 RMS(Int)=  0.01130199
 Iteration  2 RMS(Cart)=  0.01540721 RMS(Int)=  0.00157176
 Iteration  3 RMS(Cart)=  0.00026653 RMS(Int)=  0.00156320
 Iteration  4 RMS(Cart)=  0.00000265 RMS(Int)=  0.00156320
 Iteration  5 RMS(Cart)=  0.00000004 RMS(Int)=  0.00156320
 ITry= 1 IFail=0 DXMaxC= 5.84D-01 DCOld= 1.00D+10 DXMaxT= 3.00D-01 DXLimC= 3.00D+00 Rises=F
 Variable       Old X    -DE/DX   Delta X   Delta X   Delta X     New X
                                 (Linear)    (Quad)   (Total)
    R1        2.02201   0.10922   0.00000   0.05434   0.05434   2.07635
    R2        2.02201   0.01060   0.00000   0.00527   0.00527   2.02728
    R3        2.56096  -0.00165   0.00000  -0.00067  -0.00067   2.56029
    R4        2.42641   0.26430   0.00000   0.17282   0.17282   2.59923
    R5        2.02201   0.00795   0.00000   0.00395   0.00395   2.02596
    R6        2.70231  -0.05080   0.00000  -0.02406  -0.02406   2.67825
    R7        1.81414   0.01119   0.00000   0.00447   0.00447   1.81861
    R8        2.02201  -0.01312   0.00000  -0.00653  -0.00653   2.01548
    R9        2.02201   0.02546   0.00000   0.01267   0.01267   2.03468
   R10        2.37803  -0.04065   0.00000  -0.01282  -0.01282   2.36521
    A1        2.09440  -0.02223   0.00000  -0.01547  -0.01547   2.07892
    A2        2.09440   0.03107   0.00000   0.02162   0.02162   2.11602
    A3        2.09440  -0.00884   0.00000  -0.00615  -0.00615   2.08824
    A4        2.40380   0.17265   0.00000   0.10278   0.10278   2.50658
    A5        2.09440  -0.00645   0.00000  -0.00299  -0.00299   2.09141
    A6        2.09440   0.04265   0.00000   0.02668   0.02668   2.12107
    A7        2.09440  -0.03620   0.00000  -0.02369  -0.02369   2.07070
    A8        1.91063   0.00201   0.00000   0.00140   0.00140   1.91203
    A9        0.80611   0.29791   0.00000   0.20733   0.20630   1.01241
   A10        1.91921  -0.02137   0.00000  -0.01621  -0.01590   1.90331
   A11        1.92933  -0.01788   0.00000  -0.01471  -0.01472   1.91461
   A12        2.09440  -0.00622   0.00000  -0.00412  -0.01003   2.08437
   A13        2.09440   0.00962   0.00000   0.00836   0.00312   2.09751
   A14        2.09440  -0.00340   0.00000  -0.00424  -0.00812   2.08627
    D1       -1.82961   0.00072   0.00000   0.00070   0.00070  -1.82890
    D2        1.31199   0.00067   0.00000   0.00066   0.00066   1.31265
    D3       -3.14159   0.00265   0.00000   0.00247   0.00247  -3.13912
    D4        0.00000   0.00116   0.00000   0.00107   0.00107   0.00107
    D5        0.00000   0.00261   0.00000   0.00243   0.00243   0.00243
    D6       -3.14159   0.00111   0.00000   0.00103   0.00102  -3.14057
    D7        0.29895   0.00823   0.00000   0.00664   0.00607   0.30502
    D8        2.26897   0.01545   0.00000   0.01314   0.01521   2.28418
    D9       -1.66212  -0.02403   0.00000  -0.02012  -0.02163  -1.68375
   D10        0.04920  -0.00438   0.00000  -0.00423  -0.00423   0.04496
   D11       -3.09240  -0.00587   0.00000  -0.00563  -0.00562  -3.09802
         Item               Value     Threshold  Converged?
 Maximum Force            0.297910     0.000450     NO 
 RMS     Force            0.077880     0.000300     NO 
 Maximum Displacement     0.583993     0.001800     NO 
 RMS     Displacement     0.147503     0.001200     NO 
 Predicted change in Energy=-1.291296D-01
 Lowest energy point so far.  Saving SCF results.
 GradGradGradGradGradGradGradGradGradGradGradGradGradGradGradGradGradGrad

 Leave Link  103 at Tue Oct 15 20:05:29 2019, MaxMem=   280000000 cpu:               3.2 elap:               0.2
 (Enter /home/soft/g16/l202.exe)
                          Input orientation:                          
 ---------------------------------------------------------------------
 Center     Atomic      Atomic             Coordinates (Angstroms)
 Number     Number       Type             X           Y           Z
 ---------------------------------------------------------------------
      1          6           0       -4.059421    1.330213   -0.016963
      2          1           0       -3.561256    0.376753    0.206667
      3          1           0       -5.116393    1.336436   -0.200405
      4          6           0       -3.364109    2.492059   -0.064495
      5          1           0       -3.873513    3.409848   -0.282561
      6          8           0       -1.966901    2.529722    0.170107
      7          1           0       -1.640108    1.635877    0.312930
      8          6           0       -3.009845   -0.373820    1.218823
      9          1           0       -3.667969    0.442293    1.414654
     10          1           0       -3.406598   -1.373624    1.171164
     11          8           0       -1.770267   -0.202482    1.243899
 ---------------------------------------------------------------------
                    Distance matrix (angstroms):
                    1          2          3          4          5
     1  C    0.000000
     2  H    1.098756   0.000000
     3  H    1.072791   1.872205   0.000000
     4  C    1.354845   2.141709   2.103434   0.000000
     5  H    2.104753   3.088125   2.418789   1.072092   0.000000
     6  O    2.419185   2.679287   3.388290   1.417268   2.148185
     7  H    2.460759   2.299456   3.526717   1.961550   2.913705
     8  C    2.352128   1.375454   3.062145   3.160012   4.161276
     9  H    1.729498   1.214461   2.346453   2.545929   3.424787
    10  H    3.024658   2.004493   3.485545   4.058591   5.021248
    11  O    3.029711   2.149187   3.956114   3.393048   4.450017
                    6          7          8          9         10
     6  O    0.000000
     7  H    0.962367   0.000000
     8  C    3.258542   2.595324   0.000000
     9  H    2.966461   2.598203   1.066545   0.000000
    10  H    4.279130   3.593626   1.076704   1.850718   0.000000
    11  O    2.942215   2.064754   1.251614   2.011508   2.013564
                   11
    11  O    0.000000
 Stoichiometry    C3H6O2
 Framework group  C1[X(C3H6O2)]
 Deg. of freedom    27
 Full point group                 C1      NOp   1
 RotChk:  IX=0 Diff= 2.34D-02
 Largest Abelian subgroup         C1      NOp   1
 Largest concise Abelian subgroup C1      NOp   1
                         Standard orientation:                         
 ---------------------------------------------------------------------
 Center     Atomic      Atomic             Coordinates (Angstroms)
 Number     Number       Type             X           Y           Z
 ---------------------------------------------------------------------
      1          6           0        0.633084    1.174661   -0.156083
      2          1           0       -0.407966    0.922032   -0.400332
      3          1           0        0.919295    2.206792   -0.095502
      4          6           0        1.556297    0.208867    0.068689
      5          1           0        2.565381    0.480977    0.307616
      6          8           0        1.222208   -1.166639   -0.002132
      7          1           0        0.300428   -1.261207   -0.261993
      8          6           0       -1.592239    0.469995    0.133554
      9          1           0       -0.810125    0.861363    0.744003
     10          1           0       -2.390936    1.118818   -0.183311
     11          8           0       -1.692075   -0.764600   -0.046298
 ---------------------------------------------------------------------
 Rotational constants (GHZ):           8.1871136           3.3763667           2.4253862
 Leave Link  202 at Tue Oct 15 20:05:29 2019, MaxMem=   280000000 cpu:               0.2 elap:               0.0
 (Enter /home/soft/g16/l301.exe)
 Standard basis: 6-311+G(d) (5D, 7F)
 Ernie: Thresh=  0.10000D-02 Tol=  0.10000D-05 Strict=F.
 There are   133 symmetry adapted cartesian basis functions of A   symmetry.
 There are   128 symmetry adapted basis functions of A   symmetry.
   128 basis functions,   210 primitive gaussians,   133 cartesian basis functions
    20 alpha electrons       20 beta electrons
       nuclear repulsion energy       169.5456855876 Hartrees.
 IExCor=  402 DFT=T Ex+Corr=B3LYP ExCW=0 ScaHFX=  0.200000
 ScaDFX=  0.800000  0.720000  1.000000  0.810000 ScalE2=  1.000000  1.000000
 IRadAn=      5 IRanWt=     -1 IRanGd=            0 ICorTp=0 IEmpDi=  4
 NAtoms=   11 NActive=   11 NUniq=   11 SFac= 1.00D+00 NAtFMM=   60 NAOKFM=F Big=F
 Integral buffers will be    131072 words long.
 Raffenetti 2 integral format.
 Two-electron integral symmetry is turned on.
 Leave Link  301 at Tue Oct 15 20:05:29 2019, MaxMem=   280000000 cpu:               1.6 elap:               0.1
 (Enter /home/soft/g16/l302.exe)
 NPDir=0 NMtPBC=     1 NCelOv=     1 NCel=       1 NClECP=     1 NCelD=      1
         NCelK=      1 NCelE2=     1 NClLst=     1 CellRange=     0.0.
 One-electron integrals computed using PRISM.
 One-electron integral symmetry used in STVInt
 NBasis=   128 RedAO= T EigKep=  8.83D-05  NBF=   128
 NBsUse=   128 1.00D-06 EigRej= -1.00D+00 NBFU=   128
 Precomputing XC quadrature grid using
 IXCGrd= 4 IRadAn=           5 IRanWt=          -1 IRanGd=           0 AccXCQ= 0.00D+00.
 Generated NRdTot=       0 NPtTot=           0 NUsed=           0 NTot=          32
 NSgBfM=   133   133   133   133   133 MxSgAt=    11 MxSgA2=    11.
 Leave Link  302 at Tue Oct 15 20:05:29 2019, MaxMem=   280000000 cpu:               3.1 elap:               0.1
 (Enter /home/soft/g16/l303.exe)
 DipDrv:  MaxL=1.
 Leave Link  303 at Tue Oct 15 20:05:29 2019, MaxMem=   280000000 cpu:               1.9 elap:               0.1
 (Enter /home/soft/g16/l401.exe)
 Initial guess from the checkpoint file:  "R.chk"
 B after Tr=    -0.000000    0.000000    0.000000
         Rot=    0.999977   -0.000610    0.002981   -0.006040 Ang=  -0.77 deg.
 Guess basis will be translated and rotated to current coordinates.
 JPrj=2 DoOrth=T DoCkMO=T.
 Generating alternative initial guess.
 ExpMin= 4.38D-02 ExpMax= 8.59D+03 ExpMxC= 1.30D+03 IAcc=2 IRadAn=         4 AccDes= 0.00D+00
 Harris functional with IExCor=  402 and IRadAn=       4 diagonalized for initial guess.
 HarFok:  IExCor=  402 AccDes= 0.00D+00 IRadAn=         4 IDoV= 1 UseB2=F ITyADJ=14
 ICtDFT=  3500011 ScaDFX=  1.000000  1.000000  1.000000  1.000000
 FoFCou: FMM=F IPFlag=           0 FMFlag=      100000 FMFlg1=           0
         NFxFlg=           0 DoJE=T BraDBF=F KetDBF=T FulRan=T
         wScrn=  0.000000 ICntrl=       500 IOpCl=  0 I1Cent=   200000004 NGrid=           0
         NMat0=    1 NMatS0=      1 NMatT0=    0 NMatD0=    1 NMtDS0=    0 NMtDT0=    0
 Petite list used in FoFCou.
 Harris En= -268.323841252921    
 Leave Link  401 at Tue Oct 15 20:05:30 2019, MaxMem=   280000000 cpu:               5.7 elap:               0.3
 (Enter /home/soft/g16/l502.exe)
 Keep R1 ints in memory in canonical form, NReq=57089853.
 FoFCou: FMM=F IPFlag=           0 FMFlag=           0 FMFlg1=           0
         NFxFlg=           0 DoJE=F BraDBF=F KetDBF=F FulRan=T
         wScrn=  0.000000 ICntrl=       600 IOpCl=  0 I1Cent=           0 NGrid=           0
         NMat0=    1 NMatS0=   8256 NMatT0=    0 NMatD0=    1 NMtDS0=    0 NMtDT0=    0
 Symmetry not used in FoFCou.
 Two-electron integral symmetry not used.
 Closed shell SCF:
 Using DIIS extrapolation, IDIIS=  1040.
 NGot=   280000000 LenX=   245875047 LenY=   245856917
 Requested convergence on RMS density matrix=1.00D-08 within 128 cycles.
 Requested convergence on MAX density matrix=1.00D-06.
 Requested convergence on             energy=1.00D-06.
 No special actions if energy rises.

 Cycle   1  Pass 1  IDiag  1:
 E= -268.258615223494    
 DIIS: error= 9.62D-03 at cycle   1 NSaved=   1.
 NSaved= 1 IEnMin= 1 EnMin= -268.258615223494     IErMin= 1 ErrMin= 9.62D-03
 ErrMax= 9.62D-03  0.00D+00 EMaxC= 1.00D-01 BMatC= 2.20D-02 BMatP= 2.20D-02
 IDIUse=3 WtCom= 9.04D-01 WtEn= 9.62D-02
 Coeff-Com:  0.100D+01
 Coeff-En:   0.100D+01
 Coeff:      0.100D+01
 Gap=     0.452 Goal=   None    Shift=    0.000
 GapD=    0.452 DampG=2.000 DampE=1.000 DampFc=2.0000 IDamp=-1.
 RMSDP=2.10D-03 MaxDP=3.00D-02              OVMax= 8.83D-02

 Cycle   2  Pass 1  IDiag  1:
 E= -268.284803896448     Delta-E=       -0.026188672954 Rises=F Damp=F
 DIIS: error= 5.82D-03 at cycle   2 NSaved=   2.
 NSaved= 2 IEnMin= 2 EnMin= -268.284803896448     IErMin= 2 ErrMin= 5.82D-03
 ErrMax= 5.82D-03  0.00D+00 EMaxC= 1.00D-01 BMatC= 3.35D-03 BMatP= 2.20D-02
 IDIUse=3 WtCom= 9.42D-01 WtEn= 5.82D-02
 Coeff-Com:  0.162D+00 0.838D+00
 Coeff-En:   0.000D+00 0.100D+01
 Coeff:      0.153D+00 0.847D+00
 Gap=     0.160 Goal=   None    Shift=    0.000
 RMSDP=1.10D-03 MaxDP=2.08D-02 DE=-2.62D-02 OVMax= 5.34D-02

 Cycle   3  Pass 1  IDiag  1:
 E= -268.279451236725     Delta-E=        0.005352659723 Rises=F Damp=F
 DIIS: error= 1.15D-02 at cycle   3 NSaved=   3.
 NSaved= 3 IEnMin= 2 EnMin= -268.284803896448     IErMin= 2 ErrMin= 5.82D-03
 ErrMax= 1.15D-02  0.00D+00 EMaxC= 1.00D-01 BMatC= 9.51D-03 BMatP= 3.35D-03
 IDIUse=2 WtCom= 0.00D+00 WtEn= 1.00D+00
 Coeff-En:   0.000D+00 0.674D+00 0.326D+00
 Coeff:      0.000D+00 0.674D+00 0.326D+00
 Gap=     0.160 Goal=   None    Shift=    0.000
 RMSDP=5.82D-04 MaxDP=1.02D-02 DE= 5.35D-03 OVMax= 3.19D-02

 Cycle   4  Pass 1  IDiag  1:
 E= -268.288214380615     Delta-E=       -0.008763143890 Rises=F Damp=F
 DIIS: error= 1.60D-03 at cycle   4 NSaved=   4.
 NSaved= 4 IEnMin= 4 EnMin= -268.288214380615     IErMin= 4 ErrMin= 1.60D-03
 ErrMax= 1.60D-03  0.00D+00 EMaxC= 1.00D-01 BMatC= 2.83D-04 BMatP= 3.35D-03
 IDIUse=3 WtCom= 9.84D-01 WtEn= 1.60D-02
 Coeff-Com: -0.144D-01 0.333D+00 0.151D+00 0.530D+00
 Coeff-En:   0.000D+00 0.000D+00 0.000D+00 0.100D+01
 Coeff:     -0.142D-01 0.328D+00 0.148D+00 0.538D+00
 Gap=     0.157 Goal=   None    Shift=    0.000
 RMSDP=1.46D-04 MaxDP=3.12D-03 DE=-8.76D-03 OVMax= 7.22D-03

 Cycle   5  Pass 1  IDiag  1:
 E= -268.288463303002     Delta-E=       -0.000248922387 Rises=F Damp=F
 DIIS: error= 6.91D-04 at cycle   5 NSaved=   5.
 NSaved= 5 IEnMin= 5 EnMin= -268.288463303002     IErMin= 5 ErrMin= 6.91D-04
 ErrMax= 6.91D-04  0.00D+00 EMaxC= 1.00D-01 BMatC= 4.15D-05 BMatP= 2.83D-04
 IDIUse=3 WtCom= 9.93D-01 WtEn= 6.91D-03
 Coeff-Com: -0.821D-02 0.125D+00 0.487D-01 0.326D+00 0.508D+00
 Coeff-En:   0.000D+00 0.000D+00 0.000D+00 0.289D-01 0.971D+00
 Coeff:     -0.815D-02 0.124D+00 0.484D-01 0.324D+00 0.511D+00
 Gap=     0.157 Goal=   None    Shift=    0.000
 RMSDP=5.06D-05 MaxDP=6.75D-04 DE=-2.49D-04 OVMax= 3.11D-03

 Cycle   6  Pass 1  IDiag  1:
 E= -268.288496500381     Delta-E=       -0.000033197379 Rises=F Damp=F
 DIIS: error= 1.71D-04 at cycle   6 NSaved=   6.
 NSaved= 6 IEnMin= 6 EnMin= -268.288496500381     IErMin= 6 ErrMin= 1.71D-04
 ErrMax= 1.71D-04  0.00D+00 EMaxC= 1.00D-01 BMatC= 4.29D-06 BMatP= 4.15D-05
 IDIUse=3 WtCom= 9.98D-01 WtEn= 1.71D-03
 Coeff-Com: -0.242D-02 0.237D-01 0.739D-02 0.107D+00 0.292D+00 0.572D+00
 Coeff-En:   0.000D+00 0.000D+00 0.000D+00 0.000D+00 0.123D-01 0.988D+00
 Coeff:     -0.242D-02 0.236D-01 0.737D-02 0.107D+00 0.291D+00 0.573D+00
 Gap=     0.158 Goal=   None    Shift=    0.000
 RMSDP=2.45D-05 MaxDP=7.20D-04 DE=-3.32D-05 OVMax= 1.15D-03

 Cycle   7  Pass 1  IDiag  1:
 E= -268.288500438288     Delta-E=       -0.000003937907 Rises=F Damp=F
 DIIS: error= 6.61D-05 at cycle   7 NSaved=   7.
 NSaved= 7 IEnMin= 7 EnMin= -268.288500438288     IErMin= 7 ErrMin= 6.61D-05
 ErrMax= 6.61D-05  0.00D+00 EMaxC= 1.00D-01 BMatC= 5.40D-07 BMatP= 4.29D-06
 IDIUse=1 WtCom= 1.00D+00 WtEn= 0.00D+00
 Coeff-Com:  0.476D-03-0.147D-01-0.634D-02-0.853D-02 0.612D-01 0.306D+00
 Coeff-Com:  0.662D+00
 Coeff:      0.476D-03-0.147D-01-0.634D-02-0.853D-02 0.612D-01 0.306D+00
 Coeff:      0.662D+00
 Gap=     0.158 Goal=   None    Shift=    0.000
 RMSDP=9.07D-06 MaxDP=1.02D-04 DE=-3.94D-06 OVMax= 6.38D-04

 Cycle   8  Pass 1  IDiag  1:
 E= -268.288501059678     Delta-E=       -0.000000621389 Rises=F Damp=F
 DIIS: error= 1.85D-05 at cycle   8 NSaved=   8.
 NSaved= 8 IEnMin= 8 EnMin= -268.288501059678     IErMin= 8 ErrMin= 1.85D-05
 ErrMax= 1.85D-05  0.00D+00 EMaxC= 1.00D-01 BMatC= 4.68D-08 BMatP= 5.40D-07
 IDIUse=1 WtCom= 1.00D+00 WtEn= 0.00D+00
 Coeff-Com:  0.447D-03-0.922D-02-0.349D-02-0.132D-01 0.440D-03 0.840D-01
 Coeff-Com:  0.296D+00 0.645D+00
 Coeff:      0.447D-03-0.922D-02-0.349D-02-0.132D-01 0.440D-03 0.840D-01
 Coeff:      0.296D+00 0.645D+00
 Gap=     0.158 Goal=   None    Shift=    0.000
 RMSDP=2.92D-06 MaxDP=4.35D-05 DE=-6.21D-07 OVMax= 2.01D-04

 Cycle   9  Pass 1  IDiag  1:
 E= -268.288501111892     Delta-E=       -0.000000052214 Rises=F Damp=F
 DIIS: error= 7.84D-06 at cycle   9 NSaved=   9.
 NSaved= 9 IEnMin= 9 EnMin= -268.288501111892     IErMin= 9 ErrMin= 7.84D-06
 ErrMax= 7.84D-06  0.00D+00 EMaxC= 1.00D-01 BMatC= 1.10D-08 BMatP= 4.68D-08
 IDIUse=1 WtCom= 1.00D+00 WtEn= 0.00D+00
 Coeff-Com:  0.149D-03-0.232D-02-0.637D-03-0.530D-02-0.117D-01-0.148D-01
 Coeff-Com:  0.323D-01 0.360D+00 0.643D+00
 Coeff:      0.149D-03-0.232D-02-0.637D-03-0.530D-02-0.117D-01-0.148D-01
 Coeff:      0.323D-01 0.360D+00 0.643D+00
 Gap=     0.158 Goal=   None    Shift=    0.000
 RMSDP=1.39D-06 MaxDP=2.08D-05 DE=-5.22D-08 OVMax= 9.22D-05

 Cycle  10  Pass 1  IDiag  1:
 E= -268.288501126006     Delta-E=       -0.000000014114 Rises=F Damp=F
 DIIS: error= 1.94D-06 at cycle  10 NSaved=  10.
 NSaved=10 IEnMin=10 EnMin= -268.288501126006     IErMin=10 ErrMin= 1.94D-06
 ErrMax= 1.94D-06  0.00D+00 EMaxC= 1.00D-01 BMatC= 5.08D-10 BMatP= 1.10D-08
 IDIUse=1 WtCom= 1.00D+00 WtEn= 0.00D+00
 Coeff-Com: -0.696D-05 0.370D-03 0.280D-03 0.285D-04-0.304D-02-0.131D-01
 Coeff-Com: -0.226D-01 0.198D-01 0.192D+00 0.826D+00
 Coeff:     -0.696D-05 0.370D-03 0.280D-03 0.285D-04-0.304D-02-0.131D-01
 Coeff:     -0.226D-01 0.198D-01 0.192D+00 0.826D+00
 Gap=     0.158 Goal=   None    Shift=    0.000
 RMSDP=4.11D-07 MaxDP=8.06D-06 DE=-1.41D-08 OVMax= 2.46D-05

 Cycle  11  Pass 1  IDiag  1:
 E= -268.288501126739     Delta-E=       -0.000000000733 Rises=F Damp=F
 DIIS: error= 4.27D-07 at cycle  11 NSaved=  11.
 NSaved=11 IEnMin=11 EnMin= -268.288501126739     IErMin=11 ErrMin= 4.27D-07
 ErrMax= 4.27D-07  0.00D+00 EMaxC= 1.00D-01 BMatC= 4.67D-11 BMatP= 5.08D-10
 IDIUse=1 WtCom= 1.00D+00 WtEn= 0.00D+00
 Coeff-Com: -0.108D-04 0.275D-03 0.161D-03 0.288D-03-0.408D-03-0.429D-02
 Coeff-Com: -0.108D-01-0.143D-01 0.412D-01 0.324D+00 0.664D+00
 Coeff:     -0.108D-04 0.275D-03 0.161D-03 0.288D-03-0.408D-03-0.429D-02
 Coeff:     -0.108D-01-0.143D-01 0.412D-01 0.324D+00 0.664D+00
 Gap=     0.158 Goal=   None    Shift=    0.000
 RMSDP=7.80D-08 MaxDP=1.62D-06 DE=-7.33D-10 OVMax= 3.42D-06

 Cycle  12  Pass 1  IDiag  1:
 E= -268.288501126789     Delta-E=       -0.000000000051 Rises=F Damp=F
 DIIS: error= 1.34D-07 at cycle  12 NSaved=  12.
 NSaved=12 IEnMin=12 EnMin= -268.288501126789     IErMin=12 ErrMin= 1.34D-07
 ErrMax= 1.34D-07  0.00D+00 EMaxC= 1.00D-01 BMatC= 2.44D-12 BMatP= 4.67D-11
 IDIUse=1 WtCom= 1.00D+00 WtEn= 0.00D+00
 Coeff-Com: -0.268D-05 0.523D-04 0.310D-04 0.670D-04 0.157D-03-0.218D-03
 Coeff-Com: -0.138D-02-0.547D-02-0.270D-02 0.239D-01 0.186D+00 0.799D+00
 Coeff:     -0.268D-05 0.523D-04 0.310D-04 0.670D-04 0.157D-03-0.218D-03
 Coeff:     -0.138D-02-0.547D-02-0.270D-02 0.239D-01 0.186D+00 0.799D+00
 Gap=     0.158 Goal=   None    Shift=    0.000
 RMSDP=2.24D-08 MaxDP=5.86D-07 DE=-5.07D-11 OVMax= 9.73D-07

 Cycle  13  Pass 1  IDiag  1:
 E= -268.288501126793     Delta-E=       -0.000000000004 Rises=F Damp=F
 DIIS: error= 1.74D-08 at cycle  13 NSaved=  13.
 NSaved=13 IEnMin=13 EnMin= -268.288501126793     IErMin=13 ErrMin= 1.74D-08
 ErrMax= 1.74D-08  0.00D+00 EMaxC= 1.00D-01 BMatC= 5.69D-14 BMatP= 2.44D-12
 IDIUse=1 WtCom= 1.00D+00 WtEn= 0.00D+00
 Coeff-Com:  0.182D-06-0.741D-05-0.467D-05-0.644D-05 0.460D-04 0.218D-03
 Coeff-Com:  0.417D-03-0.205D-03-0.273D-02-0.139D-01 0.745D-03 0.143D+00
 Coeff-Com:  0.872D+00
 Coeff:      0.182D-06-0.741D-05-0.467D-05-0.644D-05 0.460D-04 0.218D-03
 Coeff:      0.417D-03-0.205D-03-0.273D-02-0.139D-01 0.745D-03 0.143D+00
 Coeff:      0.872D+00
 Gap=     0.158 Goal=   None    Shift=    0.000
 RMSDP=4.37D-09 MaxDP=6.41D-08 DE=-3.64D-12 OVMax= 2.25D-07

 SCF Done:  E(RB3LYP) =  -268.288501127     A.U. after   13 cycles
            NFock= 13  Conv=0.44D-08     -V/T= 2.0024
 KE= 2.676459695224D+02 PE=-9.677709175342D+02 EE= 2.622907612975D+02
 Leave Link  502 at Tue Oct 15 20:05:32 2019, MaxMem=   280000000 cpu:              54.4 elap:               2.9
 (Enter /home/soft/g16/l701.exe)
 ... and contract with generalized density number  0.
 Compute integral first derivatives.
 Leave Link  701 at Tue Oct 15 20:05:33 2019, MaxMem=   280000000 cpu:               4.2 elap:               0.2
 (Enter /home/soft/g16/l702.exe)
 L702 exits ... SP integral derivatives will be done elsewhere.
 Leave Link  702 at Tue Oct 15 20:05:33 2019, MaxMem=   280000000 cpu:               0.8 elap:               0.1
 (Enter /home/soft/g16/l703.exe)
 Integral derivatives from FoFJK, PRISM(SPDF).
 Compute integral first derivatives, UseDBF=F ICtDFT=           0.
 Calling FoFJK, ICntrl=      2127 FMM=F ISym2X=0 I1Cent= 0 IOpClX= 0 NMat=1 NMatS=1 NMatT=0.
 FoFJK:  IHMeth= 1 ICntrl=    2127 DoSepK=F KAlg= 0 I1Cent=           0 FoldK=F
 IRaf=         0 NMat=       1 IRICut=       1 DoRegI=T DoRafI=F ISym2E= 0 IDoP0=0 IntGTp=1.
 FoFCou: FMM=F IPFlag=           0 FMFlag=      100000 FMFlg1=         800
         NFxFlg=           0 DoJE=F BraDBF=F KetDBF=F FulRan=T
         wScrn=  0.000000 ICntrl=      2127 IOpCl=  0 I1Cent=           0 NGrid=           0
         NMat0=    1 NMatS0=      1 NMatT0=    0 NMatD0=    1 NMtDS0=    0 NMtDT0=    0
 Symmetry not used in FoFCou.
 Leave Link  703 at Tue Oct 15 20:05:33 2019, MaxMem=   280000000 cpu:              16.0 elap:               0.7
 (Enter /home/soft/g16/l716.exe)
 Dipole        =-5.84625790D-02 1.42898896D+00 5.52810040D-02
 ***** Axes restored to original set *****
 -------------------------------------------------------------------
 Center     Atomic                   Forces (Hartrees/Bohr)
 Number     Number              X              Y              Z
 -------------------------------------------------------------------
      1        6          -0.001824304    0.049212688   -0.047830980
      2        1          -0.024580850    0.034967473   -0.082025442
      3        1          -0.008246006   -0.004959183   -0.001809002
      4        6           0.032165545   -0.047683811    0.010958934
      5        1           0.007765387    0.012976041    0.003143111
      6        8          -0.043842395    0.024015698   -0.014416599
      7        1           0.002562633   -0.007673255    0.005005970
      8        6           0.085193988   -0.026454903    0.082617558
      9        1          -0.002459683   -0.013325449    0.069181643
     10        1          -0.010812274   -0.014683031   -0.012540298
     11        8          -0.035922041   -0.006392267   -0.012284893
 -------------------------------------------------------------------
 Cartesian Forces:  Max     0.085193988 RMS     0.035485148
 Leave Link  716 at Tue Oct 15 20:05:34 2019, MaxMem=   280000000 cpu:               0.8 elap:               0.1
 (Enter /home/soft/g16/l103.exe)

 GradGradGradGradGradGradGradGradGradGradGradGradGradGradGradGradGradGrad
 Berny optimization.
 Using GEDIIS/GDIIS optimizer.
 FormGI is forming the generalized inverse of G from B-inverse, IUseBI=4.
 Internal  Forces:  Max     0.141075951 RMS     0.039076029
 Search for a local minimum.
 Step number   2 out of a maximum of   45
 All quantities printed in internal units (Hartrees-Bohrs-Radians)
 RMS Force = .39076D-01 SwitMx=.10000D-02 MixMth= 1
 Mixed Optimization -- RFO/linear search
 Update second derivatives using D2CorX and points    1    2
 DE= -9.95D-02 DEPred=-1.29D-01 R= 7.70D-01
 TightC=F SS=  1.41D+00  RLast= 3.01D-01 DXNew= 5.0454D-01 9.0214D-01
 Trust test= 7.70D-01 RLast= 3.01D-01 DXMaxT set to 5.05D-01
 ITU=  1  0
 Use linear search instead of GDIIS.
 Linear search step of   0.599 exceeds DXMaxT=   0.505 but not scaled.
 Quartic linear search produced a step of  2.00000.
 Iteration  1 RMS(Cart)=  0.20794465 RMS(Int)=  0.04840552
 Iteration  2 RMS(Cart)=  0.09758765 RMS(Int)=  0.01175710
 Iteration  3 RMS(Cart)=  0.00847653 RMS(Int)=  0.00824415
 Iteration  4 RMS(Cart)=  0.00013452 RMS(Int)=  0.00824371
 Iteration  5 RMS(Cart)=  0.00000665 RMS(Int)=  0.00824371
 Iteration  6 RMS(Cart)=  0.00000039 RMS(Int)=  0.00824371
 ITry= 1 IFail=0 DXMaxC= 1.04D+00 DCOld= 1.00D+10 DXMaxT= 5.05D-01 DXLimC= 3.00D+00 Rises=F
 Variable       Old X    -DE/DX   Delta X   Delta X   Delta X     New X
                                 (Linear)    (Quad)   (Total)
    R1        2.07635   0.03679   0.10868   0.00000   0.10868   2.18503
    R2        2.02728   0.00840   0.01055   0.00000   0.01055   2.03783
    R3        2.56029  -0.01661  -0.00134   0.00000  -0.00134   2.55894
    R4        2.59923   0.14108   0.34564   0.00000   0.34564   2.94487
    R5        2.02596   0.00678   0.00791   0.00000   0.00791   2.03387
    R6        2.67825  -0.04182  -0.04812   0.00000  -0.04812   2.63013
    R7        1.81861   0.00874   0.00895   0.00000   0.00895   1.82756
    R8        2.01548   0.00402  -0.01306   0.00000  -0.01306   2.00242
    R9        2.03468   0.01817   0.02534   0.00000   0.02534   2.06001
   R10        2.36521  -0.03670  -0.02565   0.00000  -0.02565   2.33956
    A1        2.07892  -0.00577  -0.03095   0.00000  -0.03095   2.04798
    A2        2.11602   0.00160   0.04325   0.00000   0.04325   2.15927
    A3        2.08824   0.00417  -0.01230   0.00000  -0.01230   2.07594
    A4        2.50658   0.07719   0.20556   0.00000   0.20556   2.71214
    A5        2.09141   0.00226  -0.00597   0.00000  -0.00597   2.08544
    A6        2.12107   0.02265   0.05335   0.00000   0.05335   2.17442
    A7        2.07070  -0.02491  -0.04738   0.00000  -0.04738   2.02332
    A8        1.91203   0.00044   0.00279   0.00000   0.00279   1.91482
    A9        1.01241   0.13967   0.41260   0.00000   0.39885   1.41126
   A10        1.90331  -0.02039  -0.03181   0.00000  -0.03971   1.86360
   A11        1.91461  -0.01933  -0.02944   0.00000  -0.03778   1.87683
   A12        2.08437  -0.01239  -0.02006   0.00000  -0.04795   2.03642
   A13        2.09751  -0.00212   0.00624   0.00000  -0.02024   2.07727
   A14        2.08627  -0.00203  -0.01625   0.00000  -0.03351   2.05276
    D1       -1.82890  -0.00240   0.00141   0.00000   0.00140  -1.82750
    D2        1.31265  -0.00335   0.00132   0.00000   0.00132   1.31397
    D3       -3.13912   0.00160   0.00494   0.00000   0.00496  -3.13416
    D4        0.00107  -0.00019   0.00213   0.00000   0.00212   0.00319
    D5        0.00243   0.00064   0.00486   0.00000   0.00487   0.00730
    D6       -3.14057  -0.00114   0.00205   0.00000   0.00203  -3.13854
    D7        0.30502   0.00461   0.01215   0.00000   0.01071   0.31573
    D8        2.28418   0.01558   0.03042   0.00000   0.04292   2.32710
    D9       -1.68375  -0.01898  -0.04326   0.00000  -0.05432  -1.73806
   D10        0.04496  -0.00234  -0.00847   0.00000  -0.00850   0.03647
   D11       -3.09802  -0.00408  -0.01125   0.00000  -0.01122  -3.10924
         Item               Value     Threshold  Converged?
 Maximum Force            0.141076     0.000450     NO 
 RMS     Force            0.039076     0.000300     NO 
 Maximum Displacement     1.041869     0.001800     NO 
 RMS     Displacement     0.297972     0.001200     NO 
 Predicted change in Energy=-7.074432D-04
 Lowest energy point so far.  Saving SCF results.
 GradGradGradGradGradGradGradGradGradGradGradGradGradGradGradGradGradGrad

 Leave Link  103 at Tue Oct 15 20:05:34 2019, MaxMem=   280000000 cpu:               3.3 elap:               0.2
 (Enter /home/soft/g16/l202.exe)
                          Input orientation:                          
 ---------------------------------------------------------------------
 Center     Atomic      Atomic             Coordinates (Angstroms)
 Number     Number       Type             X           Y           Z
 ---------------------------------------------------------------------
      1          6           0       -4.062024    1.448811   -0.078862
      2          1           0       -3.591527    0.450555    0.266209
      3          1           0       -5.113053    1.443716   -0.320102
      4          6           0       -3.369038    2.606558   -0.193183
      5          1           0       -3.877700    3.498913   -0.514640
      6          8           0       -2.012064    2.745657    0.083209
      7          1           0       -1.640807    1.888686    0.334309
      8          6           0       -3.006351   -0.557068    1.300977
      9          1           0       -3.522717    0.086324    1.965988
     10          1           0       -3.468928   -1.522684    1.096149
     11          8           0       -1.772169   -0.486195    1.233768
 ---------------------------------------------------------------------
                    Distance matrix (angstroms):
                    1          2          3          4          5
     1  C    0.000000
     2  H    1.156268   0.000000
     3  H    1.078372   1.909234   0.000000
     4  C    1.354134   2.215602   2.099977   0.000000
     5  H    2.103996   3.159764   2.405781   1.076276   0.000000
     6  O    2.431134   2.792075   3.387306   1.391803   2.098908
     7  H    2.495294   2.424492   3.561284   1.944317   2.883962
     8  C    2.653668   1.558359   3.327045   3.517469   4.528433
     9  H    2.515677   1.739726   3.098046   3.322230   4.233827
    10  H    3.249953   2.144179   3.675384   4.327008   5.289440
    11  O    3.272718   2.263567   4.159397   3.761822   4.834385
                    6          7          8          9         10
     6  O    0.000000
     7  H    0.967101   0.000000
     8  C    3.657809   2.963253   0.000000
     9  H    3.591515   3.074486   1.059635   0.000000
    10  H    4.622471   3.944600   1.090113   1.829869   0.000000
    11  O    3.438925   2.542900   1.238042   1.982005   1.993048
                   11
    11  O    0.000000
 Stoichiometry    C3H6O2
 Framework group  C1[X(C3H6O2)]
 Deg. of freedom    27
 Full point group                 C1      NOp   1
 RotChk:  IX=0 Diff= 5.11D-02
 Largest Abelian subgroup         C1      NOp   1
 Largest concise Abelian subgroup C1      NOp   1
                         Standard orientation:                         
 ---------------------------------------------------------------------
 Center     Atomic      Atomic             Coordinates (Angstroms)
 Number     Number       Type             X           Y           Z
 ---------------------------------------------------------------------
      1          6           0        0.715119    1.165515   -0.143038
      2          1           0       -0.399589    0.896024   -0.290535
      3          1           0        0.975926    2.211873   -0.143325
      4          6           0        1.694510    0.246086    0.027615
      5          1           0        2.710331    0.573629    0.166153
      6          8           0        1.491425   -1.130721    0.044206
      7          1           0        0.557707   -1.324668   -0.116540
      8          6           0       -1.815746    0.427678    0.160724
      9          1           0       -1.416146    0.690555    1.106262
     10          1           0       -2.531731    1.122586   -0.278383
     11          8           0       -1.923900   -0.769987   -0.133636
 ---------------------------------------------------------------------
 Rotational constants (GHZ):           8.3064360           2.5969527           2.0152733
 Leave Link  202 at Tue Oct 15 20:05:34 2019, MaxMem=   280000000 cpu:               1.0 elap:               0.1
 (Enter /home/soft/g16/l301.exe)
 Standard basis: 6-311+G(d) (5D, 7F)
 Ernie: Thresh=  0.10000D-02 Tol=  0.10000D-05 Strict=F.
 There are   133 symmetry adapted cartesian basis functions of A   symmetry.
 There are   128 symmetry adapted basis functions of A   symmetry.
   128 basis functions,   210 primitive gaussians,   133 cartesian basis functions
    20 alpha electrons       20 beta electrons
       nuclear repulsion energy       161.6301899116 Hartrees.
 IExCor=  402 DFT=T Ex+Corr=B3LYP ExCW=0 ScaHFX=  0.200000
 ScaDFX=  0.800000  0.720000  1.000000  0.810000 ScalE2=  1.000000  1.000000
 IRadAn=      5 IRanWt=     -1 IRanGd=            0 ICorTp=0 IEmpDi=  4
 NAtoms=   11 NActive=   11 NUniq=   11 SFac= 1.00D+00 NAtFMM=   60 NAOKFM=F Big=F
 Integral buffers will be    131072 words long.
 Raffenetti 2 integral format.
 Two-electron integral symmetry is turned on.
 Leave Link  301 at Tue Oct 15 20:05:34 2019, MaxMem=   280000000 cpu:               1.2 elap:               0.1
 (Enter /home/soft/g16/l302.exe)
 NPDir=0 NMtPBC=     1 NCelOv=     1 NCel=       1 NClECP=     1 NCelD=      1
         NCelK=      1 NCelE2=     1 NClLst=     1 CellRange=     0.0.
 One-electron integrals computed using PRISM.
 One-electron integral symmetry used in STVInt
 NBasis=   128 RedAO= T EigKep=  8.60D-05  NBF=   128
 NBsUse=   128 1.00D-06 EigRej= -1.00D+00 NBFU=   128
 Precomputing XC quadrature grid using
 IXCGrd= 4 IRadAn=           5 IRanWt=          -1 IRanGd=           0 AccXCQ= 0.00D+00.
 Generated NRdTot=       0 NPtTot=           0 NUsed=           0 NTot=          32
 NSgBfM=   133   133   133   133   133 MxSgAt=    11 MxSgA2=    11.
 Leave Link  302 at Tue Oct 15 20:05:34 2019, MaxMem=   280000000 cpu:               2.9 elap:               0.1
 (Enter /home/soft/g16/l303.exe)
 DipDrv:  MaxL=1.
 Leave Link  303 at Tue Oct 15 20:05:34 2019, MaxMem=   280000000 cpu:               0.5 elap:               0.0
 (Enter /home/soft/g16/l401.exe)
 Initial guess from the checkpoint file:  "R.chk"
 B after Tr=    -0.000000   -0.000000   -0.000000
         Rot=    0.999891   -0.003501    0.006117   -0.012968 Ang=  -1.69 deg.
 Guess basis will be translated and rotated to current coordinates.
 JPrj=2 DoOrth=T DoCkMO=T.
 Generating alternative initial guess.
 ExpMin= 4.38D-02 ExpMax= 8.59D+03 ExpMxC= 1.30D+03 IAcc=2 IRadAn=         4 AccDes= 0.00D+00
 Harris functional with IExCor=  402 and IRadAn=       4 diagonalized for initial guess.
 HarFok:  IExCor=  402 AccDes= 0.00D+00 IRadAn=         4 IDoV= 1 UseB2=F ITyADJ=14
 ICtDFT=  3500011 ScaDFX=  1.000000  1.000000  1.000000  1.000000
 FoFCou: FMM=F IPFlag=           0 FMFlag=      100000 FMFlg1=           0
         NFxFlg=           0 DoJE=T BraDBF=F KetDBF=T FulRan=T
         wScrn=  0.000000 ICntrl=       500 IOpCl=  0 I1Cent=   200000004 NGrid=           0
         NMat0=    1 NMatS0=      1 NMatT0=    0 NMatD0=    1 NMtDS0=    0 NMtDT0=    0
 Petite list used in FoFCou.
 Harris En= -268.386490643227    
 Leave Link  401 at Tue Oct 15 20:05:34 2019, MaxMem=   280000000 cpu:               5.6 elap:               0.3
 (Enter /home/soft/g16/l502.exe)
 Keep R1 ints in memory in canonical form, NReq=57089853.
 FoFCou: FMM=F IPFlag=           0 FMFlag=           0 FMFlg1=           0
         NFxFlg=           0 DoJE=F BraDBF=F KetDBF=F FulRan=T
         wScrn=  0.000000 ICntrl=       600 IOpCl=  0 I1Cent=           0 NGrid=           0
         NMat0=    1 NMatS0=   8256 NMatT0=    0 NMatD0=    1 NMtDS0=    0 NMtDT0=    0
 Symmetry not used in FoFCou.
 Two-electron integral symmetry not used.
 Closed shell SCF:
 Using DIIS extrapolation, IDIIS=  1040.
 NGot=   280000000 LenX=   245875047 LenY=   245856917
 Requested convergence on RMS density matrix=1.00D-08 within 128 cycles.
 Requested convergence on MAX density matrix=1.00D-06.
 Requested convergence on             energy=1.00D-06.
 No special actions if energy rises.

 Cycle   1  Pass 1  IDiag  1:
 E= -268.292550495951    
 DIIS: error= 1.14D-02 at cycle   1 NSaved=   1.
 NSaved= 1 IEnMin= 1 EnMin= -268.292550495951     IErMin= 1 ErrMin= 1.14D-02
 ErrMax= 1.14D-02  0.00D+00 EMaxC= 1.00D-01 BMatC= 3.26D-02 BMatP= 3.26D-02
 IDIUse=3 WtCom= 8.86D-01 WtEn= 1.14D-01
 Coeff-Com:  0.100D+01
 Coeff-En:   0.100D+01
 Coeff:      0.100D+01
 Recover alternate guess density for next cycle.
 RMSDP=4.83D-03 MaxDP=1.04D-01              OVMax= 0.00D+00

 Cycle   2  Pass 1  IDiag  1:
 E= -268.205448918214     Delta-E=        0.087101577736 Rises=F Damp=F
 Switch densities from cycles 1 and 2 for lowest energy.
 DIIS: error= 3.40D-02 at cycle   2 NSaved=   2.
 NSaved= 2 IEnMin= 1 EnMin= -268.292550495951     IErMin= 1 ErrMin= 1.14D-02
 ErrMax= 3.40D-02  0.00D+00 EMaxC= 1.00D+00 BMatC= 1.91D-01 BMatP= 3.26D-02
 IDIUse=1 WtCom= 1.00D+00 WtEn= 0.00D+00
 Coeff-Com:  0.852D+00 0.148D+00
 Coeff:      0.852D+00 0.148D+00
 Gap=     0.152 Goal=   None    Shift=    0.000
 RMSDP=3.66D-03 MaxDP=7.55D-02 DE= 8.71D-02 OVMax= 1.12D-01

 Cycle   3  Pass 1  IDiag  1:
 E= -268.343114525200     Delta-E=       -0.137665606986 Rises=F Damp=F
 DIIS: error= 7.11D-03 at cycle   3 NSaved=   3.
 NSaved= 3 IEnMin= 3 EnMin= -268.343114525200     IErMin= 3 ErrMin= 7.11D-03
 ErrMax= 7.11D-03  0.00D+00 EMaxC= 1.00D+00 BMatC= 9.59D-03 BMatP= 3.26D-02
 IDIUse=1 WtCom= 1.00D+00 WtEn= 0.00D+00
 Coeff-Com:  0.565D-01 0.159D+00 0.785D+00
 Coeff:      0.565D-01 0.159D+00 0.785D+00
 Gap=     0.165 Goal=   None    Shift=    0.000
 RMSDP=9.00D-04 MaxDP=1.71D-02 DE=-1.38D-01 OVMax= 4.40D-02

 Cycle   4  Pass 1  IDiag  1:
 E= -268.350181845775     Delta-E=       -0.007067320575 Rises=F Damp=F
 DIIS: error= 4.32D-03 at cycle   4 NSaved=   4.
 NSaved= 4 IEnMin= 4 EnMin= -268.350181845775     IErMin= 4 ErrMin= 4.32D-03
 ErrMax= 4.32D-03  0.00D+00 EMaxC= 1.00D+00 BMatC= 1.64D-03 BMatP= 9.59D-03
 IDIUse=1 WtCom= 1.00D+00 WtEn= 0.00D+00
 Coeff-Com: -0.122D-01 0.619D-01 0.400D+00 0.550D+00
 Coeff:     -0.122D-01 0.619D-01 0.400D+00 0.550D+00
 Gap=     0.166 Goal=   None    Shift=    0.000
 RMSDP=3.38D-04 MaxDP=7.52D-03 DE=-7.07D-03 OVMax= 2.66D-02

 Cycle   5  Pass 1  IDiag  1:
 E= -268.351540189751     Delta-E=       -0.001358343976 Rises=F Damp=F
 DIIS: error= 1.95D-03 at cycle   5 NSaved=   5.
 NSaved= 5 IEnMin= 5 EnMin= -268.351540189751     IErMin= 5 ErrMin= 1.95D-03
 ErrMax= 1.95D-03  0.00D+00 EMaxC= 1.00D+00 BMatC= 3.19D-04 BMatP= 1.64D-03
 IDIUse=1 WtCom= 1.00D+00 WtEn= 0.00D+00
 Coeff-Com: -0.122D-01 0.156D-01 0.148D+00 0.340D+00 0.509D+00
 Coeff:     -0.122D-01 0.156D-01 0.148D+00 0.340D+00 0.509D+00
 Gap=     0.165 Goal=   None    Shift=    0.000
 RMSDP=1.16D-04 MaxDP=2.54D-03 DE=-1.36D-03 OVMax= 1.05D-02

 Cycle   6  Pass 1  IDiag  1:
 E= -268.351834496173     Delta-E=       -0.000294306422 Rises=F Damp=F
 DIIS: error= 6.99D-04 at cycle   6 NSaved=   6.
 NSaved= 6 IEnMin= 6 EnMin= -268.351834496173     IErMin= 6 ErrMin= 6.99D-04
 ErrMax= 6.99D-04  0.00D+00 EMaxC= 1.00D+00 BMatC= 2.54D-05 BMatP= 3.19D-04
 IDIUse=1 WtCom= 1.00D+00 WtEn= 0.00D+00
 Coeff-Com: -0.541D-02 0.280D-02 0.384D-01 0.130D+00 0.277D+00 0.557D+00
 Coeff:     -0.541D-02 0.280D-02 0.384D-01 0.130D+00 0.277D+00 0.557D+00
 Gap=     0.165 Goal=   None    Shift=    0.000
 RMSDP=4.27D-05 MaxDP=7.21D-04 DE=-2.94D-04 OVMax= 2.42D-03

 Cycle   7  Pass 1  IDiag  1:
 E= -268.351854787828     Delta-E=       -0.000020291656 Rises=F Damp=F
 DIIS: error= 2.16D-04 at cycle   7 NSaved=   7.
 NSaved= 7 IEnMin= 7 EnMin= -268.351854787828     IErMin= 7 ErrMin= 2.16D-04
 ErrMax= 2.16D-04  0.00D+00 EMaxC= 1.00D+00 BMatC= 5.40D-06 BMatP= 2.54D-05
 IDIUse=1 WtCom= 1.00D+00 WtEn= 0.00D+00
 Coeff-Com: -0.484D-03-0.180D-02-0.310D-02 0.179D-01 0.733D-01 0.340D+00
 Coeff-Com:  0.574D+00
 Coeff:     -0.484D-03-0.180D-02-0.310D-02 0.179D-01 0.733D-01 0.340D+00
 Coeff:      0.574D+00
 Gap=     0.165 Goal=   None    Shift=    0.000
 RMSDP=2.18D-05 MaxDP=3.26D-04 DE=-2.03D-05 OVMax= 1.14D-03

 Cycle   8  Pass 1  IDiag  1:
 E= -268.351859948964     Delta-E=       -0.000005161136 Rises=F Damp=F
 DIIS: error= 7.68D-05 at cycle   8 NSaved=   8.
 NSaved= 8 IEnMin= 8 EnMin= -268.351859948964     IErMin= 8 ErrMin= 7.68D-05
 ErrMax= 7.68D-05  0.00D+00 EMaxC= 1.00D+00 BMatC= 6.14D-07 BMatP= 5.40D-06
 IDIUse=1 WtCom= 1.00D+00 WtEn= 0.00D+00
 Coeff-Com:  0.156D-03-0.118D-02-0.693D-02-0.575D-02 0.822D-02 0.124D+00
 Coeff-Com:  0.309D+00 0.573D+00
 Coeff:      0.156D-03-0.118D-02-0.693D-02-0.575D-02 0.822D-02 0.124D+00
 Coeff:      0.309D+00 0.573D+00
 Gap=     0.165 Goal=   None    Shift=    0.000
 RMSDP=7.76D-06 MaxDP=1.40D-04 DE=-5.16D-06 OVMax= 5.55D-04

 Cycle   9  Pass 1  IDiag  1:
 E= -268.351860487545     Delta-E=       -0.000000538581 Rises=F Damp=F
 DIIS: error= 3.50D-05 at cycle   9 NSaved=   9.
 NSaved= 9 IEnMin= 9 EnMin= -268.351860487545     IErMin= 9 ErrMin= 3.50D-05
 ErrMax= 3.50D-05  0.00D+00 EMaxC= 1.00D+00 BMatC= 1.96D-07 BMatP= 6.14D-07
 IDIUse=1 WtCom= 1.00D+00 WtEn= 0.00D+00
 Coeff-Com:  0.278D-03-0.296D-03-0.399D-02-0.949D-02-0.163D-01-0.153D-01
 Coeff-Com:  0.410D-01 0.402D+00 0.602D+00
 Coeff:      0.278D-03-0.296D-03-0.399D-02-0.949D-02-0.163D-01-0.153D-01
 Coeff:      0.410D-01 0.402D+00 0.602D+00
 Gap=     0.165 Goal=   None    Shift=    0.000
 RMSDP=3.82D-06 MaxDP=6.78D-05 DE=-5.39D-07 OVMax= 3.05D-04

 Cycle  10  Pass 1  IDiag  1:
[...]
      9        1           0.122932953    0.033312284    0.059688886
     10        1          -0.016564875   -0.096270498    0.022999362
     11        8          -0.169419624    0.205003248   -0.180286892
 -------------------------------------------------------------------
 Cartesian Forces:  Max     0.205003248 RMS     0.074000700
 Leave Link  716 at Tue Oct 15 20:08:38 2019, MaxMem=   280000000 cpu:               0.8 elap:               0.1
 (Enter /home/soft/g16/l103.exe)

 GradGradGradGradGradGradGradGradGradGradGradGradGradGradGradGradGradGrad
 Berny optimization.
 Using GEDIIS/GDIIS optimizer.
 FormGI is forming the generalized inverse of G from B-inverse, IUseBI=4.
 Internal  Forces:  Max     0.320480135 RMS     0.064284746
 Search for a local minimum.
 Step number  45 out of a maximum of   45
 All quantities printed in internal units (Hartrees-Bohrs-Radians)
 RMS Force = .64285D-01 SwitMx=.10000D-02 MixMth= 1
 Mixed Optimization -- RFO/linear search
 Update second derivatives using D2CorX and points   39   40   41   45   42
 ITU=  0  0 -1 -1  1  1  1  1  1  1  1  1  1  0  1  1  1  1  1  1
 ITU=  1  1  1  1  1 -1  0  0  0  1  1  1  1  1  1  1
 Use linear search instead of GDIIS.
 Skip linear search -- no minimum in search direction.
 Steepest descent instead of Quadratic search.
 Steepest descent step scaled to max of 0.05000.
 Iteration  1 RMS(Cart)=  0.01164803 RMS(Int)=  0.00017195
 Iteration  2 RMS(Cart)=  0.00004289 RMS(Int)=  0.00000726
 Iteration  3 RMS(Cart)=  0.00000013 RMS(Int)=  0.00000726
 ITry= 1 IFail=0 DXMaxC= 3.42D-02 DCOld= 1.00D+10 DXMaxT= 4.55D-01 DXLimC= 3.00D+00 Rises=T
 Variable       Old X    -DE/DX   Delta X   Delta X   Delta X     New X
                                 (Linear)    (Quad)   (Total)
    R1        2.04263  -0.00060   0.00000  -0.00009  -0.00009   2.04254
    R2        2.03905   0.00560   0.00000   0.00087   0.00087   2.03992
    R3        2.39879   0.08806   0.00000   0.01374   0.01374   2.41253
    R4        8.16034  -0.00131   0.00000  -0.00020  -0.00020   8.16014
    R5        1.99412   0.02177   0.00000   0.00340   0.00340   1.99752
    R6        2.59246   0.00206   0.00000   0.00032   0.00032   2.59278
    R7        1.79733   0.02019   0.00000   0.00315   0.00315   1.80048
    R8        1.81718   0.13957   0.00000   0.02178   0.02178   1.83895
    R9        1.89003   0.09689   0.00000   0.01512   0.01512   1.90515
   R10        2.05662   0.32048   0.00000   0.05000   0.05000   2.10662
    A1        2.04485   0.00030   0.00000   0.00005   0.00005   2.04490
    A2        2.27260  -0.02056   0.00000  -0.00321  -0.00321   2.26939
    A3        1.96561   0.02026   0.00000   0.00316   0.00316   1.96877
    A4        2.05928  -0.00991   0.00000  -0.00155  -0.00155   2.05774
    A5        2.11235   0.00443   0.00000   0.00069   0.00069   2.11304
    A6        2.20771   0.00228   0.00000   0.00036   0.00036   2.20807
    A7        1.96265  -0.00664   0.00000  -0.00104  -0.00104   1.96161
    A8        1.84559   0.01510   0.00000   0.00236   0.00236   1.84794
    A9        2.12158   0.00693   0.00000   0.00108   0.00108   2.12266
   A10        2.02952   0.01103   0.00000   0.00172   0.00172   2.03124
   A11        0.04142  -0.03317   0.00000  -0.00518  -0.00518   0.03624
   A12        2.09878  -0.00599   0.00000  -0.00093  -0.00096   2.09782
   A13        2.12690   0.00407   0.00000   0.00064   0.00061   2.12751
   A14        2.01245   0.02582   0.00000   0.00403   0.00401   2.01646
    D1        3.08596  -0.00152   0.00000  -0.00024  -0.00024   3.08572
    D2       -0.03723  -0.00224   0.00000  -0.00035  -0.00035  -0.03758
    D3       -3.12043  -0.00109   0.00000  -0.00017  -0.00017  -3.12060
    D4        0.05706  -0.00365   0.00000  -0.00057  -0.00057   0.05649
    D5        0.03891  -0.00164   0.00000  -0.00026  -0.00026   0.03865
    D6       -3.06679  -0.00419   0.00000  -0.00065  -0.00065  -3.06745
    D7        0.29313  -0.02423   0.00000  -0.00378  -0.00379   0.28934
    D8       -3.12243   0.02295   0.00000   0.00358   0.00359  -3.11885
    D9        2.00545   0.00006   0.00000   0.00001   0.00001   2.00546
   D10        0.09271  -0.00126   0.00000  -0.00020  -0.00020   0.09251
   D11       -3.01561  -0.00381   0.00000  -0.00059  -0.00059  -3.01620
         Item               Value     Threshold  Converged?
 Maximum Force            0.320480     0.000450     NO 
 RMS     Force            0.064285     0.000300     NO 
 Maximum Displacement     0.034223     0.001800     NO 
 RMS     Displacement     0.011662     0.001200     NO 
 Predicted change in Energy=-5.140948D-02
 Optimization stopped.
    -- Number of steps exceeded,  NStep=  45
    -- Flag reset to prevent archiving.
                           ----------------------------
                           ! Non-Optimized Parameters !
                           ! (Angstroms and Degrees)  !
 --------------------------                            --------------------------
 ! Name  Definition              Value          Derivative Info.                !
 --------------------------------------------------------------------------------
 ! R1    R(1,2)                  1.0809         -DE/DX =   -0.0006              !
 ! R2    R(1,3)                  1.0795         -DE/DX =    0.0056              !
 ! R3    R(1,4)                  1.2767         -DE/DX =    0.0881              !
 ! R4    R(2,8)                  4.3182         -DE/DX =   -0.0013              !
 ! R5    R(4,5)                  1.057          -DE/DX =    0.0218              !
 ! R6    R(4,6)                  1.372          -DE/DX =    0.0021              !
 ! R7    R(6,7)                  0.9528         -DE/DX =    0.0202              !
 ! R8    R(8,9)                  0.9731         -DE/DX =    0.1396              !
 ! R9    R(8,10)                 1.0082         -DE/DX =    0.0969              !
 ! R10   R(8,11)                 1.1148         -DE/DX =    0.3205              !
 ! A1    A(2,1,3)              117.1639         -DE/DX =    0.0003              !
 ! A2    A(2,1,4)              130.0267         -DE/DX =   -0.0206              !
 ! A3    A(3,1,4)              112.8024         -DE/DX =    0.0203              !
 ! A4    A(1,2,8)              117.8997         -DE/DX =   -0.0099              !
 ! A5    A(1,4,5)              121.0682         -DE/DX =    0.0044              !
 ! A6    A(1,4,6)              126.513          -DE/DX =    0.0023              !
 ! A7    A(5,4,6)              112.392          -DE/DX =   -0.0066              !
 ! A8    A(4,6,7)              105.8794         -DE/DX =    0.0151              !
 ! A9    A(2,8,9)              121.6194         -DE/DX =    0.0069              !
 ! A10   A(2,8,10)             116.3813         -DE/DX =    0.011               !
 ! A11   A(2,8,11)               2.0762         -DE/DX =   -0.0332              !
 ! A12   A(9,8,10)             120.1961         -DE/DX =   -0.006               !
 ! A13   A(9,8,11)             121.8972         -DE/DX =    0.0041              !
 ! A14   A(10,8,11)            115.5346         -DE/DX =    0.0258              !
 ! D1    D(3,1,2,8)            176.7988         -DE/DX =   -0.0015              !
 ! D2    D(4,1,2,8)             -2.1531         -DE/DX =   -0.0022              !
 ! D3    D(2,1,4,5)           -178.7971         -DE/DX =   -0.0011              !
 ! D4    D(2,1,4,6)              3.2366         -DE/DX =   -0.0036              !
 ! D5    D(3,1,4,5)              2.2145         -DE/DX =   -0.0016              !
 ! D6    D(3,1,4,6)           -175.7518         -DE/DX =   -0.0042              !
 ! D7    D(1,2,8,9)             16.578          -DE/DX =   -0.0242              !
 ! D8    D(1,2,8,10)          -178.6967         -DE/DX =    0.023               !
 ! D9    D(1,2,8,11)           114.9046         -DE/DX =    0.0001              !
 ! D10   D(1,4,6,7)              5.3004         -DE/DX =   -0.0013              !
 ! D11   D(5,4,6,7)           -172.8156         -DE/DX =   -0.0038              !
 --------------------------------------------------------------------------------
 Largest change from initial coordinates is atom    9       1.198 Angstoms.
 GradGradGradGradGradGradGradGradGradGradGradGradGradGradGradGradGradGrad

 Leave Link  103 at Tue Oct 15 20:08:38 2019, MaxMem=   280000000 cpu:               2.9 elap:               0.2
 (Enter /home/soft/g16/l202.exe)
                          Input orientation:                          
 ---------------------------------------------------------------------
 Center     Atomic      Atomic             Coordinates (Angstroms)
 Number     Number       Type             X           Y           Z
 ---------------------------------------------------------------------
      1          6           0       -4.414468    2.308927   -0.698694
      2          1           0       -4.843294    1.358690   -0.413154
      3          1           0       -5.007139    2.944504   -1.338272
      4          6           0       -3.286375    2.817236   -0.415203
      5          1           0       -3.020097    3.777807   -0.761531
      6          8           0       -2.281205    2.222531    0.304515
      7          1           0       -2.573300    1.332445    0.468911
      8          6           0       -2.434751   -1.316776    1.971851
      9          1           0       -1.655399   -1.007668    2.442758
     10          1           0       -2.850057   -2.195677    2.207180
     11          8           0       -3.070294   -0.638748    1.405461
 ---------------------------------------------------------------------
                    Distance matrix (angstroms):
                    1          2          3          4          5
     1  C    0.000000
     2  H    1.080914   0.000000
     3  H    1.079017   1.843230   0.000000
     4  C    1.269385   2.133391   1.956856   0.000000
     5  H    2.026284   3.049186   2.230551   1.055245   0.000000
     6  O    2.358962   2.797422   3.263543   1.371872   2.025166
     7  H    2.388873   2.435487   3.433397   1.869422   2.773699
     8  C    4.919025   4.318268   5.977675   4.849056   5.811091
     9  H    5.336758   4.890660   6.414828   5.045584   5.918669
    10  H    5.584169   4.844860   6.606413   5.674202   6.672681
    11  O    3.863038   3.231199   4.911124   3.912204   4.919790
                    6          7          8          9         10
     6  O    0.000000
     7  H    0.951104   0.000000
     8  C    3.915390   3.049000   0.000000
     9  H    3.924016   3.196052   0.961609   0.000000
    10  H    4.843995   3.942819   1.000163   1.701197   0.000000
    11  O    3.165701   2.238243   1.088317   1.792768   1.765017
                   11
    11  O    0.000000
 Stoichiometry    C3H6O2
 Framework group  C1[X(C3H6O2)]
 Deg. of freedom    27
 Full point group                 C1      NOp   1
 RotChk:  IX=0 Diff= 1.57D-15
 Largest Abelian subgroup         C1      NOp   1
 Largest concise Abelian subgroup C1      NOp   1
                         Standard orientation:                         
 ---------------------------------------------------------------------
 Center     Atomic      Atomic             Coordinates (Angstroms)
 Number     Number       Type             X           Y           Z
 ---------------------------------------------------------------------
      1          6           0        1.964753    1.010538    0.004170
      2          1           0        1.117364    1.681538    0.012313
      3          1           0        2.946183    1.456995   -0.037665
      4          6           0        2.005680   -0.258105    0.018657
      5          1           0        2.926997   -0.772555    0.026356
      6          8           0        0.930456   -1.109514   -0.013424
      7          1           0        0.166359   -0.555897   -0.132846
      8          6           0       -2.838601   -0.049278   -0.033090
      9          1           0       -2.986067   -0.973609    0.187270
     10          1           0       -3.603724    0.594793   -0.042265
     11          8           0       -1.850219    0.403239    0.019476
 ---------------------------------------------------------------------
 Rotational constants (GHZ):          11.8735273           1.6801552           1.4725827
 Leave Link  202 at Tue Oct 15 20:08:38 2019, MaxMem=   280000000 cpu:               0.6 elap:               0.0
 (Enter /home/soft/g16/l601.exe)
 Copying SCF densities to generalized density rwf, IOpCl= 0 IROHF=0.

 **********************************************************************

            Population analysis using the SCF density.

 **********************************************************************

 Orbital symmetries:
       Occupied  (A) (A) (A) (A) (A) (A) (A) (A) (A) (A) (A) (A)
                 (A) (A) (A) (A) (A) (A) (A) (A)
       Virtual   (A) (A) (A) (A) (A) (A) (A) (A) (A) (A) (A) (A)
                 (A) (A) (A) (A) (A) (A) (A) (A) (A) (A) (A) (A)
                 (A) (A) (A) (A) (A) (A) (A) (A) (A) (A) (A) (A)
                 (A) (A) (A) (A) (A) (A) (A) (A) (A) (A) (A) (A)
                 (A) (A) (A) (A) (A) (A) (A) (A) (A) (A) (A) (A)
                 (A) (A) (A) (A) (A) (A) (A) (A) (A) (A) (A) (A)
                 (A) (A) (A) (A) (A) (A) (A) (A) (A) (A) (A) (A)
                 (A) (A) (A) (A) (A) (A) (A) (A) (A) (A) (A) (A)
                 (A) (A) (A) (A) (A) (A) (A) (A) (A) (A) (A) (A)
 The electronic state is 1-A.
 Alpha  occ. eigenvalues --  -19.15283 -19.13537 -10.24970 -10.20906 -10.13963
 Alpha  occ. eigenvalues --   -1.15815  -1.05162  -0.76426  -0.67383  -0.61027
 Alpha  occ. eigenvalues --   -0.57700  -0.50236  -0.49560  -0.47991  -0.46912
 Alpha  occ. eigenvalues --   -0.38578  -0.37978  -0.36070  -0.28762  -0.23843
 Alpha virt. eigenvalues --   -0.04919   0.00508   0.02095   0.02972   0.03037
 Alpha virt. eigenvalues --    0.03850   0.05103   0.05711   0.08231   0.08424
 Alpha virt. eigenvalues --    0.09029   0.10223   0.12979   0.13564   0.15436
 Alpha virt. eigenvalues --    0.16088   0.18316   0.18985   0.20026   0.21041
 Alpha virt. eigenvalues --    0.22816   0.23687   0.25221   0.25926   0.27375
 Alpha virt. eigenvalues --    0.29351   0.31329   0.32953   0.36218   0.36791
 Alpha virt. eigenvalues --    0.40776   0.48202   0.49925   0.50651   0.51521
 Alpha virt. eigenvalues --    0.53693   0.54641   0.55743   0.60990   0.64387
 Alpha virt. eigenvalues --    0.65741   0.67072   0.70140   0.71494   0.78432
 Alpha virt. eigenvalues --    0.79297   0.85078   0.94718   0.97197   1.03873
 Alpha virt. eigenvalues --    1.04477   1.05067   1.06514   1.07742   1.16968
 Alpha virt. eigenvalues --    1.18909   1.22601   1.24491   1.38629   1.41468
 Alpha virt. eigenvalues --    1.44253   1.50062   1.53274   1.54441   1.57363
 Alpha virt. eigenvalues --    1.61301   1.76024   1.78067   1.98783   2.00094
 Alpha virt. eigenvalues --    2.04340   2.25687   2.32644   2.39002   2.44193
 Alpha virt. eigenvalues --    2.47196   2.47837   2.63195   2.65888   2.67709
 Alpha virt. eigenvalues --    2.76606   2.82543   2.87065   2.90554   3.02263
 Alpha virt. eigenvalues --    3.16178   3.22076   3.27552   3.30048   3.36422
 Alpha virt. eigenvalues --    3.37861   3.40884   3.41460   3.49966   3.54422
 Alpha virt. eigenvalues --    3.76477   3.99180   4.97123   4.98101   5.04841
 Alpha virt. eigenvalues --    5.16638   5.55137   5.78096  23.38598  23.91764
 Alpha virt. eigenvalues --   24.47845  49.86819  49.99668
          Condensed to atoms (all electrons):
               1          2          3          4          5          6
     1  C    5.543759   0.352273   0.356198   0.325695  -0.046348  -0.091769
     2  H    0.352273   0.438785  -0.029425   0.011086   0.004292  -0.015406
     3  H    0.356198  -0.029425   0.473570  -0.012944  -0.008549   0.010664
     4  C    0.325695   0.011086  -0.012944   5.275058   0.411120   0.240391
     5  H   -0.046348   0.004292  -0.008549   0.411120   0.472246  -0.066412
     6  O   -0.091769  -0.015406   0.010664   0.240391  -0.066412   8.119296
     7  H   -0.090150   0.004123   0.000712   0.060041   0.010298   0.196708
     8  C   -0.005711   0.000485   0.000145   0.005580   0.000120  -0.002620
     9  H   -0.001452   0.000032   0.000000   0.001733   0.000005  -0.001769
    10  H    0.000368  -0.000044   0.000000  -0.000575  -0.000000   0.000548
    11  O    0.015046   0.000541   0.000236  -0.013415  -0.000145   0.012994
               7          8          9         10         11
     1  C   -0.090150  -0.005711  -0.001452   0.000368   0.015046
     2  H    0.004123   0.000485   0.000032  -0.000044   0.000541
     3  H    0.000712   0.000145   0.000000   0.000000   0.000236
     4  C    0.060041   0.005580   0.001733  -0.000575  -0.013415
     5  H    0.010298   0.000120   0.000005  -0.000000  -0.000145
     6  O    0.196708  -0.002620  -0.001769   0.000548   0.012994
     7  H    0.423272   0.005141   0.003612  -0.001109  -0.009769
     8  C    0.005141   4.989016   0.415658   0.431729   0.311981
     9  H    0.003612   0.415658   0.597301  -0.119216  -0.105538
    10  H   -0.001109   0.431729  -0.119216   0.633979  -0.126286
    11  O   -0.009769   0.311981  -0.105538  -0.126286   8.151910
 Mulliken charges:
               1
     1  C   -0.357910
     2  H    0.233257
     3  H    0.209392
     4  C   -0.303769
     5  H    0.223373
     6  O   -0.402626
     7  H    0.397122
     8  C   -0.151523
     9  H    0.209632
    10  H    0.180606
    11  O   -0.237555
 Sum of Mulliken charges =   0.00000
 Mulliken charges with hydrogens summed into heavy atoms:
               1
     1  C    0.084740
     4  C   -0.080396
     6  O   -0.005504
     8  C    0.238715
    11  O   -0.237555
 Electronic spatial extent (au):  <R**2>=            759.8181
 Charge=              0.0000 electrons
 Dipole moment (field-independent basis, Debye):
    X=             -2.8680    Y=              0.3982    Z=             -0.2079  Tot=              2.9029
 Quadrupole moment (field-independent basis, Debye-Ang):
   XX=            -18.6010   YY=            -33.0680   ZZ=            -32.2382
   XY=              2.0670   XZ=             -0.1219   YZ=             -0.0012
 Traceless Quadrupole moment (field-independent basis, Debye-Ang):
   XX=              9.3681   YY=             -5.0989   ZZ=             -4.2691
   XY=              2.0670   XZ=             -0.1219   YZ=             -0.0012
 Octapole moment (field-independent basis, Debye-Ang**2):
  XXX=            -29.1744  YYY=              2.1314  ZZZ=             -0.0711  XYY=             -5.2711
  XXY=             -6.5759  XXZ=              0.5252  XZZ=             -8.9150  YZZ=             -2.1355
  YYZ=              0.1456  XYZ=             -0.3471
 Hexadecapole moment (field-independent basis, Debye-Ang**3):
 XXXX=           -679.2972 YYYY=           -150.4969 ZZZZ=            -34.1568 XXXY=            -10.3651
 XXXZ=             -3.8628 YYYX=             -2.1045 YYYZ=             -0.2898 ZZZX=             -0.6272
 ZZZY=              0.0590 XXYY=           -155.7433 XXZZ=           -149.3150 YYZZ=            -32.2272
 XXYZ=             -1.1952 YYXZ=             -0.6504 ZZXY=             -5.1423
 N-N= 1.573699363491D+02 E-N=-9.445941898530D+02  KE= 2.687205680330D+02
 No NMR shielding tensors so no spin-rotation constants.
 Leave Link  601 at Tue Oct 15 20:08:38 2019, MaxMem=   280000000 cpu:               2.1 elap:               0.1
 (Enter /home/soft/g16/l9999.exe)


 THERE IS NO SUBJECT, HOWEVER COMPLEX,
 WHICH, IF STUDIED WITH PATIENCE AND INTELLIGIENCE
 WILL NOT BECOME
 MORE COMPLEX
                        QUOTED BY D. GORDON ROHMAN
 Error termination request processed by link 9999.
 Error termination via Lnk1e in /home/soft/g16/l9999.exe at Tue Oct 15 20:08:38 2019.
 Job cpu time:       0 days  1 hours  1 minutes 40.5 seconds.
 Elapsed time:       0 days  0 hours  3 minutes 14.0 seconds.
 File lengths (MBytes):  RWF=     72 Int=      0 D2E=      0 Chk=      8 Scr=      8
