 Entering Gaussian System, Link 0=g16
 Input=R2.gjf
 Output=R2.log
 Initial command:
 /home/soft/g16/l1.exe "/tmp/gaussian/Gau-135079.inp" -scrdir="/tmp/gaussian/"
 Entering Link 1 = /home/soft/g16/l1.exe PID=    135080.
  
 Copyright (c) 1988,1990,1992,1993,1995,1998,2003,2009,2016,
            Gaussian, Inc.  All Rights Reserved.
  
 This is part of the Gaussian(R) 16 program.  It is based on
 the Gaussian(R) 09 system (copyright 2009, Gaussian, Inc.),
 the Gaussian(R) 03 system (copyright 2003, Gaussian, Inc.),
 the Gaussian(R) 98 system (copyright 1998, Gaussian, Inc.),
 the Gaussian(R) 94 system (copyright 1995, Gaussian, Inc.),
 the Gaussian 92(TM) system (copyright 1992, Gaussian, Inc.),
 the Gaussian 90(TM) system (copyright 1990, Gaussian, Inc.),
 the Gaussian 88(TM) system (copyright 1988, Gaussian, Inc.),
 the Gaussian 86(TM) system (copyright 1986, Carnegie Mellon
 University), and the Gaussian 82(TM) system (copyright 1983,
 Carnegie Mellon University). Gaussian is a federally registered
 trademark of Gaussian, Inc.
  
 This software contains proprietary and confidential information,
 including trade secrets, belonging to Gaussian, Inc.
  
 This software is provided under written license and may be
 used, copied, transmitted, or stored only in accord with that
 written license.
  
 The following legend is applicable only to US Government
 contracts under FAR:
  
                    RESTRICTED RIGHTS LEGEND
  
 Use, reproduction and disclosure by the US Government is
 subject to restrictions as set forth in subparagraphs (a)
 and (c) of the Commercial Computer Software - Restricted
 Rights clause in FAR 52.227-19.
  
 Gaussian, Inc.
 340 Quinnipiac St., Bldg. 40, Wallingford CT 06492
  
  
 ---------------------------------------------------------------
 Warning -- This program may not be used in any manner that
 competes with the business of Gaussian, Inc. or will provide
 assistance to any competitor of Gaussian, Inc.  The licensee
 of this program is prohibited from giving any competitor of
 Gaussian, Inc. access to this program.  By using this program,
 the user acknowledges that Gaussian, Inc. is engaged in the
 business of creating and licensing software in the field of
 computational chemistry and represents and warrants to the
 licensee that it is not a competitor of Gaussian, Inc. and that
 it will not use this program in any manner prohibited above.
 ---------------------------------------------------------------
  

 Cite this work as:
 Gaussian 16, Revision A.03,
 M. J. Frisch, G. W. Trucks, H. B. Schlegel, G. E. Scuseria, 
 M. A. Robb, J. R. Cheeseman, G. Scalmani, V. Barone, 
 G. A. Petersson, H. Nakatsuji, X. Li, M. Caricato, A. V. Marenich, 
 J. Bloino, B. G. Janesko, R. Gomperts, B. Mennucci, H. P. Hratchian, 
 J. V. Ortiz, A. F. Izmaylov, J. L. Sonnenberg, D. Williams-Young, 
 F. Ding, F. Lipparini, F. Egidi, J. Goings, B. Peng, A. Petrone, 
 T. Henderson, D. Ranasinghe, V. G. Zakrzewski, J. Gao, N. Rega, 
 G. Zheng, W. Liang, M. Hada, M. Ehara, K. Toyota, R. Fukuda, 
 J. Hasegawa, M. Ishida, T. Nakajima, Y. Honda, O. Kitao, H. Nakai, 
 T. Vreven, K. Throssell, J. A. Montgomery, Jr., J. E. Peralta, 
 F. Ogliaro, M. J. Bearpark, J. J. Heyd, E. N. Brothers, K. N. Kudin, 
 V. N. Staroverov, T. A. Keith, R. Kobayashi, J. Normand, 
 K. Raghavachari, A. P. Rendell, J. C. Burant, S. S. Iyengar, 
 J. Tomasi, M. Cossi, J. M. Millam, M. Klene, C. Adamo, R. Cammi, 
 J. W. Ochterski, R. L. Martin, K. Morokuma, O. Farkas, 
 J. B. Foresman, and D. J. Fox, Gaussian, Inc., Wallingford CT, 2016.
 
 ******************************************
 Gaussian 16:  ES64L-G16RevA.03 25-Dec-2016
                15-Oct-2019 
 ******************************************
 %chk=R2.chk
 %nprocshared=24
 Will use up to   24 processors via shared memory.
 ----------------------------
 #p opt freq b3lyp/6-311+g(d)
 ----------------------------
 1/18=20,19=15,26=3,38=1/1,3;
 2/9=110,12=2,17=6,18=5,40=1/2;
 3/5=4,6=6,7=11,11=2,25=1,30=1,71=1,74=-5/1,2,3;
 4//1;
 5/5=2,38=5/2;
 6/7=2,8=2,9=2,10=2,28=1/1;
 7//1,2,3,16;
 1/18=20,19=15,26=3/3(2);
 2/9=110/2;
 99//99;
 2/9=110/2;
 3/5=4,6=6,7=11,11=2,25=1,30=1,71=1,74=-5/1,2,3;
 4/5=5,16=3,69=1/1;
 5/5=2,38=5/2;
 7//1,2,3,16;
 1/18=20,19=15,26=3/3(-5);
 2/9=110/2;
 6/7=2,8=2,9=2,10=2,19=2,28=1/1;
 99/9=1/99;
 Leave Link    1 at Tue Oct 15 20:23:26 2019, MaxMem=           0 cpu:               3.2 elap:               0.1
 (Enter /home/soft/g16/l101.exe)
 -------------------
 Title Card Required
 -------------------
 Symbolic Z-matrix:
 Charge =  0 Multiplicity = 1
 C                    -4.07943   1.39642  -0.04252 
 H                    -3.57147   0.4708    0.13104 
 H                    -5.13816   1.40487  -0.19713 
 C                    -3.38184   2.55804  -0.06651 
 H                    -3.88979   3.48365  -0.24006 
 O                    -1.96689   2.54674   0.14012 
 H                    -1.71035   1.71876   0.55272 
 C                    -2.65225  -0.32806   1.43363 
 H                    -2.81543  -1.33593   1.11352 
 H                    -3.47922   0.2694    1.75623 
 O                    -1.49111   0.15703   1.432 
 
 Add virtual bond connecting atoms C8         and H2         Dist= 3.37D+00.
 Add virtual bond connecting atoms H10        and H2         Dist= 3.10D+00.
 ITRead=  0  0  0  0  0  0  0  0  0  0  0
 MicOpt= -1 -1 -1 -1 -1 -1 -1 -1 -1 -1 -1
 NAtoms=     11 NQM=       11 NQMF=       0 NMMI=      0 NMMIF=      0
                NMic=       0 NMicF=      0.
                    Isotopes and Nuclear Properties:
 (Nuclear quadrupole moments (NQMom) in fm**2, nuclear magnetic moments (NMagM)
  in nuclear magnetons)

  Atom         1           2           3           4           5           6           7           8           9          10
 IAtWgt=          12           1           1          12           1          16           1          12           1           1
 AtmWgt=  12.0000000   1.0078250   1.0078250  12.0000000   1.0078250  15.9949146   1.0078250  12.0000000   1.0078250   1.0078250
 NucSpn=           0           1           1           0           1           0           1           0           1           1
 AtZEff=  -0.0000000  -0.0000000  -0.0000000  -0.0000000  -0.0000000  -0.0000000  -0.0000000  -0.0000000  -0.0000000  -0.0000000
 NQMom=    0.0000000   0.0000000   0.0000000   0.0000000   0.0000000   0.0000000   0.0000000   0.0000000   0.0000000   0.0000000
 NMagM=    0.0000000   2.7928460   2.7928460   0.0000000   2.7928460   0.0000000   2.7928460   0.0000000   2.7928460   2.7928460
 AtZNuc=   6.0000000   1.0000000   1.0000000   6.0000000   1.0000000   8.0000000   1.0000000   6.0000000   1.0000000   1.0000000

  Atom        11
 IAtWgt=          16
 AtmWgt=  15.9949146
 NucSpn=           0
 AtZEff=  -0.0000000
 NQMom=    0.0000000
 NMagM=    0.0000000
 AtZNuc=   8.0000000
 Leave Link  101 at Tue Oct 15 20:23:27 2019, MaxMem=   280000000 cpu:               5.0 elap:               0.2
 (Enter /home/soft/g16/l103.exe)

 GradGradGradGradGradGradGradGradGradGradGradGradGradGradGradGradGradGrad
 Berny optimization.
 Initialization pass.
                           ----------------------------
                           !    Initial Parameters    !
                           ! (Angstroms and Degrees)  !
 --------------------------                            --------------------------
 ! Name  Definition              Value          Derivative Info.                !
 --------------------------------------------------------------------------------
 ! R1    R(1,2)                  1.07           estimate D2E/DX2                !
 ! R2    R(1,3)                  1.07           estimate D2E/DX2                !
 ! R3    R(1,4)                  1.3552         estimate D2E/DX2                !
 ! R4    R(2,8)                  1.7832         estimate D2E/DX2                !
 ! R5    R(2,10)                 1.6402         estimate D2E/DX2                !
 ! R6    R(4,5)                  1.07           estimate D2E/DX2                !
 ! R7    R(4,6)                  1.43           estimate D2E/DX2                !
 ! R8    R(6,7)                  0.96           estimate D2E/DX2                !
 ! R9    R(8,9)                  1.07           estimate D2E/DX2                !
 ! R10   R(8,10)                 1.07           estimate D2E/DX2                !
 ! R11   R(8,11)                 1.2584         estimate D2E/DX2                !
 ! A1    A(2,1,3)              120.0            estimate D2E/DX2                !
 ! A2    A(2,1,4)              120.0            estimate D2E/DX2                !
 ! A3    A(3,1,4)              120.0            estimate D2E/DX2                !
 ! A4    A(1,2,8)              138.6538         estimate D2E/DX2                !
 ! A5    A(1,2,10)             107.076          estimate D2E/DX2                !
 ! A6    A(1,4,5)              120.0            estimate D2E/DX2                !
 ! A7    A(1,4,6)              120.0            estimate D2E/DX2                !
 ! A8    A(5,4,6)              120.0            estimate D2E/DX2                !
 ! A9    A(4,6,7)              109.4712         estimate D2E/DX2                !
 ! A10   A(2,8,9)               97.171          estimate D2E/DX2                !
 ! A11   A(2,8,11)             107.5782         estimate D2E/DX2                !
 ! A12   A(9,8,10)             119.8865         estimate D2E/DX2                !
 ! A13   A(9,8,11)             120.2269         estimate D2E/DX2                !
 ! A14   A(10,8,11)            119.8865         estimate D2E/DX2                !
 ! D1    D(3,1,2,8)           -115.2214         estimate D2E/DX2                !
 ! D2    D(3,1,2,10)           -93.6692         estimate D2E/DX2                !
 ! D3    D(4,1,2,8)             64.7786         estimate D2E/DX2                !
 ! D4    D(4,1,2,10)            86.3308         estimate D2E/DX2                !
 ! D5    D(2,1,4,5)           -179.9998         estimate D2E/DX2                !
 ! D6    D(2,1,4,6)              0.0002         estimate D2E/DX2                !
 ! D7    D(3,1,4,5)              0.0001         estimate D2E/DX2                !
 ! D8    D(3,1,4,6)           -179.9999         estimate D2E/DX2                !
 ! D9    D(1,2,8,9)            156.3069         estimate D2E/DX2                !
 ! D10   D(1,2,8,11)           -78.7958         estimate D2E/DX2                !
 ! D11   D(1,4,6,7)            -18.1208         estimate D2E/DX2                !
 ! D12   D(5,4,6,7)            161.8792         estimate D2E/DX2                !
 --------------------------------------------------------------------------------
 Trust Radius=3.00D-01 FncErr=1.00D-07 GrdErr=1.00D-06 EigMax=2.50D+02 EigMin=1.00D-04
 Number of steps in this run=     47 maximum allowed number of steps=    100.
 GradGradGradGradGradGradGradGradGradGradGradGradGradGradGradGradGradGrad

 Leave Link  103 at Tue Oct 15 20:23:27 2019, MaxMem=   280000000 cpu:               0.7 elap:               0.1
 (Enter /home/soft/g16/l202.exe)
                          Input orientation:                          
 ---------------------------------------------------------------------
 Center     Atomic      Atomic             Coordinates (Angstroms)
 Number     Number       Type             X           Y           Z
 ---------------------------------------------------------------------
      1          6           0       -4.079425    1.396417   -0.042519
      2          1           0       -3.571472    0.470803    0.131038
      3          1           0       -5.138162    1.404873   -0.197135
      4          6           0       -3.381836    2.558037   -0.066508
      5          1           0       -3.889789    3.483651   -0.240063
      6          8           0       -1.966889    2.546736    0.140125
      7          1           0       -1.710351    1.718755    0.552722
      8          6           0       -2.652254   -0.328060    1.433627
      9          1           0       -2.815430   -1.335931    1.113517
     10          1           0       -3.479221    0.269397    1.756228
     11          8           0       -1.491109    0.157028    1.432001
 ---------------------------------------------------------------------
                    Distance matrix (angstroms):
                    1          2          3          4          5
     1  C    0.000000
     2  H    1.070000   0.000000
     3  H    1.070000   1.853294   0.000000
     4  C    1.355200   2.105120   2.105120   0.000000
     5  H    2.105120   3.052261   2.425200   1.070000   0.000000
     6  O    2.412344   2.623789   3.387413   1.430000   2.172533
     7  H    2.463884   2.280125   3.522881   1.970203   2.914329
     8  C    2.681352   1.783223   3.441247   3.333505   4.343026
     9  H    3.224877   2.191153   3.824251   4.108072   5.120039
    10  H    2.205881   1.640218   2.803037   2.927409   3.805940
    11  O    3.226403   2.473635   4.184757   3.403707   4.428982
                    6          7          8          9         10
     6  O    0.000000
     7  H    0.960000   0.000000
     8  C    3.226039   2.419221   0.000000
     9  H    4.091774   3.296482   1.070000   0.000000
    10  H    3.175722   2.584176   1.070000   1.852234   0.000000
    11  O    2.757900   1.805599   1.258400   2.020937   2.017508
                   11
    11  O    0.000000
 Stoichiometry    C3H6O2
 Framework group  C1[X(C3H6O2)]
 Deg. of freedom    27
 Full point group                 C1      NOp   1
 Largest Abelian subgroup         C1      NOp   1
 Largest concise Abelian subgroup C1      NOp   1
                         Standard orientation:                         
 ---------------------------------------------------------------------
 Center     Atomic      Atomic             Coordinates (Angstroms)
 Number     Number       Type             X           Y           Z
 ---------------------------------------------------------------------
      1          6           0        0.921580    1.180988   -0.145872
      2          1           0       -0.091125    1.126407   -0.486972
      3          1           0        1.388271    2.133580   -0.005633
      4          6           0        1.613129    0.043619    0.108528
      5          1           0        2.625833    0.098200    0.449631
      6          8           0        0.989421   -1.229472   -0.078898
      7          1           0        0.036291   -1.118007   -0.105733
      8          6           0       -1.677696    0.575329    0.112187
      9          1           0       -2.281079    1.188919   -0.523687
     10          1           0       -1.043363    1.028737    0.844952
     11          8           0       -1.711534   -0.677710    0.001196
 ---------------------------------------------------------------------
 Rotational constants (GHZ):           7.9341398           3.2595616           2.3552091
 Leave Link  202 at Tue Oct 15 20:23:27 2019, MaxMem=   280000000 cpu:               1.4 elap:               0.1
 (Enter /home/soft/g16/l301.exe)
 Standard basis: 6-311+G(d) (5D, 7F)
 Ernie: Thresh=  0.10000D-02 Tol=  0.10000D-05 Strict=F.
 There are   133 symmetry adapted cartesian basis functions of A   symmetry.
 There are   128 symmetry adapted basis functions of A   symmetry.
   128 basis functions,   210 primitive gaussians,   133 cartesian basis functions
    20 alpha electrons       20 beta electrons
       nuclear repulsion energy       166.9639519348 Hartrees.
 IExCor=  402 DFT=T Ex+Corr=B3LYP ExCW=0 ScaHFX=  0.200000
 ScaDFX=  0.800000  0.720000  1.000000  0.810000 ScalE2=  1.000000  1.000000
 IRadAn=      5 IRanWt=     -1 IRanGd=            0 ICorTp=0 IEmpDi=  4
 NAtoms=   11 NActive=   11 NUniq=   11 SFac= 1.00D+00 NAtFMM=   60 NAOKFM=F Big=F
 Integral buffers will be    131072 words long.
 Raffenetti 2 integral format.
 Two-electron integral symmetry is turned on.
 Leave Link  301 at Tue Oct 15 20:23:27 2019, MaxMem=   280000000 cpu:               2.3 elap:               0.1
 (Enter /home/soft/g16/l302.exe)
 NPDir=0 NMtPBC=     1 NCelOv=     1 NCel=       1 NClECP=     1 NCelD=      1
         NCelK=      1 NCelE2=     1 NClLst=     1 CellRange=     0.0.
 One-electron integrals computed using PRISM.
 One-electron integral symmetry used in STVInt
 NBasis=   128 RedAO= T EigKep=  1.00D-04  NBF=   128
 NBsUse=   128 1.00D-06 EigRej= -1.00D+00 NBFU=   128
 Precomputing XC quadrature grid using
 IXCGrd= 4 IRadAn=           5 IRanWt=          -1 IRanGd=           0 AccXCQ= 0.00D+00.
 Generated NRdTot=       0 NPtTot=           0 NUsed=           0 NTot=          32
 NSgBfM=   133   133   133   133   133 MxSgAt=    11 MxSgA2=    11.
 Leave Link  302 at Tue Oct 15 20:23:27 2019, MaxMem=   280000000 cpu:               3.7 elap:               0.2
 (Enter /home/soft/g16/l303.exe)
 DipDrv:  MaxL=1.
 Leave Link  303 at Tue Oct 15 20:23:27 2019, MaxMem=   280000000 cpu:               1.5 elap:               0.1
 (Enter /home/soft/g16/l401.exe)
 ExpMin= 4.38D-02 ExpMax= 8.59D+03 ExpMxC= 1.30D+03 IAcc=3 IRadAn=         5 AccDes= 0.00D+00
 Harris functional with IExCor=  402 and IRadAn=       5 diagonalized for initial guess.
 HarFok:  IExCor=  402 AccDes= 0.00D+00 IRadAn=         5 IDoV= 1 UseB2=F ITyADJ=14
 ICtDFT=  3500011 ScaDFX=  1.000000  1.000000  1.000000  1.000000
 FoFCou: FMM=F IPFlag=           0 FMFlag=      100000 FMFlg1=           0
         NFxFlg=           0 DoJE=T BraDBF=F KetDBF=T FulRan=T
         wScrn=  0.000000 ICntrl=       500 IOpCl=  0 I1Cent=   200000004 NGrid=           0
         NMat0=    1 NMatS0=      1 NMatT0=    0 NMatD0=    1 NMtDS0=    0 NMtDT0=    0
 Petite list used in FoFCou.
 Harris En= -268.396360265165    
 JPrj=0 DoOrth=F DoCkMO=F.
 Leave Link  401 at Tue Oct 15 20:23:28 2019, MaxMem=   280000000 cpu:               7.4 elap:               0.4
 (Enter /home/soft/g16/l502.exe)
 Keep R1 ints in memory in canonical form, NReq=57089853.
 FoFCou: FMM=F IPFlag=           0 FMFlag=           0 FMFlg1=           0
         NFxFlg=           0 DoJE=F BraDBF=F KetDBF=F FulRan=T
         wScrn=  0.000000 ICntrl=       600 IOpCl=  0 I1Cent=           0 NGrid=           0
         NMat0=    1 NMatS0=   8256 NMatT0=    0 NMatD0=    1 NMtDS0=    0 NMtDT0=    0
 Symmetry not used in FoFCou.
 Two-electron integral symmetry not used.
 Closed shell SCF:
 Using DIIS extrapolation, IDIIS=  1040.
 NGot=   280000000 LenX=   245875047 LenY=   245856917
 Requested convergence on RMS density matrix=1.00D-08 within 128 cycles.
 Requested convergence on MAX density matrix=1.00D-06.
 Requested convergence on             energy=1.00D-06.
 No special actions if energy rises.

 Cycle   1  Pass 1  IDiag  1:
 E= -268.203403117896    
 DIIS: error= 2.55D-02 at cycle   1 NSaved=   1.
 NSaved= 1 IEnMin= 1 EnMin= -268.203403117896     IErMin= 1 ErrMin= 2.55D-02
 ErrMax= 2.55D-02  0.00D+00 EMaxC= 1.00D-01 BMatC= 1.99D-01 BMatP= 1.99D-01
 IDIUse=3 WtCom= 7.45D-01 WtEn= 2.55D-01
 Coeff-Com:  0.100D+01
 Coeff-En:   0.100D+01
 Coeff:      0.100D+01
 Gap=     0.086 Goal=   None    Shift=    0.000
 GapD=    0.086 DampG=0.500 DampE=0.500 DampFc=0.2500 IDamp=-1.
 Damping current iteration by 2.50D-01
 RMSDP=7.28D-03 MaxDP=1.90D-01              OVMax= 1.92D-01

 Cycle   2  Pass 1  IDiag  1:
 E= -268.258173483087     Delta-E=       -0.054770365191 Rises=F Damp=T
 DIIS: error= 9.31D-03 at cycle   2 NSaved=   2.
 NSaved= 2 IEnMin= 2 EnMin= -268.258173483087     IErMin= 2 ErrMin= 9.31D-03
 ErrMax= 9.31D-03  0.00D+00 EMaxC= 1.00D-01 BMatC= 4.06D-02 BMatP= 1.99D-01
 IDIUse=3 WtCom= 9.07D-01 WtEn= 9.31D-02
 Coeff-Com: -0.601D+00 0.160D+01
 Coeff-En:   0.000D+00 0.100D+01
 Coeff:     -0.545D+00 0.155D+01
 Gap=     0.138 Goal=   None    Shift=    0.000
 RMSDP=1.66D-03 MaxDP=4.65D-02 DE=-5.48D-02 OVMax= 1.93D-01

 Cycle   3  Pass 1  IDiag  1:
 E= -268.334123809888     Delta-E=       -0.075950326801 Rises=F Damp=F
 DIIS: error= 1.49D-02 at cycle   3 NSaved=   3.
 NSaved= 3 IEnMin= 3 EnMin= -268.334123809888     IErMin= 2 ErrMin= 9.31D-03
 ErrMax= 1.49D-02  0.00D+00 EMaxC= 1.00D-01 BMatC= 2.63D-02 BMatP= 4.06D-02
 IDIUse=3 WtCom= 8.51D-01 WtEn= 1.49D-01
 Coeff-Com: -0.436D+00 0.999D+00 0.436D+00
 Coeff-En:   0.000D+00 0.000D+00 0.100D+01
 Coeff:     -0.371D+00 0.851D+00 0.520D+00
 Gap=     0.161 Goal=   None    Shift=    0.000
 RMSDP=1.22D-03 MaxDP=2.34D-02 DE=-7.60D-02 OVMax= 7.10D-02

 Cycle   4  Pass 1  IDiag  1:
 E= -268.350014984535     Delta-E=       -0.015891174647 Rises=F Damp=F
 DIIS: error= 8.31D-03 at cycle   4 NSaved=   4.
 NSaved= 4 IEnMin= 4 EnMin= -268.350014984535     IErMin= 4 ErrMin= 8.31D-03
 ErrMax= 8.31D-03  0.00D+00 EMaxC= 1.00D-01 BMatC= 7.70D-03 BMatP= 2.63D-02
 IDIUse=3 WtCom= 9.17D-01 WtEn= 8.31D-02
 Coeff-Com: -0.117D+00 0.264D+00 0.353D+00 0.500D+00
 Coeff-En:   0.000D+00 0.000D+00 0.265D+00 0.735D+00
 Coeff:     -0.107D+00 0.242D+00 0.346D+00 0.520D+00
 Gap=     0.153 Goal=   None    Shift=    0.000
 RMSDP=5.33D-04 MaxDP=9.28D-03 DE=-1.59D-02 OVMax= 2.49D-02

 Cycle   5  Pass 1  IDiag  1:
 E= -268.355822066062     Delta-E=       -0.005807081527 Rises=F Damp=F
 DIIS: error= 1.73D-03 at cycle   5 NSaved=   5.
 NSaved= 5 IEnMin= 5 EnMin= -268.355822066062     IErMin= 5 ErrMin= 1.73D-03
 ErrMax= 1.73D-03  0.00D+00 EMaxC= 1.00D-01 BMatC= 3.79D-04 BMatP= 7.70D-03
 IDIUse=3 WtCom= 9.83D-01 WtEn= 1.73D-02
 Coeff-Com: -0.195D-01 0.439D-01 0.159D+00 0.314D+00 0.502D+00
 Coeff-En:   0.000D+00 0.000D+00 0.000D+00 0.000D+00 0.100D+01
 Coeff:     -0.191D-01 0.431D-01 0.156D+00 0.308D+00 0.511D+00
 Gap=     0.153 Goal=   None    Shift=    0.000
 RMSDP=1.24D-04 MaxDP=3.74D-03 DE=-5.81D-03 OVMax= 7.96D-03

 Cycle   6  Pass 1  IDiag  1:
 E= -268.356158316900     Delta-E=       -0.000336250838 Rises=F Damp=F
 DIIS: error= 3.16D-04 at cycle   6 NSaved=   6.
 NSaved= 6 IEnMin= 6 EnMin= -268.356158316900     IErMin= 6 ErrMin= 3.16D-04
 ErrMax= 3.16D-04  0.00D+00 EMaxC= 1.00D-01 BMatC= 1.54D-05 BMatP= 3.79D-04
 IDIUse=3 WtCom= 9.97D-01 WtEn= 3.16D-03
 Coeff-Com:  0.160D-02-0.300D-02 0.425D-01 0.940D-01 0.237D+00 0.628D+00
 Coeff-En:   0.000D+00 0.000D+00 0.000D+00 0.000D+00 0.000D+00 0.100D+01
 Coeff:      0.160D-02-0.299D-02 0.424D-01 0.937D-01 0.237D+00 0.629D+00
 Gap=     0.154 Goal=   None    Shift=    0.000
 RMSDP=3.85D-05 MaxDP=8.17D-04 DE=-3.36D-04 OVMax= 1.97D-03

 Cycle   7  Pass 1  IDiag  1:
 E= -268.356171946602     Delta-E=       -0.000013629702 Rises=F Damp=F
 DIIS: error= 1.22D-04 at cycle   7 NSaved=   7.
 NSaved= 7 IEnMin= 7 EnMin= -268.356171946602     IErMin= 7 ErrMin= 1.22D-04
 ErrMax= 1.22D-04  0.00D+00 EMaxC= 1.00D-01 BMatC= 1.32D-06 BMatP= 1.54D-05
 IDIUse=3 WtCom= 9.99D-01 WtEn= 1.22D-03
 Coeff-Com:  0.201D-02-0.396D-02 0.153D-01 0.349D-01 0.103D+00 0.335D+00
 Coeff-Com:  0.514D+00
 Coeff-En:   0.000D+00 0.000D+00 0.000D+00 0.000D+00 0.000D+00 0.000D+00
 Coeff-En:   0.100D+01
 Coeff:      0.200D-02-0.396D-02 0.153D-01 0.348D-01 0.103D+00 0.334D+00
 Coeff:      0.515D+00
 Gap=     0.154 Goal=   None    Shift=    0.000
 RMSDP=1.08D-05 MaxDP=2.26D-04 DE=-1.36D-05 OVMax= 6.26D-04

 Cycle   8  Pass 1  IDiag  1:
 E= -268.356172918342     Delta-E=       -0.000000971741 Rises=F Damp=F
 DIIS: error= 6.68D-05 at cycle   8 NSaved=   8.
 NSaved= 8 IEnMin= 8 EnMin= -268.356172918342     IErMin= 8 ErrMin= 6.68D-05
 ErrMax= 6.68D-05  0.00D+00 EMaxC= 1.00D-01 BMatC= 2.09D-07 BMatP= 1.32D-06
 IDIUse=1 WtCom= 1.00D+00 WtEn= 0.00D+00
 Coeff-Com:  0.103D-02-0.191D-02 0.436D-02 0.978D-02 0.335D-01 0.121D+00
 Coeff-Com:  0.308D+00 0.524D+00
 Coeff:      0.103D-02-0.191D-02 0.436D-02 0.978D-02 0.335D-01 0.121D+00
 Coeff:      0.308D+00 0.524D+00
 Gap=     0.154 Goal=   None    Shift=    0.000
 RMSDP=3.69D-06 MaxDP=7.75D-05 DE=-9.72D-07 OVMax= 2.24D-04

 Cycle   9  Pass 1  IDiag  1:
 E= -268.356173081276     Delta-E=       -0.000000162934 Rises=F Damp=F
 DIIS: error= 1.02D-05 at cycle   9 NSaved=   9.
 NSaved= 9 IEnMin= 9 EnMin= -268.356173081276     IErMin= 9 ErrMin= 1.02D-05
 ErrMax= 1.02D-05  0.00D+00 EMaxC= 1.00D-01 BMatC= 1.46D-08 BMatP= 2.09D-07
 IDIUse=1 WtCom= 1.00D+00 WtEn= 0.00D+00
 Coeff-Com:  0.272D-03-0.468D-03 0.481D-04-0.434D-04 0.233D-02 0.109D-01
 Coeff-Com:  0.744D-01 0.258D+00 0.654D+00
 Coeff:      0.272D-03-0.468D-03 0.481D-04-0.434D-04 0.233D-02 0.109D-01
 Coeff:      0.744D-01 0.258D+00 0.654D+00
 Gap=     0.154 Goal=   None    Shift=    0.000
 RMSDP=8.16D-07 MaxDP=2.40D-05 DE=-1.63D-07 OVMax= 2.94D-05

 Cycle  10  Pass 1  IDiag  1:
 E= -268.356173094043     Delta-E=       -0.000000012767 Rises=F Damp=F
 DIIS: error= 1.24D-06 at cycle  10 NSaved=  10.
 NSaved=10 IEnMin=10 EnMin= -268.356173094043     IErMin=10 ErrMin= 1.24D-06
 ErrMax= 1.24D-06  0.00D+00 EMaxC= 1.00D-01 BMatC= 2.95D-10 BMatP= 1.46D-08
 IDIUse=1 WtCom= 1.00D+00 WtEn= 0.00D+00
 Coeff-Com:  0.341D-04-0.513D-04-0.138D-03-0.368D-03-0.648D-03-0.184D-02
 Coeff-Com:  0.931D-02 0.599D-01 0.218D+00 0.716D+00
 Coeff:      0.341D-04-0.513D-04-0.138D-03-0.368D-03-0.648D-03-0.184D-02
 Coeff:      0.931D-02 0.599D-01 0.218D+00 0.716D+00
 Gap=     0.154 Goal=   None    Shift=    0.000
 RMSDP=2.74D-07 MaxDP=5.55D-06 DE=-1.28D-08 OVMax= 5.39D-06

 Cycle  11  Pass 1  IDiag  1:
 E= -268.356173094370     Delta-E=       -0.000000000328 Rises=F Damp=F
 DIIS: error= 1.77D-07 at cycle  11 NSaved=  11.
 NSaved=11 IEnMin=11 EnMin= -268.356173094370     IErMin=11 ErrMin= 1.77D-07
 ErrMax= 1.77D-07  0.00D+00 EMaxC= 1.00D-01 BMatC= 7.87D-12 BMatP= 2.95D-10
 IDIUse=1 WtCom= 1.00D+00 WtEn= 0.00D+00
 Coeff-Com: -0.687D-05 0.106D-04-0.160D-04-0.439D-04-0.188D-03-0.593D-03
 Coeff-Com: -0.226D-02-0.263D-02-0.305D-02 0.112D+00 0.897D+00
 Coeff:     -0.687D-05 0.106D-04-0.160D-04-0.439D-04-0.188D-03-0.593D-03
 Coeff:     -0.226D-02-0.263D-02-0.305D-02 0.112D+00 0.897D+00
 Gap=     0.154 Goal=   None    Shift=    0.000
 RMSDP=4.18D-08 MaxDP=7.36D-07 DE=-3.28D-10 OVMax= 2.42D-06

 Cycle  12  Pass 1  IDiag  1:
 E= -268.356173094382     Delta-E=       -0.000000000012 Rises=F Damp=F
 DIIS: error= 4.54D-08 at cycle  12 NSaved=  12.
 NSaved=12 IEnMin=12 EnMin= -268.356173094382     IErMin=12 ErrMin= 4.54D-08
 ErrMax= 4.54D-08  0.00D+00 EMaxC= 1.00D-01 BMatC= 3.44D-13 BMatP= 7.87D-12
 IDIUse=1 WtCom= 1.00D+00 WtEn= 0.00D+00
 Coeff-Com: -0.131D-05 0.207D-05 0.261D-05 0.578D-05-0.118D-04-0.140D-04
 Coeff-Com: -0.676D-03-0.219D-02-0.911D-02-0.108D-01 0.105D+00 0.918D+00
 Coeff:     -0.131D-05 0.207D-05 0.261D-05 0.578D-05-0.118D-04-0.140D-04
 Coeff:     -0.676D-03-0.219D-02-0.911D-02-0.108D-01 0.105D+00 0.918D+00
 Gap=     0.154 Goal=   None    Shift=    0.000
 RMSDP=9.73D-09 MaxDP=1.33D-07 DE=-1.18D-11 OVMax= 8.15D-07

 SCF Done:  E(RB3LYP) =  -268.356173094     A.U. after   12 cycles
            NFock= 12  Conv=0.97D-08     -V/T= 2.0035
 KE= 2.674331675474D+02 PE=-9.626459049723D+02 EE= 2.598926123956D+02
 Leave Link  502 at Tue Oct 15 20:23:30 2019, MaxMem=   280000000 cpu:              52.8 elap:               2.7
 (Enter /home/soft/g16/l601.exe)
 Copying SCF densities to generalized density rwf, IOpCl= 0 IROHF=0.

 **********************************************************************

            Population analysis using the SCF density.

 **********************************************************************

 Orbital symmetries:
       Occupied  (A) (A) (A) (A) (A) (A) (A) (A) (A) (A) (A) (A)
                 (A) (A) (A) (A) (A) (A) (A) (A)
       Virtual   (A) (A) (A) (A) (A) (A) (A) (A) (A) (A) (A) (A)
                 (A) (A) (A) (A) (A) (A) (A) (A) (A) (A) (A) (A)
                 (A) (A) (A) (A) (A) (A) (A) (A) (A) (A) (A) (A)
                 (A) (A) (A) (A) (A) (A) (A) (A) (A) (A) (A) (A)
                 (A) (A) (A) (A) (A) (A) (A) (A) (A) (A) (A) (A)
                 (A) (A) (A) (A) (A) (A) (A) (A) (A) (A) (A) (A)
                 (A) (A) (A) (A) (A) (A) (A) (A) (A) (A) (A) (A)
                 (A) (A) (A) (A) (A) (A) (A) (A) (A) (A) (A) (A)
                 (A) (A) (A) (A) (A) (A) (A) (A) (A) (A) (A) (A)
 The electronic state is 1-A.
 Alpha  occ. eigenvalues --  -19.16448 -19.14035 -10.29592 -10.24691 -10.17334
 Alpha  occ. eigenvalues --   -1.07091  -1.03587  -0.77299  -0.68978  -0.62382
 Alpha  occ. eigenvalues --   -0.53611  -0.51212  -0.48992  -0.47818  -0.44335
 Alpha  occ. eigenvalues --   -0.38713  -0.38082  -0.35354  -0.30527  -0.24780
 Alpha virt. eigenvalues --   -0.09409  -0.01033   0.00074   0.01827   0.02696
 Alpha virt. eigenvalues --    0.04538   0.04684   0.05800   0.07539   0.08151
 Alpha virt. eigenvalues --    0.10028   0.11229   0.12348   0.13283   0.14497
 Alpha virt. eigenvalues --    0.15857   0.17478   0.18643   0.19767   0.21327
 Alpha virt. eigenvalues --    0.21915   0.22711   0.23609   0.25189   0.26774
 Alpha virt. eigenvalues --    0.27728   0.30074   0.32447   0.34724   0.36424
 Alpha virt. eigenvalues --    0.39263   0.42881   0.44784   0.46321   0.47843
 Alpha virt. eigenvalues --    0.52757   0.54707   0.56095   0.59678   0.60648
 Alpha virt. eigenvalues --    0.63727   0.64690   0.66908   0.67495   0.73870
 Alpha virt. eigenvalues --    0.79028   0.80865   0.87352   0.90712   1.04042
 Alpha virt. eigenvalues --    1.04888   1.06715   1.08046   1.13212   1.16150
 Alpha virt. eigenvalues --    1.19455   1.23200   1.31804   1.33240   1.41354
 Alpha virt. eigenvalues --    1.43077   1.47265   1.50677   1.55339   1.55892
 Alpha virt. eigenvalues --    1.64318   1.72250   1.75470   1.85375   1.93068
 Alpha virt. eigenvalues --    1.99843   2.15683   2.33331   2.35035   2.37756
 Alpha virt. eigenvalues --    2.40698   2.49041   2.56498   2.62838   2.69475
 Alpha virt. eigenvalues --    2.77715   2.83623   2.85735   2.91118   2.94825
 Alpha virt. eigenvalues --    3.08622   3.12331   3.13211   3.15653   3.24412
 Alpha virt. eigenvalues --    3.25488   3.27605   3.30515   3.38698   3.59045
 Alpha virt. eigenvalues --    3.83584   3.98815   4.96772   4.98203   5.05111
 Alpha virt. eigenvalues --    5.16583   5.45250   5.53381  23.36431  23.59005
 Alpha virt. eigenvalues --   24.07365  49.83488  49.86563
          Condensed to atoms (all electrons):
               1          2          3          4          5          6
     1  C    5.691689   0.342273   0.369756   0.320544  -0.019901  -0.093663
     2  H    0.342273   0.492109  -0.027408  -0.010500   0.004491  -0.015804
     3  H    0.369756  -0.027408   0.440174  -0.029209  -0.002609   0.009672
     4  C    0.320544  -0.010500  -0.029209   5.238059   0.362163   0.249784
     5  H   -0.019901   0.004491  -0.002609   0.362163   0.449042  -0.039983
     6  O   -0.093663  -0.015804   0.009672   0.249784  -0.039983   8.103572
     7  H   -0.017143   0.008316  -0.000620   0.002403   0.004545   0.234131
     8  C    0.074771  -0.027640   0.003660  -0.096693   0.000257   0.009871
     9  H   -0.001316   0.007887  -0.000281   0.006022   0.000016  -0.001347
    10  H   -0.008820  -0.056206   0.001719  -0.014451  -0.000718   0.005841
    11  O   -0.026640  -0.011399   0.001510   0.011668  -0.000278  -0.005632
               7          8          9         10         11
     1  C   -0.017143   0.074771  -0.001316  -0.008820  -0.026640
     2  H    0.008316  -0.027640   0.007887  -0.056206  -0.011399
     3  H   -0.000620   0.003660  -0.000281   0.001719   0.001510
     4  C    0.002403  -0.096693   0.006022  -0.014451   0.011668
     5  H    0.004545   0.000257   0.000016  -0.000718  -0.000278
     6  O    0.234131   0.009871  -0.001347   0.005841  -0.005632
     7  H    0.338221  -0.005558   0.000453  -0.001329   0.026131
     8  C   -0.005558   5.351577   0.341547   0.380754   0.323246
     9  H    0.000453   0.341547   0.555717  -0.079994  -0.065750
    10  H   -0.001329   0.380754  -0.079994   0.533969  -0.057727
    11  O    0.026131   0.323246  -0.065750  -0.057727   8.036243
 Mulliken charges:
               1
     1  C   -0.631551
     2  H    0.293882
     3  H    0.233637
     4  C   -0.039791
     5  H    0.242975
     6  O   -0.456444
     7  H    0.410450
     8  C   -0.355792
     9  H    0.237047
    10  H    0.296960
    11  O   -0.231373
 Sum of Mulliken charges =  -0.00000
 Mulliken charges with hydrogens summed into heavy atoms:
               1
     1  C   -0.104032
     4  C    0.203184
     6  O   -0.045994
     8  C    0.178216
    11  O   -0.231373
 Electronic spatial extent (au):  <R**2>=            503.7121
 Charge=             -0.0000 electrons
 Dipole moment (field-independent basis, Debye):
    X=             -0.7700    Y=              3.8475    Z=              0.5178  Tot=              3.9579
 Quadrupole moment (field-independent basis, Debye-Ang):
   XX=            -28.5468   YY=            -33.0599   ZZ=            -32.6266
   XY=             -1.9741   XZ=              1.3884   YZ=              0.1010
 Traceless Quadrupole moment (field-independent basis, Debye-Ang):
   XX=              2.8643   YY=             -1.6488   ZZ=             -1.2155
   XY=             -1.9741   XZ=              1.3884   YZ=              0.1010
 Octapole moment (field-independent basis, Debye-Ang**2):
  XXX=              4.0788  YYY=              1.7659  ZZZ=              0.5897  XYY=             -5.6880
  XXY=             10.5496  XXZ=              3.8502  XZZ=             -4.3790  YZZ=             -2.6756
  YYZ=              0.0747  XYZ=              1.0864
 Hexadecapole moment (field-independent basis, Debye-Ang**3):
 XXXX=           -381.3724 YYYY=           -194.5729 ZZZZ=            -43.1759 XXXY=            -16.4182
 XXXZ=              9.9305 YYYX=              7.6171 YYYZ=              1.1177 ZZZX=              1.1437
 ZZZY=              1.0343 XXYY=           -104.4608 XXZZ=            -78.4613 YYZZ=            -42.4351
 XXYZ=             -0.8968 YYXZ=              1.9930 ZZXY=             -3.6062
 N-N= 1.669639519348D+02 E-N=-9.626459053609D+02  KE= 2.674331675474D+02
 No NMR shielding tensors so no spin-rotation constants.
 Leave Link  601 at Tue Oct 15 20:23:30 2019, MaxMem=   280000000 cpu:               2.2 elap:               0.1
 (Enter /home/soft/g16/l701.exe)
 ... and contract with generalized density number  0.
 Compute integral first derivatives.
 Leave Link  701 at Tue Oct 15 20:23:31 2019, MaxMem=   280000000 cpu:               6.0 elap:               0.3
 (Enter /home/soft/g16/l702.exe)
 L702 exits ... SP integral derivatives will be done elsewhere.
 Leave Link  702 at Tue Oct 15 20:23:31 2019, MaxMem=   280000000 cpu:               1.0 elap:               0.1
 (Enter /home/soft/g16/l703.exe)
 Integral derivatives from FoFJK, PRISM(SPDF).
 Compute integral first derivatives, UseDBF=F ICtDFT=           0.
 Calling FoFJK, ICntrl=      2127 FMM=F ISym2X=0 I1Cent= 0 IOpClX= 0 NMat=1 NMatS=1 NMatT=0.
 FoFJK:  IHMeth= 1 ICntrl=    2127 DoSepK=F KAlg= 0 I1Cent=           0 FoldK=F
 IRaf=         0 NMat=       1 IRICut=       1 DoRegI=T DoRafI=F ISym2E= 0 IDoP0=0 IntGTp=1.
 FoFCou: FMM=F IPFlag=           0 FMFlag=      100000 FMFlg1=         800
         NFxFlg=           0 DoJE=F BraDBF=F KetDBF=F FulRan=T
         wScrn=  0.000000 ICntrl=      2127 IOpCl=  0 I1Cent=           0 NGrid=           0
         NMat0=    1 NMatS0=      1 NMatT0=    0 NMatD0=    1 NMtDS0=    0 NMtDT0=    0
 Symmetry not used in FoFCou.
 Leave Link  703 at Tue Oct 15 20:23:32 2019, MaxMem=   280000000 cpu:              14.9 elap:               0.7
 (Enter /home/soft/g16/l716.exe)
 Dipole        =-3.02952681D-01 1.51373998D+00 2.03709674D-01
 ***** Axes restored to original set *****
 -------------------------------------------------------------------
 Center     Atomic                   Forces (Hartrees/Bohr)
 Number     Number              X              Y              Z
 -------------------------------------------------------------------
      1        6           0.006564510    0.038941574   -0.012447160
      2        1          -0.008642147   -0.000226050   -0.022694947
      3        1          -0.009422032   -0.003317482   -0.000867538
      4        6           0.035003750   -0.053492338    0.011606778
      5        1           0.009425651    0.014671735   -0.000998203
      6        8          -0.050846072    0.034700324   -0.015715478
      7        1           0.004396062   -0.007325908    0.004965891
      8        6           0.079848087    0.025252659    0.023481121
      9        1          -0.004500826   -0.019522919   -0.006277291
     10        1          -0.008414096   -0.001065441    0.020683214
     11        8          -0.053412886   -0.028616155   -0.001736388
 -------------------------------------------------------------------
 Cartesian Forces:  Max     0.079848087 RMS     0.026540720
 Leave Link  716 at Tue Oct 15 20:23:32 2019, MaxMem=   280000000 cpu:               1.1 elap:               0.1
 (Enter /home/soft/g16/l103.exe)

 GradGradGradGradGradGradGradGradGradGradGradGradGradGradGradGradGradGrad
 Berny optimization.
 FormGI is forming the generalized inverse of G from B-inverse, IUseBI=4.
 GSVD:  received Info=                   1 from GESDD.
 Internal  Forces:  Max     0.060313746 RMS     0.019038744
 Search for a local minimum.
 Step number   1 out of a maximum of   47
 All quantities printed in internal units (Hartrees-Bohrs-Radians)
 RMS Force = .19039D-01 SwitMx=.10000D-02 MixMth= 1
 Mixed Optimization -- RFO/linear search
 Second derivative matrix not updated -- first step.
 ITU=  0
     Eigenvalues ---    0.00499   0.00501   0.01295   0.01590   0.02219
     Eigenvalues ---    0.02681   0.04675   0.06350   0.10108   0.13550
     Eigenvalues ---    0.16000   0.16000   0.16000   0.16000   0.16000
     Eigenvalues ---    0.16000   0.20886   0.22000   0.35872   0.37230
     Eigenvalues ---    0.37230   0.37230   0.37230   0.40989   0.53930
     Eigenvalues ---    0.55473   0.80209
 RFO step:  Lambda=-4.48172559D-02 EMin= 4.99391819D-03
 Linear search not attempted -- first point.
 Maximum step size (   0.300) exceeded in Quadratic search.
    -- Step size scaled by   0.653
 Iteration  1 RMS(Cart)=  0.18476077 RMS(Int)=  0.00743427
 Iteration  2 RMS(Cart)=  0.00845680 RMS(Int)=  0.00017270
 Iteration  3 RMS(Cart)=  0.00001958 RMS(Int)=  0.00017183
 Iteration  4 RMS(Cart)=  0.00000000 RMS(Int)=  0.00017183
 ITry= 1 IFail=0 DXMaxC= 5.98D-01 DCOld= 1.00D+10 DXMaxT= 3.00D-01 DXLimC= 3.00D+00 Rises=F
 Variable       Old X    -DE/DX   Delta X   Delta X   Delta X     New X
                                 (Linear)    (Quad)   (Total)
    R1        2.02201   0.02541   0.00000   0.03979   0.03979   2.06180
    R2        2.02201   0.00942   0.00000   0.01475   0.01475   2.03676
    R3        2.56096  -0.01085   0.00000  -0.01213  -0.01213   2.54883
    R4        3.36980   0.02704   0.00000   0.16353   0.16354   3.53334
    R5        3.09956   0.01790   0.00000   0.12903   0.12899   3.22856
    R6        2.02201   0.00838   0.00000   0.01312   0.01312   2.03513
    R7        2.70231  -0.04773   0.00000  -0.06855  -0.06855   2.63375
    R8        1.81414   0.00963   0.00000   0.01049   0.01049   1.82462
    R9        2.02201   0.02095   0.00000   0.03281   0.03281   2.05481
   R10        2.02201   0.01314   0.00000   0.02035   0.02038   2.04238
   R11        2.37803  -0.06031   0.00000  -0.04651  -0.04651   2.33152
    A1        2.09440  -0.01664   0.00000  -0.05305  -0.05307   2.04132
    A2        2.09440   0.02635   0.00000   0.08401   0.08399   2.17838
    A3        2.09440  -0.00971   0.00000  -0.03096  -0.03099   2.06341
    A4        2.41997   0.01798   0.00000   0.04312   0.04274   2.46271
    A5        1.86883   0.01596   0.00000   0.04653   0.04686   1.91569
    A6        2.09440  -0.00515   0.00000  -0.00152  -0.00155   2.09284
    A7        2.09440   0.04125   0.00000   0.10172   0.10169   2.19608
    A8        2.09440  -0.03610   0.00000  -0.10021  -0.10024   1.99416
    A9        1.91063   0.00369   0.00000   0.01176   0.01176   1.92239
   A10        1.69595  -0.00258   0.00000  -0.00869  -0.00878   1.68718
   A11        1.87759   0.00352   0.00000   0.00913   0.00922   1.88682
   A12        2.09241  -0.00047   0.00000  -0.00284  -0.00263   2.08979
   A13        2.09836  -0.00281   0.00000  -0.01141  -0.01140   2.08695
   A14        2.09241   0.00329   0.00000   0.01425   0.01400   2.10642
    D1       -2.01099   0.00157   0.00000   0.03498   0.03471  -1.97628
    D2       -1.63484   0.00035   0.00000  -0.00685  -0.00650  -1.64134
    D3        1.13060   0.00283   0.00000   0.04849   0.04815   1.17875
    D4        1.50676   0.00160   0.00000   0.00666   0.00693   1.51369
    D5       -3.14159  -0.00127   0.00000  -0.01313  -0.01331   3.12829
    D6        0.00000   0.00043   0.00000   0.00343   0.00352   0.00353
    D7        0.00000  -0.00001   0.00000   0.00038   0.00028   0.00028
    D8       -3.14159   0.00169   0.00000   0.01694   0.01711  -3.12448
    D9        2.72807  -0.00424   0.00000  -0.06314  -0.06332   2.66475
   D10       -1.37525  -0.00727   0.00000  -0.07655  -0.07678  -1.45202
   D11       -0.31627  -0.00163   0.00000  -0.01712  -0.01684  -0.33310
   D12        2.82533   0.00007   0.00000  -0.00056  -0.00084   2.82449
         Item               Value     Threshold  Converged?
 Maximum Force            0.060314     0.000450     NO 
 RMS     Force            0.019039     0.000300     NO 
 Maximum Displacement     0.598262     0.001800     NO 
 RMS     Displacement     0.186456     0.001200     NO 
 Predicted change in Energy=-2.204720D-02
 Lowest energy point so far.  Saving SCF results.
 GradGradGradGradGradGradGradGradGradGradGradGradGradGradGradGradGradGrad

 Leave Link  103 at Tue Oct 15 20:23:32 2019, MaxMem=   280000000 cpu:               3.2 elap:               0.2
 (Enter /home/soft/g16/l202.exe)
                          Input orientation:                          
 ---------------------------------------------------------------------
 Center     Atomic      Atomic             Coordinates (Angstroms)
 Number     Number       Type             X           Y           Z
 ---------------------------------------------------------------------
      1          6           0       -4.034805    1.421061   -0.041681
      2          1           0       -3.555583    0.459568    0.148800
      3          1           0       -5.101011    1.412917   -0.199178
      4          6           0       -3.389297    2.603515   -0.107505
      5          1           0       -3.940590    3.505605   -0.312724
      6          8           0       -2.017765    2.794131    0.050709
      7          1           0       -1.626421    2.035342    0.501679
      8          6           0       -2.663357   -0.479946    1.496859
      9          1           0       -2.931743   -1.476659    1.154970
     10          1           0       -3.435507    0.197566    1.832794
     11          8           0       -1.479859   -0.131392    1.488308
 ---------------------------------------------------------------------
                    Distance matrix (angstroms):
                    1          2          3          4          5
     1  C    0.000000
     2  H    1.091057   0.000000
     3  H    1.077806   1.848867   0.000000
     4  C    1.348782   2.165606   2.087077   0.000000
     5  H    2.104201   3.104766   2.395581   1.076943   0.000000
     6  O    2.441784   2.797264   3.387713   1.393723   2.082194
     7  H    2.544189   2.515801   3.598804   1.949784   2.860123
     8  C    2.803891   1.869764   3.521595   3.550874   4.559663
     9  H    3.323477   2.269478   3.858638   4.295464   5.291015
    10  H    2.317273   1.708479   2.894805   3.091195   3.975107
    11  O    3.358381   2.540107   4.283135   3.697605   4.746225
                    6          7          8          9         10
     6  O    0.000000
     7  H    0.965550   0.000000
     8  C    3.636994   2.896946   0.000000
     9  H    4.504930   3.803262   1.087361   0.000000
    10  H    3.453689   2.902082   1.080782   1.875167   0.000000
    11  O    3.303743   2.385299   1.233788   2.007193   2.012820
                   11
    11  O    0.000000
 Stoichiometry    C3H6O2
 Framework group  C1[X(C3H6O2)]
 Deg. of freedom    27
 Full point group                 C1      NOp   1
 RotChk:  IX=0 Diff= 1.30D-01
 Largest Abelian subgroup         C1      NOp   1
 Largest concise Abelian subgroup C1      NOp   1
                         Standard orientation:                         
 ---------------------------------------------------------------------
 Center     Atomic      Atomic             Coordinates (Angstroms)
 Number     Number       Type             X           Y           Z
 ---------------------------------------------------------------------
      1          6           0        0.828343    1.199799   -0.147087
      2          1           0       -0.207442    1.089864   -0.471843
      3          1           0        1.196113    2.204745   -0.018650
      4          6           0        1.674541    0.176019    0.087509
      5          1           0        2.687241    0.375920    0.394568
      6          8           0        1.373863   -1.178179   -0.047411
      7          1           0        0.417199   -1.308687   -0.040532
      8          6           0       -1.863973    0.468512    0.133009
      9          1           0       -2.476689    1.118403   -0.487132
     10          1           0       -1.222259    0.898113    0.889142
     11          8           0       -1.902317   -0.752362   -0.040857
 ---------------------------------------------------------------------
 Rotational constants (GHZ):           7.9775440           2.6553550           2.0247415
 Leave Link  202 at Tue Oct 15 20:23:32 2019, MaxMem=   280000000 cpu:               1.0 elap:               0.1
 (Enter /home/soft/g16/l301.exe)
 Standard basis: 6-311+G(d) (5D, 7F)
 Ernie: Thresh=  0.10000D-02 Tol=  0.10000D-05 Strict=F.
 There are   133 symmetry adapted cartesian basis functions of A   symmetry.
 There are   128 symmetry adapted basis functions of A   symmetry.
   128 basis functions,   210 primitive gaussians,   133 cartesian basis functions
    20 alpha electrons       20 beta electrons
       nuclear repulsion energy       161.4844600386 Hartrees.
 IExCor=  402 DFT=T Ex+Corr=B3LYP ExCW=0 ScaHFX=  0.200000
 ScaDFX=  0.800000  0.720000  1.000000  0.810000 ScalE2=  1.000000  1.000000
 IRadAn=      5 IRanWt=     -1 IRanGd=            0 ICorTp=0 IEmpDi=  4
 NAtoms=   11 NActive=   11 NUniq=   11 SFac= 1.00D+00 NAtFMM=   60 NAOKFM=F Big=F
 Integral buffers will be    131072 words long.
 Raffenetti 2 integral format.
 Two-electron integral symmetry is turned on.
 Leave Link  301 at Tue Oct 15 20:23:32 2019, MaxMem=   280000000 cpu:               1.8 elap:               0.1
 (Enter /home/soft/g16/l302.exe)
 NPDir=0 NMtPBC=     1 NCelOv=     1 NCel=       1 NClECP=     1 NCelD=      1
         NCelK=      1 NCelE2=     1 NClLst=     1 CellRange=     0.0.
 One-electron integrals computed using PRISM.
 One-electron integral symmetry used in STVInt
 NBasis=   128 RedAO= T EigKep=  9.47D-05  NBF=   128
 NBsUse=   128 1.00D-06 EigRej= -1.00D+00 NBFU=   128
 Precomputing XC quadrature grid using
 IXCGrd= 4 IRadAn=           5 IRanWt=          -1 IRanGd=           0 AccXCQ= 0.00D+00.
 Generated NRdTot=       0 NPtTot=           0 NUsed=           0 NTot=          32
 NSgBfM=   133   133   133   133   133 MxSgAt=    11 MxSgA2=    11.
 Leave Link  302 at Tue Oct 15 20:23:32 2019, MaxMem=   280000000 cpu:               3.6 elap:               0.2
 (Enter /home/soft/g16/l303.exe)
 DipDrv:  MaxL=1.
 Leave Link  303 at Tue Oct 15 20:23:32 2019, MaxMem=   280000000 cpu:               1.9 elap:               0.1
 (Enter /home/soft/g16/l401.exe)
 Initial guess from the checkpoint file:  "R2.chk"
 B after Tr=     0.000000   -0.000000    0.000000
         Rot=    0.999168    0.001102    0.001935   -0.040718 Ang=   4.67 deg.
 Guess basis will be translated and rotated to current coordinates.
 JPrj=2 DoOrth=T DoCkMO=T.
 Generating alternative initial guess.
 ExpMin= 4.38D-02 ExpMax= 8.59D+03 ExpMxC= 1.30D+03 IAcc=2 IRadAn=         4 AccDes= 0.00D+00
 Harris functional with IExCor=  402 and IRadAn=       4 diagonalized for initial guess.
 HarFok:  IExCor=  402 AccDes= 0.00D+00 IRadAn=         4 IDoV= 1 UseB2=F ITyADJ=14
 ICtDFT=  3500011 ScaDFX=  1.000000  1.000000  1.000000  1.000000
 FoFCou: FMM=F IPFlag=           0 FMFlag=      100000 FMFlg1=           0
         NFxFlg=           0 DoJE=T BraDBF=F KetDBF=T FulRan=T
         wScrn=  0.000000 ICntrl=       500 IOpCl=  0 I1Cent=   200000004 NGrid=           0
         NMat0=    1 NMatS0=      1 NMatT0=    0 NMatD0=    1 NMtDS0=    0 NMtDT0=    0
 Petite list used in FoFCou.
 Harris En= -268.411750415061    
 Leave Link  401 at Tue Oct 15 20:23:33 2019, MaxMem=   280000000 cpu:               5.8 elap:               0.3
 (Enter /home/soft/g16/l502.exe)
 Keep R1 ints in memory in canonical form, NReq=57089853.
 FoFCou: FMM=F IPFlag=           0 FMFlag=           0 FMFlg1=           0
         NFxFlg=           0 DoJE=F BraDBF=F KetDBF=F FulRan=T
         wScrn=  0.000000 ICntrl=       600 IOpCl=  0 I1Cent=           0 NGrid=           0
         NMat0=    1 NMatS0=   8256 NMatT0=    0 NMatD0=    1 NMtDS0=    0 NMtDT0=    0
 Symmetry not used in FoFCou.
 Two-electron integral symmetry not used.
 Closed shell SCF:
 Using DIIS extrapolation, IDIIS=  1040.
 NGot=   280000000 LenX=   245875047 LenY=   245856917
 Requested convergence on RMS density matrix=1.00D-08 within 128 cycles.
 Requested convergence on MAX density matrix=1.00D-06.
 Requested convergence on             energy=1.00D-06.
 No special actions if energy rises.

 Cycle   1  Pass 1  IDiag  1:
 E= -268.347080501348    
 DIIS: error= 7.55D-03 at cycle   1 NSaved=   1.
 NSaved= 1 IEnMin= 1 EnMin= -268.347080501348     IErMin= 1 ErrMin= 7.55D-03
 ErrMax= 7.55D-03  0.00D+00 EMaxC= 1.00D-01 BMatC= 1.70D-02 BMatP= 1.70D-02
 IDIUse=3 WtCom= 9.24D-01 WtEn= 7.55D-02
 Coeff-Com:  0.100D+01
 Coeff-En:   0.100D+01
 Coeff:      0.100D+01
 Gap=     0.418 Goal=   None    Shift=    0.000
 GapD=    0.418 DampG=2.000 DampE=1.000 DampFc=2.0000 IDamp=-1.
 RMSDP=1.80D-03 MaxDP=2.40D-02              OVMax= 4.33D-02

 Cycle   2  Pass 1  IDiag  1:
 E= -268.372219247934     Delta-E=       -0.025138746586 Rises=F Damp=F
 DIIS: error= 3.03D-03 at cycle   2 NSaved=   2.
 NSaved= 2 IEnMin= 2 EnMin= -268.372219247934     IErMin= 2 ErrMin= 3.03D-03
 ErrMax= 3.03D-03  0.00D+00 EMaxC= 1.00D-01 BMatC= 9.26D-04 BMatP= 1.70D-02
 IDIUse=3 WtCom= 9.70D-01 WtEn= 3.03D-02
 Coeff-Com:  0.121D-01 0.988D+00
 Coeff-En:   0.000D+00 0.100D+01
 Coeff:      0.118D-01 0.988D+00
 Gap=     0.168 Goal=   None    Shift=    0.000
 RMSDP=4.91D-04 MaxDP=8.24D-03 DE=-2.51D-02 OVMax= 2.20D-02

 Cycle   3  Pass 1  IDiag  1:
 E= -268.370639219782     Delta-E=        0.001580028152 Rises=F Damp=F
 DIIS: error= 6.47D-03 at cycle   3 NSaved=   3.
 NSaved= 3 IEnMin= 2 EnMin= -268.372219247934     IErMin= 2 ErrMin= 3.03D-03
 ErrMax= 6.47D-03  0.00D+00 EMaxC= 1.00D-01 BMatC= 3.24D-03 BMatP= 9.26D-04
 IDIUse=3 WtCom= 1.11D-01 WtEn= 8.89D-01
 Coeff-Com: -0.360D-01 0.686D+00 0.350D+00
 Coeff-En:   0.000D+00 0.728D+00 0.272D+00
 Coeff:     -0.398D-02 0.723D+00 0.281D+00
 Gap=     0.169 Goal=   None    Shift=    0.000
 RMSDP=2.45D-04 MaxDP=5.10D-03 DE= 1.58D-03 OVMax= 1.31D-02

 Cycle   4  Pass 1  IDiag  1:
 E= -268.372947782202     Delta-E=       -0.002308562421 Rises=F Damp=F
 DIIS: error= 5.81D-04 at cycle   4 NSaved=   4.
 NSaved= 4 IEnMin= 4 EnMin= -268.372947782202     IErMin= 4 ErrMin= 5.81D-04
 ErrMax= 5.81D-04  0.00D+00 EMaxC= 1.00D-01 BMatC= 5.93D-05 BMatP= 9.26D-04
 IDIUse=3 WtCom= 9.94D-01 WtEn= 5.81D-03
 Coeff-Com: -0.174D-01 0.239D+00 0.386D-01 0.739D+00
 Coeff-En:   0.000D+00 0.000D+00 0.000D+00 0.100D+01
 Coeff:     -0.173D-01 0.238D+00 0.384D-01 0.741D+00
 Gap=     0.170 Goal=   None    Shift=    0.000
 RMSDP=6.20D-05 MaxDP=9.70D-04 DE=-2.31D-03 OVMax= 2.30D-03

 Cycle   5  Pass 1  IDiag  1:
 E= -268.372984406541     Delta-E=       -0.000036624339 Rises=F Damp=F
 DIIS: error= 3.33D-04 at cycle   5 NSaved=   5.
 NSaved= 5 IEnMin= 5 EnMin= -268.372984406541     IErMin= 5 ErrMin= 3.33D-04
 ErrMax= 3.33D-04  0.00D+00 EMaxC= 1.00D-01 BMatC= 1.29D-05 BMatP= 5.93D-05
 IDIUse=3 WtCom= 9.97D-01 WtEn= 3.33D-03
 Coeff-Com: -0.643D-02 0.752D-01-0.155D-01 0.460D+00 0.487D+00
 Coeff-En:   0.000D+00 0.000D+00 0.000D+00 0.101D+00 0.899D+00
 Coeff:     -0.641D-02 0.749D-01-0.154D-01 0.459D+00 0.488D+00
 Gap=     0.170 Goal=   None    Shift=    0.000
 RMSDP=1.96D-05 MaxDP=4.98D-04 DE=-3.66D-05 OVMax= 1.21D-03

 Cycle   6  Pass 1  IDiag  1:
 E= -268.372994954841     Delta-E=       -0.000010548300 Rises=F Damp=F
 DIIS: error= 4.73D-05 at cycle   6 NSaved=   6.
 NSaved= 6 IEnMin= 6 EnMin= -268.372994954841     IErMin= 6 ErrMin= 4.73D-05
 ErrMax= 4.73D-05  0.00D+00 EMaxC= 1.00D-01 BMatC= 3.40D-07 BMatP= 1.29D-05
 IDIUse=1 WtCom= 1.00D+00 WtEn= 0.00D+00
 Coeff-Com: -0.114D-02 0.870D-02-0.100D-01 0.125D+00 0.200D+00 0.678D+00
 Coeff:     -0.114D-02 0.870D-02-0.100D-01 0.125D+00 0.200D+00 0.678D+00
 Gap=     0.170 Goal=   None    Shift=    0.000
 RMSDP=6.23D-06 MaxDP=1.33D-04 DE=-1.05D-05 OVMax= 2.83D-04

 Cycle   7  Pass 1  IDiag  1:
 E= -268.372995240868     Delta-E=       -0.000000286027 Rises=F Damp=F
 DIIS: error= 2.15D-05 at cycle   7 NSaved=   7.
 NSaved= 7 IEnMin= 7 EnMin= -268.372995240868     IErMin= 7 ErrMin= 2.15D-05
 ErrMax= 2.15D-05  0.00D+00 EMaxC= 1.00D-01 BMatC= 4.60D-08 BMatP= 3.40D-07
 IDIUse=1 WtCom= 1.00D+00 WtEn= 0.00D+00
 Coeff-Com:  0.365D-04-0.309D-02-0.376D-02 0.227D-01 0.595D-01 0.332D+00
 Coeff-Com:  0.593D+00
 Coeff:      0.365D-04-0.309D-02-0.376D-02 0.227D-01 0.595D-01 0.332D+00
 Coeff:      0.593D+00
 Gap=     0.170 Goal=   None    Shift=    0.000
 RMSDP=2.06D-06 MaxDP=4.08D-05 DE=-2.86D-07 OVMax= 1.22D-04

 Cycle   8  Pass 1  IDiag  1:
 E= -268.372995273969     Delta-E=       -0.000000033100 Rises=F Damp=F
 DIIS: error= 1.68D-05 at cycle   8 NSaved=   8.
 NSaved= 8 IEnMin= 8 EnMin= -268.372995273969     IErMin= 8 ErrMin= 1.68D-05
 ErrMax= 1.68D-05  0.00D+00 EMaxC= 1.00D-01 BMatC= 1.18D-08 BMatP= 4.60D-08
 IDIUse=1 WtCom= 1.00D+00 WtEn= 0.00D+00
 Coeff-Com:  0.141D-03-0.288D-02-0.101D-02-0.340D-03 0.133D-01 0.129D+00
 Coeff-Com:  0.380D+00 0.482D+00
 Coeff:      0.141D-03-0.288D-02-0.101D-02-0.340D-03 0.133D-01 0.129D+00
 Coeff:      0.380D+00 0.482D+00
 Gap=     0.170 Goal=   None    Shift=    0.000
 RMSDP=9.40D-07 MaxDP=2.40D-05 DE=-3.31D-08 OVMax= 5.79D-05

 Cycle   9  Pass 1  IDiag  1:
 E= -268.372995283955     Delta-E=       -0.000000009986 Rises=F Damp=F
 DIIS: error= 2.68D-06 at cycle   9 NSaved=   9.
 NSaved= 9 IEnMin= 9 EnMin= -268.372995283955     IErMin= 9 ErrMin= 2.68D-06
 ErrMax= 2.68D-06  0.00D+00 EMaxC= 1.00D-01 BMatC= 4.95D-10 BMatP= 1.18D-08
 IDIUse=1 WtCom= 1.00D+00 WtEn= 0.00D+00
 Coeff-Com:  0.429D-04-0.657D-03 0.121D-03-0.263D-02-0.217D-02 0.951D-02
 Coeff-Com:  0.803D-01 0.213D+00 0.702D+00
 Coeff:      0.429D-04-0.657D-03 0.121D-03-0.263D-02-0.217D-02 0.951D-02
 Coeff:      0.803D-01 0.213D+00 0.702D+00
 Gap=     0.170 Goal=   None    Shift=    0.000
 RMSDP=1.86D-07 MaxDP=3.86D-06 DE=-9.99D-09 OVMax= 9.00D-06

 Cycle  10  Pass 1  IDiag  1:
 E= -268.372995284461     Delta-E=       -0.000000000506 Rises=F Damp=F
 DIIS: error= 3.06D-07 at cycle  10 NSaved=  10.
 NSaved=10 IEnMin=10 EnMin= -268.372995284461     IErMin=10 ErrMin= 3.06D-07
 ErrMax= 3.06D-07  0.00D+00 EMaxC= 1.00D-01 BMatC= 1.40D-11 BMatP= 4.95D-10
 IDIUse=1 WtCom= 1.00D+00 WtEn= 0.00D+00
 Coeff-Com:  0.126D-05 0.660D-04 0.119D-03-0.630D-03-0.175D-02-0.871D-02
 Coeff-Com: -0.128D-01 0.133D-01 0.174D+00 0.837D+00
 Coeff:      0.126D-05 0.660D-04 0.119D-03-0.630D-03-0.175D-02-0.871D-02
 Coeff:     -0.128D-01 0.133D-01 0.174D+00 0.837D+00
 Gap=     0.170 Goal=   None    Shift=    0.000
 RMSDP=6.57D-08 MaxDP=1.20D-06 DE=-5.06D-10 OVMax= 3.69D-06

 Cycle  11  Pass 1  IDiag  1:
 E= -268.372995284484     Delta-E=       -0.000000000023 Rises=F Damp=F
 DIIS: error= 8.96D-08 at cycle  11 NSaved=  11.
 NSaved=11 IEnMin=11 EnMin= -268.372995284484     IErMin=11 ErrMin= 8.96D-08
 ErrMax= 8.96D-08  0.00D+00 EMaxC= 1.00D-01 BMatC= 5.21D-13 BMatP= 1.40D-11
 IDIUse=1 WtCom= 1.00D+00 WtEn= 0.00D+00
 Coeff-Com: -0.130D-05 0.356D-04 0.159D-04-0.383D-04-0.266D-03-0.215D-02
 Coeff-Com: -0.583D-02-0.617D-02 0.997D-02 0.161D+00 0.844D+00
 Coeff:     -0.130D-05 0.356D-04 0.159D-04-0.383D-04-0.266D-03-0.215D-02
 Coeff:     -0.583D-02-0.617D-02 0.997D-02 0.161D+00 0.844D+00
 Gap=     0.170 Goal=   None    Shift=    0.000
 RMSDP=1.15D-08 MaxDP=1.47D-07 DE=-2.34D-11 OVMax= 1.05D-06

 Cycle  12  Pass 1  IDiag  1:
 E= -268.372995284482     Delta-E=        0.000000000002 Rises=F Damp=F
 DIIS: error= 2.74D-08 at cycle  12 NSaved=  12.
 NSaved=12 IEnMin=11 EnMin= -268.372995284484     IErMin=12 ErrMin= 2.74D-08
 ErrMax= 2.74D-08  0.00D+00 EMaxC= 1.00D-01 BMatC= 1.34D-13 BMatP= 5.21D-13
 IDIUse=1 WtCom= 1.00D+00 WtEn= 0.00D+00
 Coeff-Com: -0.679D-06 0.951D-05-0.594D-05 0.520D-04 0.680D-04-0.263D-04
 Coeff-Com: -0.119D-02-0.375D-02-0.125D-01-0.125D-01 0.340D+00 0.690D+00
 Coeff:     -0.679D-06 0.951D-05-0.594D-05 0.520D-04 0.680D-04-0.263D-04
 Coeff:     -0.119D-02-0.375D-02-0.125D-01-0.125D-01 0.340D+00 0.690D+00
 Gap=     0.170 Goal=   None    Shift=    0.000
 RMSDP=3.97D-09 MaxDP=7.18D-08 DE= 2.16D-12 OVMax= 3.19D-07

 SCF Done:  E(RB3LYP) =  -268.372995284     A.U. after   12 cycles
            NFock= 12  Conv=0.40D-08     -V/T= 2.0036
 KE= 2.674048764777D+02 PE=-9.516618099263D+02 EE= 2.543994781256D+02
 Leave Link  502 at Tue Oct 15 20:23:35 2019, MaxMem=   280000000 cpu:              50.6 elap:               2.7
 (Enter /home/soft/g16/l701.exe)
 ... and contract with generalized density number  0.
 Compute integral first derivatives.
 Leave Link  701 at Tue Oct 15 20:23:35 2019, MaxMem=   280000000 cpu:               2.7 elap:               0.1
 (Enter /home/soft/g16/l702.exe)
 L702 exits ... SP integral derivatives will be done elsewhere.
 Leave Link  702 at Tue Oct 15 20:23:35 2019, MaxMem=   280000000 cpu:               0.8 elap:               0.1
 (Enter /home/soft/g16/l703.exe)
 Integral derivatives from FoFJK, PRISM(SPDF).
 Compute integral first derivatives, UseDBF=F ICtDFT=           0.
 Calling FoFJK, ICntrl=      2127 FMM=F ISym2X=0 I1Cent= 0 IOpClX= 0 NMat=1 NMatS=1 NMatT=0.
 FoFJK:  IHMeth= 1 ICntrl=    2127 DoSepK=F KAlg= 0 I1Cent=           0 FoldK=F
 IRaf=         0 NMat=       1 IRICut=       1 DoRegI=T DoRafI=F ISym2E= 0 IDoP0=0 IntGTp=1.
 FoFCou: FMM=F IPFlag=           0 FMFlag=      100000 FMFlg1=         800
         NFxFlg=           0 DoJE=F BraDBF=F KetDBF=F FulRan=T
         wScrn=  0.000000 ICntrl=      2127 IOpCl=  0 I1Cent=           0 NGrid=           0
         NMat0=    1 NMatS0=      1 NMatT0=    0 NMatD0=    1 NMtDS0=    0 NMtDT0=    0
 Symmetry not used in FoFCou.
 Leave Link  703 at Tue Oct 15 20:23:36 2019, MaxMem=   280000000 cpu:              13.5 elap:               0.6
 (Enter /home/soft/g16/l716.exe)
 Dipole        =-3.31926900D-01 1.25577476D+00 2.38326597D-01
 ***** Axes restored to original set *****
 -------------------------------------------------------------------
 Center     Atomic                   Forces (Hartrees/Bohr)
 Number     Number              X              Y              Z
 -------------------------------------------------------------------
      1        6           0.004602847    0.016065850   -0.007799009
      2        1          -0.007013134    0.015604913   -0.018744847
      3        1          -0.004340070   -0.001371265   -0.000129512
      4        6           0.018688222   -0.026633956    0.005182031
      5        1           0.004552301    0.007541419   -0.001340541
      6        8          -0.028685130    0.005893853   -0.001410441
      7        1           0.001876649   -0.004406509   -0.000763501
      8        6           0.055269001    0.005760019    0.014317854
      9        1          -0.006446853   -0.008986905   -0.002903008
     10        1          -0.005955644   -0.002062916    0.014955207
     11        8          -0.032548189   -0.007404504   -0.001364233
 -------------------------------------------------------------------
 Cartesian Forces:  Max     0.055269001 RMS     0.015429137
 Leave Link  716 at Tue Oct 15 20:23:36 2019, MaxMem=   280000000 cpu:               1.0 elap:               0.1
 (Enter /home/soft/g16/l103.exe)

 GradGradGradGradGradGradGradGradGradGradGradGradGradGradGradGradGradGrad
 Berny optimization.
 Using GEDIIS/GDIIS optimizer.
 FormGI is forming the generalized inverse of G from B-inverse, IUseBI=4.
 GSVD:  received Info=                   1 from GESDD.
 Internal  Forces:  Max     0.033304263 RMS     0.009370909
 Search for a local minimum.
 Step number   2 out of a maximum of   47
 All quantities printed in internal units (Hartrees-Bohrs-Radians)
 RMS Force = .93709D-02 SwitMx=.10000D-02 MixMth= 1
 Mixed Optimization -- RFO/linear search
 Update second derivatives using D2CorX and points    1    2
 DE= -1.68D-02 DEPred=-2.20D-02 R= 7.63D-01
 TightC=F SS=  1.41D+00  RLast= 3.23D-01 DXNew= 5.0454D-01 9.6808D-01
 Trust test= 7.63D-01 RLast= 3.23D-01 DXMaxT set to 5.05D-01
 ITU=  1  0
 Use linear search instead of GDIIS.
 Linear search step of   0.600 exceeds DXMaxT=   0.505 but not scaled.
 Quartic linear search produced a step of  2.00000.
 Iteration  1 RMS(Cart)=  0.33239860 RMS(Int)=  0.03509174
 Iteration  2 RMS(Cart)=  0.04630881 RMS(Int)=  0.00099985
 Iteration  3 RMS(Cart)=  0.00056032 RMS(Int)=  0.00081548
 Iteration  4 RMS(Cart)=  0.00000043 RMS(Int)=  0.00081548
 ITry= 1 IFail=0 DXMaxC= 1.21D+00 DCOld= 1.00D+10 DXMaxT= 5.05D-01 DXLimC= 3.00D+00 Rises=F
 Variable       Old X    -DE/DX   Delta X   Delta X   Delta X     New X
                                 (Linear)    (Quad)   (Total)
    R1        2.06180  -0.00002   0.07958   0.00000   0.07958   2.14138
    R2        2.03676   0.00432   0.02950   0.00000   0.02950   2.06626
    R3        2.54883  -0.01722  -0.02426   0.00000  -0.02426   2.52457
    R4        3.53334   0.01711   0.32708   0.00000   0.32707   3.86042
    R5        3.22856   0.01402   0.25799   0.00000   0.25782   3.48638
    R6        2.03513   0.00424   0.02624   0.00000   0.02624   2.06137
    R7        2.63375  -0.02642  -0.13711   0.00000  -0.13711   2.49665
    R8        1.82462   0.00387   0.02097   0.00000   0.02097   1.84560
    R9        2.05481   0.01074   0.06562   0.00000   0.06562   2.12043
   R10        2.04238   0.00659   0.04075   0.00000   0.04105   2.08343
   R11        2.33152  -0.03330  -0.09302   0.00000  -0.09302   2.23850
    A1        2.04132   0.00388  -0.10615   0.00000  -0.10626   1.93506
    A2        2.17838  -0.01059   0.16798   0.00000   0.16786   2.34624
    A3        2.06341   0.00673  -0.06198   0.00000  -0.06210   2.00130
    A4        2.46271   0.00300   0.08548   0.00000   0.08333   2.54603
    A5        1.91569   0.00484   0.09372   0.00000   0.09559   2.01128
    A6        2.09284   0.00650  -0.00311   0.00000  -0.00329   2.08955
    A7        2.19608   0.00288   0.20337   0.00000   0.20322   2.39930
    A8        1.99416  -0.00936  -0.20048   0.00000  -0.20062   1.79354
    A9        1.92239  -0.00034   0.02351   0.00000   0.02351   1.94590
   A10        1.68718  -0.00053  -0.01756   0.00000  -0.01796   1.66922
   A11        1.88682  -0.00585   0.01844   0.00000   0.01886   1.90567
   A12        2.08979  -0.00511  -0.00526   0.00000  -0.00433   2.08546
   A13        2.08695   0.00277  -0.02281   0.00000  -0.02277   2.06418
   A14        2.10642   0.00228   0.02800   0.00000   0.02679   2.13321
    D1       -1.97628  -0.00194   0.06943   0.00000   0.06817  -1.90811
    D2       -1.64134   0.00113  -0.01301   0.00000  -0.01141  -1.65275
    D3        1.17875  -0.00288   0.09629   0.00000   0.09470   1.27344
    D4        1.51369   0.00019   0.01386   0.00000   0.01512   1.52880
    D5        3.12829   0.00066  -0.02661   0.00000  -0.02726   3.10103
    D6        0.00353  -0.00012   0.00704   0.00000   0.00737   0.01089
    D7        0.00028  -0.00027   0.00056   0.00000   0.00024   0.00052
    D8       -3.12448  -0.00105   0.03422   0.00000   0.03487  -3.08961
    D9        2.66475   0.00008  -0.12664   0.00000  -0.12742   2.53733
   D10       -1.45202   0.00079  -0.15356   0.00000  -0.15467  -1.60669
   D11       -0.33310   0.00294  -0.03367   0.00000  -0.03258  -0.36568
   D12        2.82449   0.00207  -0.00167   0.00000  -0.00277   2.82172
         Item               Value     Threshold  Converged?
 Maximum Force            0.033304     0.000450     NO 
 RMS     Force            0.009371     0.000300     NO 
 Maximum Displacement     1.207592     0.001800     NO 
 RMS     Displacement     0.362079     0.001200     NO 
 Predicted change in Energy=-2.373823D-02
 Lowest energy point so far.  Saving SCF results.
 GradGradGradGradGradGradGradGradGradGradGradGradGradGradGradGradGradGrad

 Leave Link  103 at Tue Oct 15 20:23:36 2019, MaxMem=   280000000 cpu:               2.6 elap:               0.1
 (Enter /home/soft/g16/l202.exe)
                          Input orientation:                          
 ---------------------------------------------------------------------
 Center     Atomic      Atomic             Coordinates (Angstroms)
 Number     Number       Type             X           Y           Z
 ---------------------------------------------------------------------
      1          6           0       -3.907677    1.476205   -0.032954
      2          1           0       -3.491813    0.446578    0.192874
      3          1           0       -4.987499    1.432324   -0.199161
      4          6           0       -3.370813    2.691385   -0.173885
      5          1           0       -4.008194    3.537298   -0.434807
      6          8           0       -2.167658    3.235365   -0.129243
      7          1           0       -1.539451    2.674372    0.365212
      8          6           0       -2.692504   -0.779141    1.618332
      9          1           0       -3.160607   -1.721481    1.228529
     10          1           0       -3.337944    0.036041    1.984935
     11          8           0       -1.511778   -0.687239    1.593200
 ---------------------------------------------------------------------
                    Distance matrix (angstroms):
                    1          2          3          4          5
     1  C    0.000000
     2  H    1.133170   0.000000
     3  H    1.093419   1.833703   0.000000
     4  C    1.335945   2.277787   2.049280   0.000000
     5  H    2.102307   3.195808   2.333556   1.090828   0.000000
     6  O    2.476203   3.103946   3.347738   1.321169   1.890002
     7  H    2.683773   2.967235   3.708131   1.909136   2.734843
     8  C    3.047946   2.042844   3.668905   3.964429   4.957627
     9  H    3.517761   2.425439   3.914374   4.635120   5.580309
    10  H    2.543725   1.844911   3.072607   3.422343   4.308501
    11  O    3.614581   2.677123   4.448117   4.241898   5.309578
                    6          7          8          9         10
     6  O    0.000000
     7  H    0.976649   0.000000
     8  C    4.409732   3.850532   0.000000
     9  H    5.234483   4.764136   1.122084   0.000000
    10  H    4.009363   3.580345   1.102503   1.921583   0.000000
    11  O    4.334029   3.578987   1.184563   1.980222   2.002866
                   11
    11  O    0.000000
 Stoichiometry    C3H6O2
 Framework group  C1[X(C3H6O2)]
 Deg. of freedom    27
 Full point group                 C1      NOp   1
 RotChk:  IX=0 Diff= 1.46D-01
 Largest Abelian subgroup         C1      NOp   1
 Largest concise Abelian subgroup C1      NOp   1
                         Standard orientation:                         
 ---------------------------------------------------------------------
 Center     Atomic      Atomic             Coordinates (Angstroms)
 Number     Number       Type             X           Y           Z
 ---------------------------------------------------------------------
      1          6           0        0.749722    1.112211   -0.147433
      2          1           0       -0.336965    0.970555   -0.435735
      3          1           0        0.989677    2.173794   -0.042414
      4          6           0        1.780806    0.285551    0.048129
      5          1           0        2.762643    0.693755    0.291588
      6          8           0        2.011030   -1.014160   -0.008765
      7          1           0        1.183606   -1.527694    0.065367
      8          6           0       -2.181117    0.341167    0.177605
      9          1           0       -2.758468    1.105597   -0.406676
     10          1           0       -1.491773    0.672222    0.971784
     11          8           0       -2.316678   -0.801065   -0.105449
 ---------------------------------------------------------------------
 Rotational constants (GHZ):           8.9967952           1.8390854           1.5479326
 Leave Link  202 at Tue Oct 15 20:23:36 2019, MaxMem=   280000000 cpu:               1.0 elap:               0.1
 (Enter /home/soft/g16/l301.exe)
 Standard basis: 6-311+G(d) (5D, 7F)
 Ernie: Thresh=  0.10000D-02 Tol=  0.10000D-05 Strict=F.
 There are   133 symmetry adapted cartesian basis functions of A   symmetry.
 There are   128 symmetry adapted basis functions of A   symmetry.
   128 basis functions,   210 primitive gaussians,   133 cartesian basis functions
    20 alpha electrons       20 beta electrons
       nuclear repulsion energy       154.6975699234 Hartrees.
 IExCor=  402 DFT=T Ex+Corr=B3LYP ExCW=0 ScaHFX=  0.200000
 ScaDFX=  0.800000  0.720000  1.000000  0.810000 ScalE2=  1.000000  1.000000
 IRadAn=      5 IRanWt=     -1 IRanGd=            0 ICorTp=0 IEmpDi=  4
 NAtoms=   11 NActive=   11 NUniq=   11 SFac= 1.00D+00 NAtFMM=   60 NAOKFM=F Big=F
 Integral buffers will be    131072 words long.
 Raffenetti 2 integral format.
 Two-electron integral symmetry is turned on.
 Leave Link  301 at Tue Oct 15 20:23:36 2019, MaxMem=   280000000 cpu:               1.5 elap:               0.1
 (Enter /home/soft/g16/l302.exe)
 NPDir=0 NMtPBC=     1 NCelOv=     1 NCel=       1 NClECP=     1 NCelD=      1
         NCelK=      1 NCelE2=     1 NClLst=     1 CellRange=     0.0.
 One-electron integrals computed using PRISM.
 One-electron integral symmetry used in STVInt
 NBasis=   128 RedAO= T EigKep=  7.39D-05  NBF=   128
 NBsUse=   128 1.00D-06 EigRej= -1.00D+00 NBFU=   128
 Precomputing XC quadrature grid using
 IXCGrd= 4 IRadAn=           5 IRanWt=          -1 IRanGd=           0 AccXCQ= 0.00D+00.
 Generated NRdTot=       0 NPtTot=           0 NUsed=           0 NTot=          32
 NSgBfM=   133   133   133   133   133 MxSgAt=    11 MxSgA2=    11.
 Leave Link  302 at Tue Oct 15 20:23:37 2019, MaxMem=   280000000 cpu:               4.1 elap:               0.2
 (Enter /home/soft/g16/l303.exe)
 DipDrv:  MaxL=1.
 Leave Link  303 at Tue Oct 15 20:23:37 2019, MaxMem=   280000000 cpu:               1.1 elap:               0.1
 (Enter /home/soft/g16/l401.exe)
 Initial guess from the checkpoint file:  "R2.chk"
 B after Tr=    -0.000000   -0.000000    0.000000
         Rot=    0.999165   -0.001178    0.000871   -0.040842 Ang=  -4.68 deg.
 Guess basis will be translated and rotated to current coordinates.
 JPrj=2 DoOrth=T DoCkMO=T.
 Generating alternative initial guess.
 ExpMin= 4.38D-02 ExpMax= 8.59D+03 ExpMxC= 1.30D+03 IAcc=2 IRadAn=         4 AccDes= 0.00D+00
 Harris functional with IExCor=  402 and IRadAn=       4 diagonalized for initial guess.
 HarFok:  IExCor=  402 AccDes= 0.00D+00 IRadAn=         4 IDoV= 1 UseB2=F ITyADJ=14
 ICtDFT=  3500011 ScaDFX=  1.000000  1.000000  1.000000  1.000000
 FoFCou: FMM=F IPFlag=           0 FMFlag=      100000 FMFlg1=           0
         NFxFlg=           0 DoJE=T BraDBF=F KetDBF=T FulRan=T
         wScrn=  0.000000 ICntrl=       500 IOpCl=  0 I1Cent=   200000004 NGrid=           0
         NMat0=    1 NMatS0=      1 NMatT0=    0 NMatD0=    1 NMtDS0=    0 NMtDT0=    0
 Petite list used in FoFCou.
 Harris En= -268.411464490573    
 Leave Link  401 at Tue Oct 15 20:23:37 2019, MaxMem=   280000000 cpu:               5.9 elap:               0.3
 (Enter /home/soft/g16/l502.exe)
 Keep R1 ints in memory in canonical form, NReq=57089853.
 FoFCou: FMM=F IPFlag=           0 FMFlag=           0 FMFlg1=           0
         NFxFlg=           0 DoJE=F BraDBF=F KetDBF=F FulRan=T
         wScrn=  0.000000 ICntrl=       600 IOpCl=  0 I1Cent=           0 NGrid=           0
         NMat0=    1 NMatS0=   8256 NMatT0=    0 NMatD0=    1 NMtDS0=    0 NMtDT0=    0
 Symmetry not used in FoFCou.
 Two-electron integral symmetry not used.
 Closed shell SCF:
 Using DIIS extrapolation, IDIIS=  1040.
 NGot=   280000000 LenX=   245875047 LenY=   245856917
 Requested convergence on RMS density matrix=1.00D-08 within 128 cycles.
 Requested convergence on MAX density matrix=1.00D-06.
 Requested convergence on             energy=1.00D-06.
 No special actions if energy rises.

 Cycle   1  Pass 1  IDiag  1:
 E= -268.277180238809    
 DIIS: error= 1.77D-02 at cycle   1 NSaved=   1.
 NSaved= 1 IEnMin= 1 EnMin= -268.277180238809     IErMin= 1 ErrMin= 1.77D-02
 ErrMax= 1.77D-02  0.00D+00 EMaxC= 1.00D-01 BMatC= 6.43D-02 BMatP= 6.43D-02
 IDIUse=3 WtCom= 8.23D-01 WtEn= 1.77D-01
 Coeff-Com:  0.100D+01
 Coeff-En:   0.100D+01
 Coeff:      0.100D+01
 Recover alternate guess density for next cycle.
 RMSDP=3.84D-03 MaxDP=6.07D-02              OVMax= 0.00D+00

 Cycle   2  Pass 1  IDiag  1:
 E= -268.203143295763     Delta-E=        0.074036943045 Rises=F Damp=F
 Switch densities from cycles 1 and 2 for lowest energy.
 DIIS: error= 3.13D-02 at cycle   2 NSaved=   2.
 NSaved= 2 IEnMin= 1 EnMin= -268.277180238809     IErMin= 1 ErrMin= 1.77D-02
 ErrMax= 3.13D-02  0.00D+00 EMaxC= 1.00D+00 BMatC= 2.12D-01 BMatP= 6.43D-02
 IDIUse=1 WtCom= 1.00D+00 WtEn= 0.00D+00
 Coeff-Com:  0.783D+00 0.217D+00
 Coeff:      0.783D+00 0.217D+00
 Gap=     0.174 Goal=   None    Shift=    0.000
 RMSDP=2.91D-03 MaxDP=3.20D-02 DE= 7.40D-02 OVMax= 1.22D-01

 Cycle   3  Pass 1  IDiag  1:
 E= -268.346964472871     Delta-E=       -0.143821177108 Rises=F Damp=F
 DIIS: error= 1.55D-02 at cycle   3 NSaved=   3.
 NSaved= 3 IEnMin= 3 EnMin= -268.346964472871     IErMin= 3 ErrMin= 1.55D-02
 ErrMax= 1.55D-02  0.00D+00 EMaxC= 1.00D+00 BMatC= 3.05D-02 BMatP= 6.43D-02
 IDIUse=1 WtCom= 1.00D+00 WtEn= 0.00D+00
 Coeff-Com:  0.352D-01 0.254D+00 0.711D+00
 Coeff:      0.352D-01 0.254D+00 0.711D+00
 Gap=     0.184 Goal=   None    Shift=    0.000
 RMSDP=1.39D-03 MaxDP=2.58D-02 DE=-1.44D-01 OVMax= 5.41D-02

 Cycle   4  Pass 1  IDiag  1:
 E= -268.364612590754     Delta-E=       -0.017648117883 Rises=F Damp=F
 DIIS: error= 8.18D-03 at cycle   4 NSaved=   4.
 NSaved= 4 IEnMin= 4 EnMin= -268.364612590754     IErMin= 4 ErrMin= 8.18D-03
 ErrMax= 8.18D-03  0.00D+00 EMaxC= 1.00D+00 BMatC= 6.77D-03 BMatP= 3.05D-02
 IDIUse=1 WtCom= 1.00D+00 WtEn= 0.00D+00
 Coeff-Com: -0.161D-01 0.122D+00 0.440D+00 0.454D+00
 Coeff:     -0.161D-01 0.122D+00 0.440D+00 0.454D+00
 Gap=     0.191 Goal=   None    Shift=    0.000
 RMSDP=4.92D-04 MaxDP=8.91D-03 DE=-1.76D-02 OVMax= 2.11D-02

 Cycle   5  Pass 1  IDiag  1:
 E= -268.369629291859     Delta-E=       -0.005016701105 Rises=F Damp=F
 DIIS: error= 1.35D-03 at cycle   5 NSaved=   5.
 NSaved= 5 IEnMin= 5 EnMin= -268.369629291859     IErMin= 5 ErrMin= 1.35D-03
 ErrMax= 1.35D-03  0.00D+00 EMaxC= 1.00D+00 BMatC= 3.19D-04 BMatP= 6.77D-03
 IDIUse=1 WtCom= 1.00D+00 WtEn= 0.00D+00
 Coeff-Com: -0.984D-02 0.293D-01 0.143D+00 0.227D+00 0.611D+00
 Coeff:     -0.984D-02 0.293D-01 0.143D+00 0.227D+00 0.611D+00
 Gap=     0.187 Goal=   None    Shift=    0.000
 RMSDP=1.44D-04 MaxDP=3.60D-03 DE=-5.02D-03 OVMax= 1.01D-02

 Cycle   6  Pass 1  IDiag  1:
 E= -268.369871397463     Delta-E=       -0.000242105604 Rises=F Damp=F
 DIIS: error= 5.97D-04 at cycle   6 NSaved=   6.
 NSaved= 6 IEnMin= 6 EnMin= -268.369871397463     IErMin= 6 ErrMin= 5.97D-04
 ErrMax= 5.97D-04  0.00D+00 EMaxC= 1.00D+00 BMatC= 6.45D-05 BMatP= 3.19D-04
 IDIUse=1 WtCom= 1.00D+00 WtEn= 0.00D+00
 Coeff-Com: -0.280D-02 0.341D-02 0.386D-01 0.882D-01 0.371D+00 0.501D+00
 Coeff:     -0.280D-02 0.341D-02 0.386D-01 0.882D-01 0.371D+00 0.501D+00
 Gap=     0.187 Goal=   None    Shift=    0.000
 RMSDP=5.15D-05 MaxDP=1.46D-03 DE=-2.42D-04 OVMax= 3.90D-03

 Cycle   7  Pass 1  IDiag  1:
 E= -268.369930390378     Delta-E=       -0.000058992915 Rises=F Damp=F
 DIIS: error= 1.05D-04 at cycle   7 NSaved=   7.
 NSaved= 7 IEnMin= 7 EnMin= -268.369930390378     IErMin= 7 ErrMin= 1.05D-04
 ErrMax= 1.05D-04  0.00D+00 EMaxC= 1.00D+00 BMatC= 1.93D-06 BMatP= 6.45D-05
 IDIUse=1 WtCom= 1.00D+00 WtEn= 0.00D+00
 Coeff-Com: -0.621D-03-0.338D-03 0.782D-02 0.268D-01 0.128D+00 0.231D+00
 Coeff-Com:  0.608D+00
 Coeff:     -0.621D-03-0.338D-03 0.782D-02 0.268D-01 0.128D+00 0.231D+00
 Coeff:      0.608D+00
 Gap=     0.188 Goal=   None    Shift=    0.000
 RMSDP=1.29D-05 MaxDP=2.71D-04 DE=-5.90D-05 OVMax= 7.54D-04

 Cycle   8  Pass 1  IDiag  1:
 E= -268.369932148367     Delta-E=       -0.000001757989 Rises=F Damp=F
 DIIS: error= 3.67D-05 at cycle   8 NSaved=   8.
 NSaved= 8 IEnMin= 8 EnMin= -268.369932148367     IErMin= 8 ErrMin= 3.67D-05
 ErrMax= 3.67D-05  0.00D+00 EMaxC= 1.00D+00 BMatC= 2.12D-07 BMatP= 1.93D-06
 IDIUse=1 WtCom= 1.00D+00 WtEn= 0.00D+00
 Coeff-Com: -0.249D-03-0.325D-03 0.198D-02 0.992D-02 0.495D-01 0.998D-01
 Coeff-Com:  0.333D+00 0.506D+00
 Coeff:     -0.249D-03-0.325D-03 0.198D-02 0.992D-02 0.495D-01 0.998D-01
 Coeff:      0.333D+00 0.506D+00
 Gap=     0.188 Goal=   None    Shift=    0.000
 RMSDP=3.83D-06 MaxDP=6.28D-05 DE=-1.76D-06 OVMax= 1.57D-04

 Cycle   9  Pass 1  IDiag  1:
 E= -268.369932299473     Delta-E=       -0.000000151106 Rises=F Damp=F
 DIIS: error= 1.31D-05 at cycle   9 NSaved=   9.
 NSaved= 9 IEnMin= 9 EnMin= -268.369932299473     IErMin= 9 ErrMin= 1.31D-05
 ErrMax= 1.31D-05  0.00D+00 EMaxC= 1.00D+00 BMatC= 2.46D-08 BMatP= 2.12D-07
 IDIUse=1 WtCom= 1.00D+00 WtEn= 0.00D+00
 Coeff-Com: -0.324D-04-0.126D-03-0.761D-04 0.151D-02 0.824D-02 0.193D-01
 Coeff-Com:  0.880D-01 0.282D+00 0.602D+00
 Coeff:     -0.324D-04-0.126D-03-0.761D-04 0.151D-02 0.824D-02 0.193D-01
 Coeff:      0.880D-01 0.282D+00 0.602D+00
 Gap=     0.188 Goal=   None    Shift=    0.000
 RMSDP=1.25D-06 MaxDP=2.73D-05 DE=-1.51D-07 OVMax= 4.82D-05

 Cycle  10  Pass 1  IDiag  1:
 E= -268.369932317010     Delta-E=       -0.000000017538 Rises=F Damp=F
 DIIS: error= 3.24D-06 at cycle  10 NSaved=  10.
 NSaved=10 IEnMin=10 EnMin= -268.369932317010     IErMin=10 ErrMin= 3.24D-06
 ErrMax= 3.24D-06  0.00D+00 EMaxC= 1.00D+00 BMatC= 2.18D-09 BMatP= 2.46D-08
 IDIUse=1 WtCom= 1.00D+00 WtEn= 0.00D+00
 Coeff-Com:  0.143D-04-0.229D-04-0.311D-03-0.531D-03-0.204D-02-0.315D-02
 Coeff-Com:  0.142D-02 0.698D-01 0.291D+00 0.644D+00
 Coeff:      0.143D-04-0.229D-04-0.311D-03-0.531D-03-0.204D-02-0.315D-02
 Coeff:      0.142D-02 0.698D-01 0.291D+00 0.644D+00
 Gap=     0.188 Goal=   None    Shift=    0.000
 RMSDP=3.41D-07 MaxDP=1.08D-05 DE=-1.75D-08 OVMax= 1.64D-05

 Cycle  11  Pass 1  IDiag  1:
 E= -268.369932319143     Delta-E=       -0.000000002133 Rises=F Damp=F
 DIIS: error= 4.92D-07 at cycle  11 NSaved=  11.
 NSaved=11 IEnMin=11 EnMin= -268.369932319143     IErMin=11 ErrMin= 4.92D-07
 ErrMax= 4.92D-07  0.00D+00 EMaxC= 1.00D+00 BMatC= 4.77D-11 BMatP= 2.18D-09
 IDIUse=1 WtCom= 1.00D+00 WtEn= 0.00D+00
 Coeff-Com:  0.520D-05 0.307D-05-0.596D-04-0.230D-03-0.988D-03-0.216D-02
 Coeff-Com: -0.556D-02-0.363D-02 0.274D-01 0.147D+00 0.838D+00
 Coeff:      0.520D-05 0.307D-05-0.596D-04-0.230D-03-0.988D-03-0.216D-02
 Coeff:     -0.556D-02-0.363D-02 0.274D-01 0.147D+00 0.838D+00
 Gap=     0.188 Goal=   None    Shift=    0.000
 RMSDP=1.08D-07 MaxDP=1.89D-06 DE=-2.13D-09 OVMax= 7.12D-06

 Cycle  12  Pass 1  IDiag  1:
 E= -268.369932319221     Delta-E=       -0.000000000078 Rises=F Damp=F
 DIIS: error= 1.59D-07 at cycle  12 NSaved=  12.
 NSaved=12 IEnMin=12 EnMin= -268.369932319221     IErMin=12 ErrMin= 1.59D-07
 ErrMax= 1.59D-07  0.00D+00 EMaxC= 1.00D+00 BMatC= 2.01D-12 BMatP= 4.77D-11
 IDIUse=1 WtCom= 1.00D+00 WtEn= 0.00D+00
[...]
 EnCoef did   100 forward-backward iterations
 IWarn =    2
 Energies =   -268.400640404      -268.400668361      -268.400643275      -268.400698172      -268.400640787    
 Point number   1 has energy  -0.2684006404D+03 and has been removed
 EnCoef did   100 forward-backward iterations
 IWarn =    2
 Energies =   -268.400668361      -268.400643275      -268.400698172      -268.400640787    
 Point number   2 has energy  -0.2684006433D+03 and has been removed
 EnCoef did   100 forward-backward iterations
 IWarn =    2
 Energies =   -268.400668361      -268.400698172      -268.400640787    
 Point number   1 has energy  -0.2684006684D+03 and has been removed
 IWarn =    0
 DidBck=T Rises=T En-DIIS coefs:    0.13643    0.86357    0.00000    0.00000    0.00000
                  En-DIIS coefs:    0.00000    0.00000    0.00000    0.00000    0.00000
 Iteration  1 RMS(Cart)=  0.07745927 RMS(Int)=  0.02675227
 Iteration  2 RMS(Cart)=  0.03643802 RMS(Int)=  0.00220097
 Iteration  3 RMS(Cart)=  0.00206815 RMS(Int)=  0.00037447
 Iteration  4 RMS(Cart)=  0.00000271 RMS(Int)=  0.00037445
 Iteration  5 RMS(Cart)=  0.00000000 RMS(Int)=  0.00037445
 ITry= 1 IFail=0 DXMaxC= 3.68D-01 DCOld= 1.00D+10 DXMaxT= 3.69D-01 DXLimC= 3.00D+00 Rises=F
 Variable       Old X    -DE/DX   Delta X   Delta X   Delta X     New X
                                 (Linear)    (Quad)   (Total)
    R1        2.05142  -0.00054   0.00008   0.00028   0.00036   2.05178
    R2        2.04548  -0.00000   0.00006  -0.00015  -0.00009   2.04539
    R3        2.52149  -0.00043  -0.00020  -0.00009  -0.00029   2.52120
    R4        7.56954  -0.00148   0.08482   0.10929   0.19421   7.76375
    R5        8.01493   0.00134   0.16332   0.19754   0.36070   8.37562
    R6        2.05097  -0.00002   0.00000   0.00007   0.00007   2.05104
    R7        2.56328   0.00027   0.00034   0.00013   0.00047   2.56375
    R8        1.84043   0.00005   0.00003   0.00011   0.00014   1.84057
    R9        2.08731   0.00001   0.00009   0.00007   0.00016   2.08748
   R10        2.08827  -0.00056   0.00017  -0.00143  -0.00101   2.08726
   R11        2.27911   0.00004   0.00014   0.00019   0.00033   2.27945
    A1        2.05189   0.00093   0.00006   0.00078   0.00084   2.05273
    A2        2.14050  -0.00186  -0.00012  -0.00226  -0.00239   2.13811
    A3        2.09076   0.00093   0.00006   0.00146   0.00152   2.09228
    A4        1.99789  -0.00106  -0.02354  -0.02488  -0.04992   1.94797
    A5        1.76377  -0.00146  -0.02558  -0.02916  -0.05323   1.71054
    A6        2.13153   0.00062   0.00042   0.00107   0.00149   2.13302
    A7        2.22488  -0.00112  -0.00068  -0.00190  -0.00258   2.22229
    A8        1.92678   0.00051   0.00027   0.00083   0.00109   1.92787
    A9        1.94367  -0.00057  -0.00143  -0.00262  -0.00406   1.93961
   A10        2.33878   0.00144  -0.01126  -0.00869  -0.02008   2.31869
   A11        0.71964   0.00140  -0.03541  -0.06145  -0.09684   0.62279
   A12        2.04077   0.00095   0.00178   0.00076   0.00246   2.04323
   A13        2.11909   0.00001  -0.00246   0.00024  -0.00213   2.11696
   A14        2.12310  -0.00079   0.00087  -0.00106  -0.00012   2.12298
    D1       -2.69249   0.00068  -0.00298  -0.01238  -0.01499  -2.70748
    D2       -2.56700  -0.00055  -0.02489  -0.04055  -0.06581  -2.63282
    D3        0.45797   0.00060  -0.00271  -0.00935  -0.01168   0.44629
    D4        0.58346  -0.00062  -0.02462  -0.03751  -0.06251   0.52096
    D5        3.13534   0.00013  -0.00046  -0.00330  -0.00376   3.13158
    D6       -0.00678   0.00014   0.00031  -0.00454  -0.00423  -0.01101
    D7        0.00281   0.00005  -0.00019  -0.00019  -0.00038   0.00243
    D8       -3.13931   0.00006   0.00058  -0.00143  -0.00084  -3.14015
    D9        2.85411   0.00066  -0.02589  -0.04082  -0.06662   2.78750
   D10       -1.86081   0.00040  -0.05132  -0.08999  -0.14132  -2.00213
   D11       -0.00513   0.00019  -0.00188  -0.01454  -0.01643  -0.02156
   D12        3.13599   0.00019  -0.00119  -0.01566  -0.01684   3.11914
         Item               Value     Threshold  Converged?
 Maximum Force            0.001856     0.000450     NO 
 RMS     Force            0.000793     0.000300     NO 
 Maximum Displacement     0.367501     0.001800     NO 
 RMS     Displacement     0.096069     0.001200     NO 
 Predicted change in Energy=-7.164366D-05
 Optimization stopped.
    -- Number of steps exceeded,  NStep=  47
    -- Flag reset to prevent archiving.
                           ----------------------------
                           ! Non-Optimized Parameters !
                           ! (Angstroms and Degrees)  !
 --------------------------                            --------------------------
 ! Name  Definition              Value          Derivative Info.                !
 --------------------------------------------------------------------------------
 ! R1    R(1,2)                  1.0858         -DE/DX =   -0.0005              !
 ! R2    R(1,3)                  1.0824         -DE/DX =    0.0                 !
 ! R3    R(1,4)                  1.3342         -DE/DX =   -0.0004              !
 ! R4    R(2,8)                  4.1084         -DE/DX =   -0.0015              !
 ! R5    R(2,10)                 4.4322         -DE/DX =    0.0013              !
 ! R6    R(4,5)                  1.0854         -DE/DX =    0.0                 !
 ! R7    R(4,6)                  1.3567         -DE/DX =    0.0003              !
 ! R8    R(6,7)                  0.974          -DE/DX =    0.0                 !
 ! R9    R(8,9)                  1.1046         -DE/DX =    0.0                 !
 ! R10   R(8,10)                 1.1045         -DE/DX =   -0.0006              !
 ! R11   R(8,11)                 1.2062         -DE/DX =    0.0                 !
 ! A1    A(2,1,3)              117.6126         -DE/DX =    0.0009              !
 ! A2    A(2,1,4)              122.5047         -DE/DX =   -0.0019              !
 ! A3    A(3,1,4)              119.879          -DE/DX =    0.0009              !
 ! A4    A(1,2,8)              111.6107         -DE/DX =   -0.0011              !
 ! A5    A(1,2,10)              98.0067         -DE/DX =   -0.0015              !
 ! A6    A(1,4,5)              122.2128         -DE/DX =    0.0006              !
 ! A7    A(1,4,6)              127.328          -DE/DX =   -0.0011              !
 ! A8    A(5,4,6)              110.4591         -DE/DX =    0.0005              !
 ! A9    A(4,6,7)              111.1315         -DE/DX =   -0.0006              !
 ! A10   A(2,8,9)              132.8514         -DE/DX =    0.0014              !
 ! A11   A(2,8,11)              35.6833         -DE/DX =    0.0014              !
 ! A12   A(9,8,10)             117.0687         -DE/DX =    0.0009              !
 ! A13   A(9,8,11)             121.2931         -DE/DX =    0.0                 !
 ! A14   A(10,8,11)            121.6379         -DE/DX =   -0.0008              !
 ! D1    D(3,1,2,8)           -155.1273         -DE/DX =    0.0007              !
 ! D2    D(3,1,2,10)          -150.8492         -DE/DX =   -0.0006              !
 ! D3    D(4,1,2,8)             25.5706         -DE/DX =    0.0006              !
 ! D4    D(4,1,2,10)            29.8486         -DE/DX =   -0.0006              !
 ! D5    D(2,1,4,5)            179.4262         -DE/DX =    0.0001              !
 ! D6    D(2,1,4,6)             -0.6306         -DE/DX =    0.0001              !
 ! D7    D(3,1,4,5)              0.1394         -DE/DX =    0.0001              !
 ! D8    D(3,1,4,6)           -179.9174         -DE/DX =    0.0001              !
 ! D9    D(1,2,8,9)            159.7118         -DE/DX =    0.0007              !
 ! D10   D(1,2,8,11)          -114.7136         -DE/DX =    0.0004              !
 ! D11   D(1,4,6,7)             -1.2351         -DE/DX =    0.0002              !
 ! D12   D(5,4,6,7)            178.7136         -DE/DX =    0.0002              !
 --------------------------------------------------------------------------------
 Largest change from initial coordinates is atom   10       1.104 Angstoms.
 GradGradGradGradGradGradGradGradGradGradGradGradGradGradGradGradGradGrad

 Leave Link  103 at Tue Oct 15 20:26:52 2019, MaxMem=   280000000 cpu:              10.7 elap:               0.5
 (Enter /home/soft/g16/l202.exe)
                          Input orientation:                          
 ---------------------------------------------------------------------
 Center     Atomic      Atomic             Coordinates (Angstroms)
 Number     Number       Type             X           Y           Z
 ---------------------------------------------------------------------
      1          6           0       -4.425057    1.976314   -0.736334
      2          1           0       -4.288069    0.906473   -0.859311
      3          1           0       -5.309731    2.421499   -1.173142
      4          6           0       -3.549033    2.743938   -0.085382
      5          1           0       -3.691516    3.813909    0.027723
      6          8           0       -2.396798    2.354389    0.515042
      7          1           0       -2.257384    1.394598    0.426310
      8          6           0       -2.060347   -0.819148    1.987537
      9          1           0       -1.906254   -1.863109    2.313807
     10          1           0       -2.327977   -0.084962    2.768892
     11          8           0       -1.963772   -0.502195    0.827889
 ---------------------------------------------------------------------
                    Distance matrix (angstroms):
                    1          2          3          4          5
     1  C    0.000000
     2  H    1.085563   0.000000
     3  H    1.082423   1.854073   0.000000
     4  C    1.334317   2.126363   2.094575   0.000000
     5  H    2.120995   3.097722   2.449388   1.085325   0.000000
     6  O    2.413030   2.749947   3.367438   1.356430   2.010962
     7  H    2.527635   2.452502   3.595774   1.936725   2.840540
     8  C    4.563544   4.005629   5.572269   4.382781   5.288365
     9  H    5.512612   4.838626   6.488476   5.447909   6.375097
    10  H    4.575282   4.241316   5.541916   4.200063   4.957261
    11  O    3.827234   3.198960   4.873146   3.726190   4.717426
                    6          7          8          9         10
     6  O    0.000000
     7  H    0.973913   0.000000
     8  C    3.514652   2.716050   0.000000
     9  H    4.611233   3.781348   1.104558   0.000000
    10  H    3.321898   2.771601   1.105066   1.883284   0.000000
    11  O    2.906106   1.960943   1.206056   2.015774   2.018470
                   11
    11  O    0.000000
 Stoichiometry    C3H6O2
 Framework group  C1[X(C3H6O2)]
 Deg. of freedom    27
 Full point group                 C1      NOp   1
 RotChk:  IX=0 Diff= 7.25D-16
 Largest Abelian subgroup         C1      NOp   1
 Largest concise Abelian subgroup C1      NOp   1
                         Standard orientation:                         
 ---------------------------------------------------------------------
 Center     Atomic      Atomic             Coordinates (Angstroms)
 Number     Number       Type             X           Y           Z
 ---------------------------------------------------------------------
      1          6           0        1.924310    1.021398    0.073551
      2          1           0        1.095320    1.652802   -0.230672
      3          1           0        2.855946    1.508018    0.332193
      4          6           0        1.833921   -0.308770    0.127273
      5          1           0        2.669971   -0.932449    0.427231
      6          8           0        0.752877   -1.074902   -0.163049
      7          1           0       -0.008024   -0.528462   -0.429394
      8          6           0       -2.524388    0.060024    0.406384
      9          1           0       -3.548381    0.472431    0.443921
     10          1           0       -2.201646   -0.557064    1.264411
     11          8           0       -1.786158    0.293503   -0.518318
 ---------------------------------------------------------------------
 Rotational constants (GHZ):          10.2170688           1.9082297           1.7082560
 Leave Link  202 at Tue Oct 15 20:26:52 2019, MaxMem=   280000000 cpu:               1.0 elap:               0.1
 (Enter /home/soft/g16/l601.exe)
 Copying SCF densities to generalized density rwf, IOpCl= 0 IROHF=0.

 **********************************************************************

            Population analysis using the SCF density.

 **********************************************************************

 Orbital symmetries:
       Occupied  (A) (A) (A) (A) (A) (A) (A) (A) (A) (A) (A) (A)
                 (A) (A) (A) (A) (A) (A) (A) (A)
       Virtual   (A) (A) (A) (A) (A) (A) (A) (A) (A) (A) (A) (A)
                 (A) (A) (A) (A) (A) (A) (A) (A) (A) (A) (A) (A)
                 (A) (A) (A) (A) (A) (A) (A) (A) (A) (A) (A) (A)
                 (A) (A) (A) (A) (A) (A) (A) (A) (A) (A) (A) (A)
                 (A) (A) (A) (A) (A) (A) (A) (A) (A) (A) (A) (A)
                 (A) (A) (A) (A) (A) (A) (A) (A) (A) (A) (A) (A)
                 (A) (A) (A) (A) (A) (A) (A) (A) (A) (A) (A) (A)
                 (A) (A) (A) (A) (A) (A) (A) (A) (A) (A) (A) (A)
                 (A) (A) (A) (A) (A) (A) (A) (A) (A) (A) (A) (A)
 The electronic state is 1-A.
 Alpha  occ. eigenvalues --  -19.17659 -19.13915 -10.30139 -10.22148 -10.14695
 Alpha  occ. eigenvalues --   -1.10210  -1.05097  -0.74451  -0.66809  -0.61625
 Alpha  occ. eigenvalues --   -0.53275  -0.49884  -0.48642  -0.47423  -0.43794
 Alpha  occ. eigenvalues --   -0.38359  -0.38044  -0.35941  -0.30795  -0.22880
 Alpha virt. eigenvalues --   -0.08520  -0.00110   0.02069   0.02292   0.02874
 Alpha virt. eigenvalues --    0.03962   0.04410   0.06055   0.07463   0.08727
 Alpha virt. eigenvalues --    0.09211   0.10936   0.11008   0.13423   0.14188
 Alpha virt. eigenvalues --    0.15839   0.17585   0.18108   0.19104   0.19953
 Alpha virt. eigenvalues --    0.21907   0.23179   0.25064   0.26078   0.26890
 Alpha virt. eigenvalues --    0.28073   0.30986   0.33255   0.35530   0.36304
 Alpha virt. eigenvalues --    0.38596   0.44590   0.48186   0.48563   0.49650
 Alpha virt. eigenvalues --    0.51676   0.54176   0.55993   0.60358   0.63370
 Alpha virt. eigenvalues --    0.63698   0.64681   0.66038   0.70796   0.75921
 Alpha virt. eigenvalues --    0.78536   0.81805   0.84036   0.92276   1.01105
 Alpha virt. eigenvalues --    1.05318   1.05606   1.08067   1.11628   1.17337
 Alpha virt. eigenvalues --    1.19600   1.21405   1.22424   1.33367   1.39735
 Alpha virt. eigenvalues --    1.44329   1.48430   1.48855   1.52009   1.53208
 Alpha virt. eigenvalues --    1.61446   1.75052   1.76560   1.89853   1.94478
 Alpha virt. eigenvalues --    2.03786   2.19455   2.29872   2.32439   2.38126
 Alpha virt. eigenvalues --    2.41297   2.47349   2.58918   2.65065   2.66611
 Alpha virt. eigenvalues --    2.77106   2.80229   2.87610   2.89323   3.02679
 Alpha virt. eigenvalues --    3.08972   3.16257   3.17146   3.17436   3.27078
 Alpha virt. eigenvalues --    3.27234   3.28873   3.33328   3.38549   3.58074
 Alpha virt. eigenvalues --    3.73649   4.00061   4.94647   4.98402   5.05448
 Alpha virt. eigenvalues --    5.14780   5.54558   5.57255  23.40545  23.66303
 Alpha virt. eigenvalues --   24.18833  49.84355  49.87043
          Condensed to atoms (all electrons):
               1          2          3          4          5          6
     1  C    5.478193   0.357819   0.362709   0.438738  -0.039278  -0.112868
     2  H    0.357819   0.461216  -0.027271  -0.001424   0.004585  -0.014980
     3  H    0.362709  -0.027271   0.451481  -0.011349  -0.003945   0.008186
     4  C    0.438738  -0.001424  -0.011349   5.122488   0.396088   0.269593
     5  H   -0.039278   0.004585  -0.003945   0.396088   0.481512  -0.066894
     6  O   -0.112868  -0.014980   0.008186   0.269593  -0.066894   8.114870
     7  H   -0.064358   0.006516   0.000577   0.037197   0.010213   0.192329
     8  C   -0.005753   0.001115   0.000155   0.005314   0.000293  -0.001863
     9  H    0.001595  -0.000050   0.000000  -0.001916  -0.000001   0.001694
    10  H   -0.006139   0.000150  -0.000002   0.006954   0.000028  -0.004422
    11  O    0.027161  -0.000207   0.000145  -0.025639  -0.000386   0.018826
               7          8          9         10         11
     1  C   -0.064358  -0.005753   0.001595  -0.006139   0.027161
     2  H    0.006516   0.001115  -0.000050   0.000150  -0.000207
     3  H    0.000577   0.000155   0.000000  -0.000002   0.000145
     4  C    0.037197   0.005314  -0.001916   0.006954  -0.025639
     5  H    0.010213   0.000293  -0.000001   0.000028  -0.000386
     6  O    0.192329  -0.001863   0.001694  -0.004422   0.018826
     7  H    0.410152   0.006050  -0.001768   0.007056  -0.013024
     8  C    0.006050   5.109976   0.364199   0.381691   0.325288
     9  H   -0.001768   0.364199   0.563764  -0.080001  -0.060855
    10  H    0.007056   0.381691  -0.080001   0.553194  -0.077285
    11  O   -0.013024   0.325288  -0.060855  -0.077285   8.031986
 Mulliken charges:
               1
     1  C   -0.437819
     2  H    0.212533
     3  H    0.219313
     4  C   -0.236044
     5  H    0.217786
     6  O   -0.404470
     7  H    0.409059
     8  C   -0.186464
     9  H    0.213339
    10  H    0.218777
    11  O   -0.226009
 Sum of Mulliken charges =   0.00000
 Mulliken charges with hydrogens summed into heavy atoms:
               1
     1  C   -0.005974
     4  C   -0.018258
     6  O    0.004590
     8  C    0.245651
    11  O   -0.226009
 Electronic spatial extent (au):  <R**2>=            685.7407
 Charge=             -0.0000 electrons
 Dipole moment (field-independent basis, Debye):
    X=             -2.8735    Y=              0.5590    Z=              1.7625  Tot=              3.4170
 Quadrupole moment (field-independent basis, Debye-Ang):
   XX=            -21.1523   YY=            -33.1053   ZZ=            -32.8300
   XY=              0.5959   XZ=             -2.7946   YZ=             -0.1967
 Traceless Quadrupole moment (field-independent basis, Debye-Ang):
   XX=              7.8769   YY=             -4.0761   ZZ=             -3.8008
   XY=              0.5959   XZ=             -2.7946   YZ=             -0.1967
 Octapole moment (field-independent basis, Debye-Ang**2):
  XXX=            -29.7496  YYY=              1.4563  ZZZ=             -1.6047  XYY=             -3.3735
  XXY=             -4.0166  XXZ=             13.2621  XZZ=             -6.9555  YZZ=             -3.3288
  YYZ=              0.2199  XYZ=             -1.5896
 Hexadecapole moment (field-independent basis, Debye-Ang**3):
 XXXX=           -597.8846 YYYY=           -145.9746 ZZZZ=            -61.6700 XXXY=            -15.9881
 XXXZ=             -5.3266 YYYX=             -3.2827 YYYZ=             -1.7512 ZZZX=             -2.0392
 ZZZY=             -0.9938 XXYY=           -135.4890 XXZZ=           -136.6743 YYZZ=            -35.7529
 XXYZ=              2.6892 YYXZ=              1.8338 ZZXY=             -3.3257
 N-N= 1.564405100803D+02 E-N=-9.418855287134D+02  KE= 2.674459401005D+02
 No NMR shielding tensors so no spin-rotation constants.
 Leave Link  601 at Tue Oct 15 20:26:52 2019, MaxMem=   280000000 cpu:               2.6 elap:               0.1
 (Enter /home/soft/g16/l9999.exe)


 I WANT TO KNOW HOW GOD CREATED THE WORLD.  I AM NOT INTERESTED IN
 THIS OR THAT PHENOMENON, IN THE SPECTRUM OF THIS OR THAT ELEMENT.
 I WANT TO KNOW HIS THOUGHTS, THE REST ARE DETAILS.
     -- ALBERT EINSTEIN
 Error termination request processed by link 9999.
 Error termination via Lnk1e in /home/soft/g16/l9999.exe at Tue Oct 15 20:26:52 2019.
 Job cpu time:       0 days  1 hours  6 minutes  7.7 seconds.
 Elapsed time:       0 days  0 hours  3 minutes 22.6 seconds.
 File lengths (MBytes):  RWF=     72 Int=      0 D2E=      0 Chk=      8 Scr=      8
