 Entering Gaussian System, Link 0=g16
 Input=ts.gjf
 Output=ts.log
 Initial command:
 /home/soft/g16/l1.exe "/tmp/gaussian/Gau-118832.inp" -scrdir="/tmp/gaussian/"
 Entering Link 1 = /home/soft/g16/l1.exe PID=    118833.
  
 Copyright (c) 1988,1990,1992,1993,1995,1998,2003,2009,2016,
            Gaussian, Inc.  All Rights Reserved.
  
 This is part of the Gaussian(R) 16 program.  It is based on
 the Gaussian(R) 09 system (copyright 2009, Gaussian, Inc.),
 the Gaussian(R) 03 system (copyright 2003, Gaussian, Inc.),
 the Gaussian(R) 98 system (copyright 1998, Gaussian, Inc.),
 the Gaussian(R) 94 system (copyright 1995, Gaussian, Inc.),
 the Gaussian 92(TM) system (copyright 1992, Gaussian, Inc.),
 the Gaussian 90(TM) system (copyright 1990, Gaussian, Inc.),
 the Gaussian 88(TM) system (copyright 1988, Gaussian, Inc.),
 the Gaussian 86(TM) system (copyright 1986, Carnegie Mellon
 University), and the Gaussian 82(TM) system (copyright 1983,
 Carnegie Mellon University). Gaussian is a federally registered
 trademark of Gaussian, Inc.
  
 This software contains proprietary and confidential information,
 including trade secrets, belonging to Gaussian, Inc.
  
 This software is provided under written license and may be
 used, copied, transmitted, or stored only in accord with that
 written license.
  
 The following legend is applicable only to US Government
 contracts under FAR:
  
                    RESTRICTED RIGHTS LEGEND
  
 Use, reproduction and disclosure by the US Government is
 subject to restrictions as set forth in subparagraphs (a)
 and (c) of the Commercial Computer Software - Restricted
 Rights clause in FAR 52.227-19.
  
 Gaussian, Inc.
 340 Quinnipiac St., Bldg. 40, Wallingford CT 06492
  
  
 ---------------------------------------------------------------
 Warning -- This program may not be used in any manner that
 competes with the business of Gaussian, Inc. or will provide
 assistance to any competitor of Gaussian, Inc.  The licensee
 of this program is prohibited from giving any competitor of
 Gaussian, Inc. access to this program.  By using this program,
 the user acknowledges that Gaussian, Inc. is engaged in the
 business of creating and licensing software in the field of
 computational chemistry and represents and warrants to the
 licensee that it is not a competitor of Gaussian, Inc. and that
 it will not use this program in any manner prohibited above.
 ---------------------------------------------------------------
  

 Cite this work as:
 Gaussian 16, Revision A.03,
 M. J. Frisch, G. W. Trucks, H. B. Schlegel, G. E. Scuseria, 
 M. A. Robb, J. R. Cheeseman, G. Scalmani, V. Barone, 
 G. A. Petersson, H. Nakatsuji, X. Li, M. Caricato, A. V. Marenich, 
 J. Bloino, B. G. Janesko, R. Gomperts, B. Mennucci, H. P. Hratchian, 
 J. V. Ortiz, A. F. Izmaylov, J. L. Sonnenberg, D. Williams-Young, 
 F. Ding, F. Lipparini, F. Egidi, J. Goings, B. Peng, A. Petrone, 
 T. Henderson, D. Ranasinghe, V. G. Zakrzewski, J. Gao, N. Rega, 
 G. Zheng, W. Liang, M. Hada, M. Ehara, K. Toyota, R. Fukuda, 
 J. Hasegawa, M. Ishida, T. Nakajima, Y. Honda, O. Kitao, H. Nakai, 
 T. Vreven, K. Throssell, J. A. Montgomery, Jr., J. E. Peralta, 
 F. Ogliaro, M. J. Bearpark, J. J. Heyd, E. N. Brothers, K. N. Kudin, 
 V. N. Staroverov, T. A. Keith, R. Kobayashi, J. Normand, 
 K. Raghavachari, A. P. Rendell, J. C. Burant, S. S. Iyengar, 
 J. Tomasi, M. Cossi, J. M. Millam, M. Klene, C. Adamo, R. Cammi, 
 J. W. Ochterski, R. L. Martin, K. Morokuma, O. Farkas, 
 J. B. Foresman, and D. J. Fox, Gaussian, Inc., Wallingford CT, 2016.
 
 ******************************************
 Gaussian 16:  ES64L-G16RevA.03 25-Dec-2016
                15-Oct-2019 
 ******************************************
 %chk=ts.chk
 %nproc=24
 Will use up to   24 processors via shared memory.
 -----------------------------------------
 #p b3lyp/6-311+g* opt=(ts,noeigen,calcfc)
 -----------------------------------------
 1/5=1,10=4,11=1,18=20,26=3,38=1/1,3;
 2/9=110,12=2,17=6,18=5,40=1/2;
 3/5=4,6=6,7=11,11=2,25=1,30=1,71=2,74=-5,140=1/1,2,3;
 4//1;
 5/5=2,38=5/2;
 8/6=4,10=90,11=11/1;
 11/6=1,8=1,9=11,15=111,16=1/1,2,10;
 10/6=1,13=1/2;
 6/7=2,8=2,9=2,10=2,28=1/1;
 7/10=1,18=20,25=1/1,2,3,16;
 1/5=1,10=4,11=1,18=20,26=3/3(2);
 2/9=110/2;
 99//99;
 2/9=110/2;
 3/5=4,6=6,7=11,11=2,25=1,30=1,71=1,74=-5/1,2,3;
 4/5=5,16=3,69=1/1;
 5/5=2,38=5/2;
 7//1,2,3,16;
 1/5=1,11=1,18=20,26=3/3(-5);
 2/9=110/2;
 6/7=2,8=2,9=2,10=2,19=2,28=1/1;
 99/9=1/99;
 Leave Link    1 at Tue Oct 15 20:06:31 2019, MaxMem=           0 cpu:               4.2 elap:               0.2
 (Enter /home/soft/g16/l101.exe)
 -------------------
 Title Card Required
 -------------------
 Symbolic Z-matrix:
 Charge =  0 Multiplicity = 1
 C                    -0.75707   2.67957   0.18608 
 H                    -1.82636   2.67998   0.22519 
 O                    -0.11696   3.76792   0.12123 
 C                     0.01029   1.34437   0.18608 
 H                     0.62533   1.28647   1.05973 
 H                    -0.68664   0.53246   0.18608 
 C                     1.15749   1.23637  -1.44348 
 H                     1.80339   0.38655  -1.36928 
 H                     0.53767   1.13867  -2.31019 
 O                     1.90706   2.42085  -1.54138 
 H                     0.76257   3.62751  -1.08099 
 
 Add virtual bond connecting atoms H11        and O3         Dist= 2.83D+00.
 Add virtual bond connecting atoms H11        and O10        Dist= 3.26D+00.
 Add atom      7 valence  3 ND=      2 dihedral       8      7      9     10
 ITRead=  0  0  0  0  0  0  0  0  0  0  0
 MicOpt= -1 -1 -1 -1 -1 -1 -1 -1 -1 -1 -1
 NAtoms=     11 NQM=       11 NQMF=       0 NMMI=      0 NMMIF=      0
                NMic=       0 NMicF=      0.
                    Isotopes and Nuclear Properties:
 (Nuclear quadrupole moments (NQMom) in fm**2, nuclear magnetic moments (NMagM)
  in nuclear magnetons)

  Atom         1           2           3           4           5           6           7           8           9          10
 IAtWgt=          12           1          16          12           1           1          12           1           1          16
 AtmWgt=  12.0000000   1.0078250  15.9949146  12.0000000   1.0078250   1.0078250  12.0000000   1.0078250   1.0078250  15.9949146
 NucSpn=           0           1           0           0           1           1           0           1           1           0
 AtZEff=  -0.0000000  -0.0000000  -0.0000000  -0.0000000  -0.0000000  -0.0000000  -0.0000000  -0.0000000  -0.0000000  -0.0000000
 NQMom=    0.0000000   0.0000000   0.0000000   0.0000000   0.0000000   0.0000000   0.0000000   0.0000000   0.0000000   0.0000000
 NMagM=    0.0000000   2.7928460   0.0000000   0.0000000   2.7928460   2.7928460   0.0000000   2.7928460   2.7928460   0.0000000
 AtZNuc=   6.0000000   1.0000000   8.0000000   6.0000000   1.0000000   1.0000000   6.0000000   1.0000000   1.0000000   8.0000000

  Atom        11
 IAtWgt=           1
 AtmWgt=   1.0078250
 NucSpn=           1
 AtZEff=  -0.0000000
 NQMom=    0.0000000
 NMagM=    2.7928460
 AtZNuc=   1.0000000
 Leave Link  101 at Tue Oct 15 20:06:31 2019, MaxMem=   280000000 cpu:               5.0 elap:               0.2
 (Enter /home/soft/g16/l103.exe)

 GradGradGradGradGradGradGradGradGradGradGradGradGradGradGradGradGradGrad
 Berny optimization.
 Initialization pass.
                           ----------------------------
                           !    Initial Parameters    !
                           ! (Angstroms and Degrees)  !
 --------------------------                            --------------------------
 ! Name  Definition              Value          Derivative Info.                !
 --------------------------------------------------------------------------------
 ! R1    R(1,2)                  1.07           calculate D2E/DX2 analytically  !
 ! R2    R(1,3)                  1.2643         calculate D2E/DX2 analytically  !
 ! R3    R(1,4)                  1.54           calculate D2E/DX2 analytically  !
 ! R4    R(3,11)                 1.4962         calculate D2E/DX2 analytically  !
 ! R5    R(4,5)                  1.07           calculate D2E/DX2 analytically  !
 ! R6    R(4,6)                  1.07           calculate D2E/DX2 analytically  !
 ! R7    R(7,8)                  1.07           calculate D2E/DX2 analytically  !
 ! R8    R(7,9)                  1.07           calculate D2E/DX2 analytically  !
 ! R9    R(7,10)                 1.4051         calculate D2E/DX2 analytically  !
 ! R10   R(10,11)                1.7256         calculate D2E/DX2 analytically  !
 ! A1    A(2,1,3)              120.4978         calculate D2E/DX2 analytically  !
 ! A2    A(2,1,4)              119.8865         calculate D2E/DX2 analytically  !
 ! A3    A(3,1,4)              119.6085         calculate D2E/DX2 analytically  !
 ! A4    A(1,3,11)             104.955          calculate D2E/DX2 analytically  !
 ! A5    A(1,4,5)              109.4712         calculate D2E/DX2 analytically  !
 ! A6    A(1,4,6)              109.4712         calculate D2E/DX2 analytically  !
 ! A7    A(5,4,6)              109.4713         calculate D2E/DX2 analytically  !
 ! A8    A(8,7,9)              109.4712         calculate D2E/DX2 analytically  !
 ! A9    A(8,7,10)             110.6292         calculate D2E/DX2 analytically  !
 ! A10   A(9,7,10)             109.2414         calculate D2E/DX2 analytically  !
 ! A11   A(7,10,11)            102.5364         calculate D2E/DX2 analytically  !
 ! A12   A(3,11,10)            132.0562         calculate D2E/DX2 analytically  !
 ! D1    D(2,1,3,11)          -125.7092         calculate D2E/DX2 analytically  !
 ! D2    D(4,1,3,11)            53.3184         calculate D2E/DX2 analytically  !
 ! D3    D(2,1,4,5)           -117.5839         calculate D2E/DX2 analytically  !
 ! D4    D(2,1,4,6)              2.4161         calculate D2E/DX2 analytically  !
 ! D5    D(3,1,4,5)             63.3824         calculate D2E/DX2 analytically  !
 ! D6    D(3,1,4,6)           -176.6176         calculate D2E/DX2 analytically  !
 ! D7    D(1,3,11,10)          -53.6352         calculate D2E/DX2 analytically  !
 ! D8    D(8,7,9,10)          -121.2791         calculate D2E/DX2 analytically  !
 ! D9    D(8,7,10,11)         -160.421          calculate D2E/DX2 analytically  !
 ! D10   D(9,7,10,11)           79.0053         calculate D2E/DX2 analytically  !
 ! D11   D(7,10,11,3)           53.0325         calculate D2E/DX2 analytically  !
 --------------------------------------------------------------------------------
 Trust Radius=3.00D-01 FncErr=1.00D-07 GrdErr=1.00D-06 EigMax=2.50D+02 EigMin=1.00D-04
 Number of steps in this run=     43 maximum allowed number of steps=    100.
 Search for a saddle point of order  1.
 GradGradGradGradGradGradGradGradGradGradGradGradGradGradGradGradGradGrad

 Leave Link  103 at Tue Oct 15 20:06:31 2019, MaxMem=   280000000 cpu:               0.4 elap:               0.1
 (Enter /home/soft/g16/l202.exe)
                          Input orientation:                          
 ---------------------------------------------------------------------
 Center     Atomic      Atomic             Coordinates (Angstroms)
 Number     Number       Type             X           Y           Z
 ---------------------------------------------------------------------
      1          6           0       -0.757071    2.679570    0.186080
      2          1           0       -1.826356    2.679981    0.225188
      3          8           0       -0.116956    3.767918    0.121226
      4          6           0        0.010286    1.344369    0.186080
      5          1           0        0.625332    1.286470    1.059731
      6          1           0       -0.686641    0.532463    0.186079
      7          6           0        1.157490    1.236373   -1.443484
      8          1           0        1.803392    0.386548   -1.369277
      9          1           0        0.537667    1.138674   -2.310187
     10          8           0        1.907060    2.420848   -1.541380
     11          1           0        0.762571    3.627514   -1.080994
 ---------------------------------------------------------------------
                    Distance matrix (angstroms):
                    1          2          3          4          5
     1  C    0.000000
     2  H    1.070000   0.000000
     3  O    1.264300   2.028907   0.000000
     4  C    1.540000   2.271265   2.427754   0.000000
     5  H    2.148263   2.940936   2.754881   1.070000   0.000000
     6  H    2.148263   2.431525   3.285867   1.070000   1.747303
     7  C    2.898938   3.711039   3.237476   1.995800   2.559646
     8  H    3.772673   4.580091   4.164494   2.559646   2.845658
     9  H    3.206565   3.793727   3.640498   2.559646   3.374297
    10  O    3.185694   4.138394   2.945420   2.782207   3.113747
    11  H    2.193943   3.050651   1.496200   2.717381   3.175220
                    6          7          8          9         10
     6  H    0.000000
     7  C    2.559646   0.000000
     8  H    2.939506   1.070000   0.000000
     9  H    2.845658   1.070000   1.747303   0.000000
    10  O    3.643817   1.405140   2.044197   2.027380   0.000000
    11  H    3.644864   2.450493   3.416179   2.784928   1.725646
                   11
    11  H    0.000000
 Stoichiometry    C3H6O2
 Framework group  C1[X(C3H6O2)]
 Deg. of freedom    27
 Full point group                 C1      NOp   1
 Largest Abelian subgroup         C1      NOp   1
 Largest concise Abelian subgroup C1      NOp   1
                         Standard orientation:                         
 ---------------------------------------------------------------------
 Center     Atomic      Atomic             Coordinates (Angstroms)
 Number     Number       Type             X           Y           Z
 ---------------------------------------------------------------------
      1          6           0       -1.422658    0.240037    0.230774
      2          1           0       -2.179132    0.623350    0.883246
      3          8           0       -1.421866   -0.979034   -0.104366
      4          6           0       -0.312210    1.172464   -0.287959
      5          1           0       -0.372906    1.240727   -1.354052
      6          1           0       -0.435187    2.145705    0.139334
      7          6           0        1.469497    0.438218    0.231292
      8          1           0        2.241174    0.996314   -0.256503
      9          1           0        1.590936    0.513344    1.291721
     10          8           0        1.522544   -0.914222   -0.146210
     11          1           0       -0.058082   -1.477713    0.256225
 ---------------------------------------------------------------------
 Rotational constants (GHZ):           7.7428070           3.5906200           2.6384083
 Leave Link  202 at Tue Oct 15 20:06:31 2019, MaxMem=   280000000 cpu:               1.2 elap:               0.1
 (Enter /home/soft/g16/l301.exe)
 Standard basis: 6-311+G(d) (5D, 7F)
 Ernie: Thresh=  0.10000D-02 Tol=  0.10000D-05 Strict=F.
 There are   133 symmetry adapted cartesian basis functions of A   symmetry.
 There are   128 symmetry adapted basis functions of A   symmetry.
   128 basis functions,   210 primitive gaussians,   133 cartesian basis functions
    20 alpha electrons       20 beta electrons
       nuclear repulsion energy       167.1895225927 Hartrees.
 IExCor=  402 DFT=T Ex+Corr=B3LYP ExCW=0 ScaHFX=  0.200000
 ScaDFX=  0.800000  0.720000  1.000000  0.810000 ScalE2=  1.000000  1.000000
 IRadAn=      5 IRanWt=     -1 IRanGd=            0 ICorTp=0 IEmpDi=  4
 NAtoms=   11 NActive=   11 NUniq=   11 SFac= 1.00D+00 NAtFMM=   60 NAOKFM=F Big=F
 Integral buffers will be    131072 words long.
 Raffenetti 2 integral format.
 Two-electron integral symmetry is turned on.
 Leave Link  301 at Tue Oct 15 20:06:31 2019, MaxMem=   280000000 cpu:               2.1 elap:               0.1
 (Enter /home/soft/g16/l302.exe)
 NPDir=0 NMtPBC=     1 NCelOv=     1 NCel=       1 NClECP=     1 NCelD=      1
         NCelK=      1 NCelE2=     1 NClLst=     1 CellRange=     0.0.
 One-electron integrals computed using PRISM.
 One-electron integral symmetry used in STVInt
 NBasis=   128 RedAO= T EigKep=  1.45D-04  NBF=   128
 NBsUse=   128 1.00D-06 EigRej= -1.00D+00 NBFU=   128
 Precomputing XC quadrature grid using
 IXCGrd= 4 IRadAn=           5 IRanWt=          -1 IRanGd=           0 AccXCQ= 0.00D+00.
 Generated NRdTot=       0 NPtTot=           0 NUsed=           0 NTot=          32
 NSgBfM=   133   133   133   133   133 MxSgAt=    11 MxSgA2=    11.
 Leave Link  302 at Tue Oct 15 20:06:31 2019, MaxMem=   280000000 cpu:               4.1 elap:               0.2
 (Enter /home/soft/g16/l303.exe)
 DipDrv:  MaxL=1.
 Leave Link  303 at Tue Oct 15 20:06:31 2019, MaxMem=   280000000 cpu:               1.1 elap:               0.1
 (Enter /home/soft/g16/l401.exe)
 ExpMin= 4.38D-02 ExpMax= 8.59D+03 ExpMxC= 1.30D+03 IAcc=3 IRadAn=         5 AccDes= 0.00D+00
 Harris functional with IExCor=  402 and IRadAn=       5 diagonalized for initial guess.
 HarFok:  IExCor=  402 AccDes= 0.00D+00 IRadAn=         5 IDoV= 1 UseB2=F ITyADJ=14
 ICtDFT=  3500011 ScaDFX=  1.000000  1.000000  1.000000  1.000000
 FoFCou: FMM=F IPFlag=           0 FMFlag=      100000 FMFlg1=           0
         NFxFlg=           0 DoJE=T BraDBF=F KetDBF=T FulRan=T
         wScrn=  0.000000 ICntrl=       500 IOpCl=  0 I1Cent=   200000004 NGrid=           0
         NMat0=    1 NMatS0=      1 NMatT0=    0 NMatD0=    1 NMtDS0=    0 NMtDT0=    0
 Petite list used in FoFCou.
 Harris En= -268.333129584951    
 JPrj=0 DoOrth=F DoCkMO=F.
 Leave Link  401 at Tue Oct 15 20:06:32 2019, MaxMem=   280000000 cpu:              10.5 elap:               0.5
 (Enter /home/soft/g16/l502.exe)
 Keep R1 ints in memory in canonical form, NReq=57089831.
 FoFCou: FMM=F IPFlag=           0 FMFlag=           0 FMFlg1=           0
         NFxFlg=           0 DoJE=F BraDBF=F KetDBF=F FulRan=T
         wScrn=  0.000000 ICntrl=       600 IOpCl=  0 I1Cent=           0 NGrid=           0
         NMat0=    1 NMatS0=   8256 NMatT0=    0 NMatD0=    1 NMtDS0=    0 NMtDT0=    0
 Symmetry not used in FoFCou.
 Two-electron integral symmetry not used.
 Closed shell SCF:
 Using DIIS extrapolation, IDIIS=  1040.
 NGot=   280000000 LenX=   245875069 LenY=   245856939
 Requested convergence on RMS density matrix=1.00D-08 within 128 cycles.
 Requested convergence on MAX density matrix=1.00D-06.
 Requested convergence on             energy=1.00D-06.
 No special actions if energy rises.

 Cycle   1  Pass 1  IDiag  1:
 E= -268.100186090546    
 DIIS: error= 2.53D-02 at cycle   1 NSaved=   1.
 NSaved= 1 IEnMin= 1 EnMin= -268.100186090546     IErMin= 1 ErrMin= 2.53D-02
 ErrMax= 2.53D-02  0.00D+00 EMaxC= 1.00D-01 BMatC= 2.12D-01 BMatP= 2.12D-01
 IDIUse=3 WtCom= 7.47D-01 WtEn= 2.53D-01
 Coeff-Com:  0.100D+01
 Coeff-En:   0.100D+01
 Coeff:      0.100D+01
 Gap=    -0.002 Goal=   None    Shift=    0.000
 GapD=   -0.002 DampG=0.250 DampE=0.500 DampFc=0.2500 IDamp=-1.
 Damping current iteration by 2.50D-01
 RMSDP=3.39D-02 MaxDP=1.64D+00              OVMax= 7.38D-01

 Cycle   2  Pass 1  IDiag  1:
 E= -268.083208298261     Delta-E=        0.016977792285 Rises=F Damp=T
 DIIS: error= 1.27D-02 at cycle   2 NSaved=   2.
 NSaved= 2 IEnMin= 1 EnMin= -268.100186090546     IErMin= 2 ErrMin= 1.27D-02
 ErrMax= 1.27D-02  0.00D+00 EMaxC= 1.00D-01 BMatC= 5.00D-02 BMatP= 2.12D-01
 IDIUse=3 WtCom= 8.73D-01 WtEn= 1.27D-01
 Coeff-Com:  0.611D-01 0.939D+00
 Coeff-En:   0.551D+00 0.449D+00
 Coeff:      0.123D+00 0.877D+00
 Gap=    -0.040 Goal=   None    Shift=    0.000
 RMSDP=8.24D-03 MaxDP=4.05D-01 DE= 1.70D-02 OVMax= 6.21D-01

 Cycle   3  Pass 1  IDiag  1:
 E= -268.057646228782     Delta-E=        0.025562069479 Rises=F Damp=F
 DIIS: error= 3.87D-02 at cycle   3 NSaved=   3.
 NSaved= 3 IEnMin= 1 EnMin= -268.100186090546     IErMin= 2 ErrMin= 1.27D-02
 ErrMax= 3.87D-02  0.00D+00 EMaxC= 1.00D-01 BMatC= 2.34D-01 BMatP= 5.00D-02
 IDIUse=2 WtCom= 0.00D+00 WtEn= 1.00D+00
 EnCoef did     2 forward-backward iterations
 Coeff-En:   0.209D+00 0.419D+00 0.371D+00
 Coeff:      0.209D+00 0.419D+00 0.371D+00
 Gap=     0.206 Goal=   None    Shift=    0.000
 RMSDP=7.94D-03 MaxDP=2.43D-01 DE= 2.56D-02 OVMax= 4.19D-01

 Cycle   4  Pass 1  IDiag  1:
 E= -268.060290930645     Delta-E=       -0.002644701863 Rises=F Damp=F
 DIIS: error= 5.01D-02 at cycle   4 NSaved=   4.
 NSaved= 4 IEnMin= 1 EnMin= -268.100186090546     IErMin= 2 ErrMin= 1.27D-02
 ErrMax= 5.01D-02  0.00D+00 EMaxC= 1.00D-01 BMatC= 2.41D-01 BMatP= 5.00D-02
 IDIUse=2 WtCom= 0.00D+00 WtEn= 1.00D+00
 EnCoef did     3 forward-backward iterations
 Coeff-En:   0.246D+00 0.000D+00 0.322D+00 0.432D+00
 Coeff:      0.246D+00 0.000D+00 0.322D+00 0.432D+00
 Gap=     0.139 Goal=   None    Shift=    0.000
 RMSDP=5.96D-03 MaxDP=2.20D-01 DE=-2.64D-03 OVMax= 2.35D-01

 Cycle   5  Pass 1  IDiag  1:
 E= -268.276519734687     Delta-E=       -0.216228804043 Rises=F Damp=F
 DIIS: error= 4.80D-03 at cycle   5 NSaved=   5.
 NSaved= 5 IEnMin= 5 EnMin= -268.276519734687     IErMin= 5 ErrMin= 4.80D-03
 ErrMax= 4.80D-03  0.00D+00 EMaxC= 1.00D-01 BMatC= 4.38D-03 BMatP= 5.00D-02
 IDIUse=3 WtCom= 9.52D-01 WtEn= 4.80D-02
 Coeff-Com: -0.113D+00 0.161D+00 0.319D-01 0.302D-01 0.890D+00
 Coeff-En:   0.000D+00 0.000D+00 0.000D+00 0.000D+00 0.100D+01
 Coeff:     -0.108D+00 0.153D+00 0.303D-01 0.287D-01 0.896D+00
 Gap=     0.148 Goal=   None    Shift=    0.000
 RMSDP=4.36D-04 MaxDP=8.24D-03 DE=-2.16D-01 OVMax= 1.90D-02

 Cycle   6  Pass 1  IDiag  1:
 E= -268.278866191824     Delta-E=       -0.002346457137 Rises=F Damp=F
 DIIS: error= 2.93D-03 at cycle   6 NSaved=   6.
 NSaved= 6 IEnMin= 6 EnMin= -268.278866191824     IErMin= 6 ErrMin= 2.93D-03
 ErrMax= 2.93D-03  0.00D+00 EMaxC= 1.00D-01 BMatC= 1.28D-03 BMatP= 4.38D-03
 IDIUse=3 WtCom= 9.71D-01 WtEn= 2.93D-02
 Coeff-Com: -0.898D-01 0.124D+00-0.925D-03 0.586D-02 0.517D+00 0.444D+00
 Coeff-En:   0.000D+00 0.000D+00 0.000D+00 0.000D+00 0.000D+00 0.100D+01
 Coeff:     -0.872D-01 0.120D+00-0.898D-03 0.569D-02 0.501D+00 0.461D+00
 Gap=     0.144 Goal=   None    Shift=    0.000
 RMSDP=1.86D-04 MaxDP=4.16D-03 DE=-2.35D-03 OVMax= 1.01D-02

 Cycle   7  Pass 1  IDiag  1:
 E= -268.280008164151     Delta-E=       -0.001141972327 Rises=F Damp=F
 DIIS: error= 1.93D-03 at cycle   7 NSaved=   7.
 NSaved= 7 IEnMin= 7 EnMin= -268.280008164151     IErMin= 7 ErrMin= 1.93D-03
 ErrMax= 1.93D-03  0.00D+00 EMaxC= 1.00D-01 BMatC= 5.28D-04 BMatP= 1.28D-03
 IDIUse=3 WtCom= 9.81D-01 WtEn= 1.93D-02
 Coeff-Com: -0.339D-01 0.450D-01-0.190D-01 0.935D-02 0.872D-01 0.172D+00
 Coeff-Com:  0.740D+00
 Coeff-En:   0.000D+00 0.000D+00 0.000D+00 0.000D+00 0.000D+00 0.000D+00
 Coeff-En:   0.100D+01
 Coeff:     -0.332D-01 0.442D-01-0.186D-01 0.917D-02 0.855D-01 0.168D+00
 Coeff:      0.745D+00
 Gap=     0.142 Goal=   None    Shift=    0.000
 RMSDP=1.53D-04 MaxDP=3.91D-03 DE=-1.14D-03 OVMax= 8.46D-03

 Cycle   8  Pass 1  IDiag  1:
 E= -268.280480175298     Delta-E=       -0.000472011147 Rises=F Damp=F
 DIIS: error= 6.97D-04 at cycle   8 NSaved=   8.
 NSaved= 8 IEnMin= 8 EnMin= -268.280480175298     IErMin= 8 ErrMin= 6.97D-04
 ErrMax= 6.97D-04  0.00D+00 EMaxC= 1.00D-01 BMatC= 5.15D-05 BMatP= 5.28D-04
 IDIUse=3 WtCom= 9.93D-01 WtEn= 6.97D-03
 Coeff-Com:  0.536D-02-0.109D-01-0.110D-01 0.964D-02-0.646D-01-0.491D-01
 Coeff-Com:  0.242D+00 0.878D+00
 Coeff-En:   0.000D+00 0.000D+00 0.000D+00 0.000D+00 0.000D+00 0.000D+00
 Coeff-En:   0.000D+00 0.100D+01
 Coeff:      0.532D-02-0.108D-01-0.110D-01 0.958D-02-0.641D-01-0.488D-01
 Coeff:      0.241D+00 0.879D+00
 Gap=     0.141 Goal=   None    Shift=    0.000
 RMSDP=9.80D-05 MaxDP=2.42D-03 DE=-4.72D-04 OVMax= 7.40D-03

 Cycle   9  Pass 1  IDiag  1:
 E= -268.280524931623     Delta-E=       -0.000044756325 Rises=F Damp=F
 DIIS: error= 3.48D-04 at cycle   9 NSaved=   9.
 NSaved= 9 IEnMin= 9 EnMin= -268.280524931623     IErMin= 9 ErrMin= 3.48D-04
 ErrMax= 3.48D-04  0.00D+00 EMaxC= 1.00D-01 BMatC= 1.43D-05 BMatP= 5.15D-05
 IDIUse=3 WtCom= 9.97D-01 WtEn= 3.48D-03
 Coeff-Com:  0.138D-02-0.201D-02-0.105D-02 0.273D-05-0.105D-01-0.103D-01
 Coeff-Com:  0.294D-01 0.350D+00 0.643D+00
 Coeff-En:   0.000D+00 0.000D+00 0.000D+00 0.000D+00 0.000D+00 0.000D+00
 Coeff-En:   0.000D+00 0.271D+00 0.729D+00
 Coeff:      0.138D-02-0.200D-02-0.105D-02 0.272D-05-0.104D-01-0.103D-01
 Coeff:      0.293D-01 0.350D+00 0.643D+00
 Gap=     0.142 Goal=   None    Shift=    0.000
 RMSDP=3.87D-05 MaxDP=1.21D-03 DE=-4.48D-05 OVMax= 1.64D-03

 Cycle  10  Pass 1  IDiag  1:
 E= -268.280540347695     Delta-E=       -0.000015416071 Rises=F Damp=F
 DIIS: error= 4.91D-05 at cycle  10 NSaved=  10.
 NSaved=10 IEnMin=10 EnMin= -268.280540347695     IErMin=10 ErrMin= 4.91D-05
 ErrMax= 4.91D-05  0.00D+00 EMaxC= 1.00D-01 BMatC= 3.28D-07 BMatP= 1.43D-05
 IDIUse=1 WtCom= 1.00D+00 WtEn= 0.00D+00
 Coeff-Com:  0.778D-06 0.148D-03 0.848D-04-0.667D-03-0.566D-04 0.152D-02
 Coeff-Com:  0.813D-02 0.968D-01 0.242D+00 0.652D+00
 Coeff:      0.778D-06 0.148D-03 0.848D-04-0.667D-03-0.566D-04 0.152D-02
 Coeff:      0.813D-02 0.968D-01 0.242D+00 0.652D+00
 Gap=     0.142 Goal=   None    Shift=    0.000
 RMSDP=5.85D-06 MaxDP=1.24D-04 DE=-1.54D-05 OVMax= 3.13D-04

 Cycle  11  Pass 1  IDiag  1:
 E= -268.280540679482     Delta-E=       -0.000000331788 Rises=F Damp=F
 DIIS: error= 1.53D-05 at cycle  11 NSaved=  11.
 NSaved=11 IEnMin=11 EnMin= -268.280540679482     IErMin=11 ErrMin= 1.53D-05
 ErrMax= 1.53D-05  0.00D+00 EMaxC= 1.00D-01 BMatC= 2.86D-08 BMatP= 3.28D-07
 IDIUse=1 WtCom= 1.00D+00 WtEn= 0.00D+00
 Coeff-Com: -0.481D-04 0.827D-04 0.216D-03-0.319D-03 0.181D-02 0.248D-02
 Coeff-Com: -0.136D-02 0.296D-02 0.511D-01 0.393D+00 0.550D+00
 Coeff:     -0.481D-04 0.827D-04 0.216D-03-0.319D-03 0.181D-02 0.248D-02
 Coeff:     -0.136D-02 0.296D-02 0.511D-01 0.393D+00 0.550D+00
 Gap=     0.142 Goal=   None    Shift=    0.000
 RMSDP=1.61D-06 MaxDP=3.07D-05 DE=-3.32D-07 OVMax= 7.48D-05

 Cycle  12  Pass 1  IDiag  1:
 E= -268.280540708476     Delta-E=       -0.000000028994 Rises=F Damp=F
 DIIS: error= 3.25D-06 at cycle  12 NSaved=  12.
 NSaved=12 IEnMin=12 EnMin= -268.280540708476     IErMin=12 ErrMin= 3.25D-06
 ErrMax= 3.25D-06  0.00D+00 EMaxC= 1.00D-01 BMatC= 1.62D-09 BMatP= 2.86D-08
 IDIUse=1 WtCom= 1.00D+00 WtEn= 0.00D+00
 Coeff-Com:  0.726D-05-0.185D-04 0.354D-04-0.340D-04 0.451D-03 0.507D-03
 Coeff-Com: -0.149D-02-0.119D-01-0.131D-01 0.573D-01 0.196D+00 0.773D+00
 Coeff:      0.726D-05-0.185D-04 0.354D-04-0.340D-04 0.451D-03 0.507D-03
 Coeff:     -0.149D-02-0.119D-01-0.131D-01 0.573D-01 0.196D+00 0.773D+00
 Gap=     0.142 Goal=   None    Shift=    0.000
 RMSDP=6.00D-07 MaxDP=6.43D-06 DE=-2.90D-08 OVMax= 5.34D-05

 Cycle  13  Pass 1  IDiag  1:
 E= -268.280540711081     Delta-E=       -0.000000002605 Rises=F Damp=F
 DIIS: error= 7.99D-07 at cycle  13 NSaved=  13.
 NSaved=13 IEnMin=13 EnMin= -268.280540711081     IErMin=13 ErrMin= 7.99D-07
 ErrMax= 7.99D-07  0.00D+00 EMaxC= 1.00D-01 BMatC= 1.30D-10 BMatP= 1.62D-09
 IDIUse=1 WtCom= 1.00D+00 WtEn= 0.00D+00
 Coeff-Com:  0.223D-05-0.424D-05-0.477D-05 0.647D-05 0.613D-04-0.183D-04
 Coeff-Com: -0.298D-03-0.338D-02-0.714D-02-0.152D-01 0.476D-02 0.177D+00
 Coeff-Com:  0.844D+00
 Coeff:      0.223D-05-0.424D-05-0.477D-05 0.647D-05 0.613D-04-0.183D-04
 Coeff:     -0.298D-03-0.338D-02-0.714D-02-0.152D-01 0.476D-02 0.177D+00
 Coeff:      0.844D+00
 Gap=     0.142 Goal=   None    Shift=    0.000
 RMSDP=1.88D-07 MaxDP=2.35D-06 DE=-2.60D-09 OVMax= 1.15D-05

 Cycle  14  Pass 1  IDiag  1:
 E= -268.280540711275     Delta-E=       -0.000000000194 Rises=F Damp=F
 DIIS: error= 1.87D-07 at cycle  14 NSaved=  14.
 NSaved=14 IEnMin=14 EnMin= -268.280540711275     IErMin=14 ErrMin= 1.87D-07
 ErrMax= 1.87D-07  0.00D+00 EMaxC= 1.00D-01 BMatC= 5.88D-12 BMatP= 1.30D-10
 IDIUse=1 WtCom= 1.00D+00 WtEn= 0.00D+00
 Coeff-Com:  0.127D-05-0.605D-06-0.297D-05 0.267D-05-0.183D-04-0.570D-04
 Coeff-Com:  0.414D-04 0.237D-03-0.502D-03-0.823D-02-0.132D-01-0.246D-01
 Coeff-Com:  0.192D+00 0.854D+00
 Coeff:      0.127D-05-0.605D-06-0.297D-05 0.267D-05-0.183D-04-0.570D-04
 Coeff:      0.414D-04 0.237D-03-0.502D-03-0.823D-02-0.132D-01-0.246D-01
 Coeff:      0.192D+00 0.854D+00
 Gap=     0.142 Goal=   None    Shift=    0.000
 RMSDP=4.15D-08 MaxDP=6.57D-07 DE=-1.94D-10 OVMax= 2.98D-06

 Cycle  15  Pass 1  IDiag  1:
 E= -268.280540711283     Delta-E=       -0.000000000009 Rises=F Damp=F
 DIIS: error= 3.80D-08 at cycle  15 NSaved=  15.
 NSaved=15 IEnMin=15 EnMin= -268.280540711283     IErMin=15 ErrMin= 3.80D-08
 ErrMax= 3.80D-08  0.00D+00 EMaxC= 1.00D-01 BMatC= 1.57D-13 BMatP= 5.88D-12
 IDIUse=1 WtCom= 1.00D+00 WtEn= 0.00D+00
 Coeff-Com:  0.254D-06-0.374D-06-0.499D-06 0.581D-06-0.816D-05-0.149D-04
 Coeff-Com:  0.309D-04 0.181D-03 0.174D-03-0.894D-03-0.167D-02-0.105D-01
 Coeff-Com:  0.178D-02 0.151D+00 0.860D+00
 Coeff:      0.254D-06-0.374D-06-0.499D-06 0.581D-06-0.816D-05-0.149D-04
 Coeff:      0.309D-04 0.181D-03 0.174D-03-0.894D-03-0.167D-02-0.105D-01
 Coeff:      0.178D-02 0.151D+00 0.860D+00
 Gap=     0.142 Goal=   None    Shift=    0.000
 RMSDP=9.73D-09 MaxDP=2.43D-07 DE=-8.53D-12 OVMax= 2.85D-07

 SCF Done:  E(RB3LYP) =  -268.280540711     A.U. after   15 cycles
            NFock= 15  Conv=0.97D-08     -V/T= 2.0059
 KE= 2.667166215698D+02 PE=-9.628710229527D+02 EE= 2.606843380788D+02
 Leave Link  502 at Tue Oct 15 20:06:35 2019, MaxMem=   280000000 cpu:              67.3 elap:               3.5
 (Enter /home/soft/g16/l801.exe)
 DoSCS=F DFT=T ScalE2(SS,OS)=  1.000000  1.000000
 Range of M.O.s used for correlation:     1   128
 NBasis=   128 NAE=    20 NBE=    20 NFC=     0 NFV=     0
 NROrb=    128 NOA=    20 NOB=    20 NVA=   108 NVB=   108

 **** Warning!!: The largest alpha MO coefficient is  0.28743472D+02

 Leave Link  801 at Tue Oct 15 20:06:36 2019, MaxMem=   280000000 cpu:               1.2 elap:               0.1
 (Enter /home/soft/g16/l1101.exe)
 Using compressed storage, NAtomX=    11.
 Will process     12 centers per pass.
 Leave Link 1101 at Tue Oct 15 20:06:36 2019, MaxMem=   280000000 cpu:              10.3 elap:               0.6
 (Enter /home/soft/g16/l1102.exe)
 Symmetrizing basis deriv contribution to polar:
 IMax=3 JMax=2 DiffMx= 0.00D+00
 Leave Link 1102 at Tue Oct 15 20:06:37 2019, MaxMem=   280000000 cpu:               1.6 elap:               0.2
 (Enter /home/soft/g16/l1110.exe)
 Forming Gx(P) for the SCF density, NAtomX=    11.
 Integral derivatives from FoFJK, PRISM(SPDF).
 Do as many integral derivatives as possible in FoFJK.
 G2DrvN: MDV=     279999094.
 G2DrvN: will do    12 centers at a time, making    1 passes.
 Calling FoFCou, ICntrl=  3107 FMM=F I1Cent=   0 AccDes= 0.00D+00.
 FoFJK:  IHMeth= 1 ICntrl=    3107 DoSepK=F KAlg= 0 I1Cent=           0 FoldK=F
 IRaf=         0 NMat=       1 IRICut=       1 DoRegI=T DoRafI=F ISym2E= 0 IDoP0=0 IntGTp=1.
 FoFCou: FMM=F IPFlag=           0 FMFlag=      100000 FMFlg1=           0
         NFxFlg=           0 DoJE=F BraDBF=F KetDBF=F FulRan=T
         wScrn=  0.000000 ICntrl=      3107 IOpCl=  0 I1Cent=           0 NGrid=           0
         NMat0=    1 NMatS0=      1 NMatT0=    0 NMatD0=    1 NMtDS0=    0 NMtDT0=    0
 Symmetry not used in FoFCou.
 End of G2Drv F.D. properties file   721 does not exist.
 End of G2Drv F.D. properties file   722 does not exist.
 End of G2Drv F.D. properties file   788 does not exist.
 Leave Link 1110 at Tue Oct 15 20:06:41 2019, MaxMem=   280000000 cpu:              91.5 elap:               3.9
 (Enter /home/soft/g16/l1002.exe)
 Minotr:  Closed shell wavefunction.
          IDoAtm=11111111111
          Direct CPHF calculation.
          Differentiating once with respect to nuclear coordinates.
          Requested convergence is 1.0D-08 RMS, and 1.0D-07 maximum.
          Secondary convergence is 1.0D-12 RMS, and 1.0D-12 maximum.
          NewPWx=T KeepS1=F KeepF1=F KeepIn=T MapXYZ=F SortEE=F KeepMc=T.
         3335 words used for storage of precomputed grid.
 Keep R1 ints in memory in canonical form, NReq=57016494.
 FoFCou: FMM=F IPFlag=           0 FMFlag=           0 FMFlg1=           0
         NFxFlg=           0 DoJE=F BraDBF=F KetDBF=F FulRan=T
         wScrn=  0.000000 ICntrl=       600 IOpCl=  0 I1Cent=           0 NGrid=           0
         NMat0=    1 NMatS0=   8256 NMatT0=    0 NMatD0=    1 NMtDS0=    0 NMtDT0=    0
 Symmetry not used in FoFCou.
 Two-electron integral symmetry not used.
          MDV=     280000000 using IRadAn=       1.
          Solving linear equations simultaneously, MaxMat=       0.
          There are    36 degrees of freedom in the 1st order CPHF.  IDoFFX=6 NUNeed=     0.
     30 vectors produced by pass  0 Test12= 6.00D-15 2.78D-09 XBig12= 1.91D-01 1.14D-01.
 AX will form    30 AO Fock derivatives at one time.
     30 vectors produced by pass  1 Test12= 6.00D-15 2.78D-09 XBig12= 6.28D-02 5.89D-02.
     30 vectors produced by pass  2 Test12= 6.00D-15 2.78D-09 XBig12= 8.15D-04 4.77D-03.
     30 vectors produced by pass  3 Test12= 6.00D-15 2.78D-09 XBig12= 2.94D-06 2.32D-04.
     30 vectors produced by pass  4 Test12= 6.00D-15 2.78D-09 XBig12= 4.65D-09 1.19D-05.
     28 vectors produced by pass  5 Test12= 6.00D-15 2.78D-09 XBig12= 6.68D-12 4.65D-07.
      3 vectors produced by pass  6 Test12= 6.00D-15 2.78D-09 XBig12= 7.08D-15 1.18D-08.
 InvSVY:  IOpt=1 It=  1 EMax= 2.66D-15
 Solved reduced A of dimension   181 with    30 vectors.
 End of Minotr F.D. properties file   721 does not exist.
 End of Minotr F.D. properties file   722 does not exist.
 End of Minotr F.D. properties file   788 does not exist.
 Leave Link 1002 at Tue Oct 15 20:06:46 2019, MaxMem=   280000000 cpu:             109.6 elap:               4.7
 (Enter /home/soft/g16/l601.exe)
 Copying SCF densities to generalized density rwf, IOpCl= 0 IROHF=0.

 **********************************************************************

            Population analysis using the SCF density.

 **********************************************************************

 Orbital symmetries:
       Occupied  (A) (A) (A) (A) (A) (A) (A) (A) (A) (A) (A) (A)
                 (A) (A) (A) (A) (A) (A) (A) (A)
       Virtual   (A) (A) (A) (A) (A) (A) (A) (A) (A) (A) (A) (A)
                 (A) (A) (A) (A) (A) (A) (A) (A) (A) (A) (A) (A)
                 (A) (A) (A) (A) (A) (A) (A) (A) (A) (A) (A) (A)
                 (A) (A) (A) (A) (A) (A) (A) (A) (A) (A) (A) (A)
                 (A) (A) (A) (A) (A) (A) (A) (A) (A) (A) (A) (A)
                 (A) (A) (A) (A) (A) (A) (A) (A) (A) (A) (A) (A)
                 (A) (A) (A) (A) (A) (A) (A) (A) (A) (A) (A) (A)
                 (A) (A) (A) (A) (A) (A) (A) (A) (A) (A) (A) (A)
                 (A) (A) (A) (A) (A) (A) (A) (A) (A) (A) (A) (A)
 The electronic state is 1-A.
 Alpha  occ. eigenvalues --  -19.18484 -19.11169 -10.30716 -10.24838 -10.20691
 Alpha  occ. eigenvalues --   -1.08633  -0.95696  -0.75802  -0.64665  -0.61933
 Alpha  occ. eigenvalues --   -0.51769  -0.50130  -0.45395  -0.44590  -0.42347
 Alpha  occ. eigenvalues --   -0.40314  -0.36857  -0.33086  -0.26713  -0.24557
 Alpha virt. eigenvalues --   -0.10370  -0.04673  -0.00075   0.01896   0.01997
 Alpha virt. eigenvalues --    0.04076   0.05699   0.05940   0.06619   0.08210
 Alpha virt. eigenvalues --    0.08612   0.09642   0.11113   0.12286   0.14489
 Alpha virt. eigenvalues --    0.15387   0.16696   0.19345   0.19723   0.21040
 Alpha virt. eigenvalues --    0.21646   0.23542   0.24649   0.25891   0.26400
 Alpha virt. eigenvalues --    0.27348   0.27883   0.30056   0.30275   0.32626
 Alpha virt. eigenvalues --    0.39185   0.39886   0.43053   0.45229   0.47097
 Alpha virt. eigenvalues --    0.48683   0.52870   0.54172   0.58252   0.60970
 Alpha virt. eigenvalues --    0.62160   0.64000   0.66364   0.69040   0.70572
 Alpha virt. eigenvalues --    0.73189   0.79976   0.90364   0.96781   1.04426
 Alpha virt. eigenvalues --    1.07180   1.07309   1.11141   1.13113   1.15277
 Alpha virt. eigenvalues --    1.16118   1.29230   1.31533   1.36149   1.39980
 Alpha virt. eigenvalues --    1.44198   1.47295   1.54458   1.56513   1.59269
 Alpha virt. eigenvalues --    1.61735   1.68232   1.70344   1.77740   1.82866
 Alpha virt. eigenvalues --    1.92076   2.02795   2.36459   2.39483   2.42994
 Alpha virt. eigenvalues --    2.45960   2.50579   2.52609   2.60445   2.67887
 Alpha virt. eigenvalues --    2.79984   2.83774   2.86379   2.88218   2.91386
 Alpha virt. eigenvalues --    3.04345   3.07871   3.08980   3.13693   3.18224
 Alpha virt. eigenvalues --    3.22621   3.24658   3.29338   3.38375   3.59349
 Alpha virt. eigenvalues --    3.89488   3.95911   4.96496   5.01532   5.03511
 Alpha virt. eigenvalues --    5.08168   5.41230   5.54460  23.46660  23.50292
 Alpha virt. eigenvalues --   23.62649  49.82981  49.86345
          Condensed to atoms (all electrons):
               1          2          3          4          5          6
     1  C    5.353233   0.375300   0.255269   0.079339  -0.041036  -0.045404
     2  H    0.375300   0.508709  -0.059837  -0.059239   0.003599  -0.001219
     3  O    0.255269  -0.059837   8.078961  -0.047922  -0.008796   0.010822
     4  C    0.079339  -0.059239  -0.047922   6.061293   0.406119   0.340145
     5  H   -0.041036   0.003599  -0.008796   0.406119   0.403063  -0.034333
     6  H   -0.045404  -0.001219   0.010822   0.340145  -0.034333   0.482640
     7  C    0.003864  -0.004162  -0.009197   0.026483  -0.016560   0.002324
     8  H    0.031650  -0.000169  -0.002852  -0.074937  -0.002921   0.001086
     9  H   -0.046659  -0.000533   0.005075   0.008611   0.001618   0.000045
    10  O   -0.011886  -0.001140  -0.038303  -0.050977  -0.005616   0.005127
    11  H    0.048929   0.000637   0.055431  -0.118293   0.000017   0.001241
               7          8          9         10         11
     1  C    0.003864   0.031650  -0.046659  -0.011886   0.048929
     2  H   -0.004162  -0.000169  -0.000533  -0.001140   0.000637
     3  O   -0.009197  -0.002852   0.005075  -0.038303   0.055431
     4  C    0.026483  -0.074937   0.008611  -0.050977  -0.118293
     5  H   -0.016560  -0.002921   0.001618  -0.005616   0.000017
     6  H    0.002324   0.001086   0.000045   0.005127   0.001241
     7  C    5.420906   0.403486   0.379394   0.166199   0.029960
     8  H    0.403486   0.504859  -0.067918  -0.048462   0.006400
     9  H    0.379394  -0.067918   0.562106  -0.072280  -0.007870
    10  O    0.166199  -0.048462  -0.072280   8.275474   0.159219
    11  H    0.029960   0.006400  -0.007870   0.159219   0.491019
 Mulliken charges:
               1
     1  C   -0.002600
     2  H    0.238052
     3  O   -0.238651
     4  C   -0.570622
     5  H    0.294848
     6  H    0.237526
     7  C   -0.402696
     8  H    0.249777
     9  H    0.238411
    10  O   -0.377355
    11  H    0.333311
 Sum of Mulliken charges =  -0.00000
 Mulliken charges with hydrogens summed into heavy atoms:
               1
     1  C    0.235452
     3  O    0.094660
     4  C   -0.038248
     7  C    0.085492
    10  O   -0.377355
 APT charges:
               1
     1  C   -0.214911
     2  H    0.581575
     3  O   -0.314404
     4  C   -1.094312
     5  H    0.508226
     6  H    0.504291
     7  C   -0.946906
     8  H    0.607457
     9  H    0.470359
    10  O   -0.486418
    11  H    0.385042
 Sum of APT charges =  -0.00000
 APT charges with hydrogens summed into heavy atoms:
               1
     1  C    0.366664
     3  O    0.070638
     4  C   -0.081795
     7  C    0.130911
    10  O   -0.486418
 Electronic spatial extent (au):  <R**2>=            474.1641
 Charge=             -0.0000 electrons
 Dipole moment (field-independent basis, Debye):
    X=             -2.0009    Y=              3.4809    Z=              1.5305  Tot=              4.2969
 Quadrupole moment (field-independent basis, Debye-Ang):
   XX=            -32.6031   YY=            -32.4081   ZZ=            -30.2835
   XY=              1.4288   XZ=             -0.2413   YZ=             -1.3075
 Traceless Quadrupole moment (field-independent basis, Debye-Ang):
   XX=             -0.8382   YY=             -0.6432   ZZ=              1.4814
   XY=              1.4288   XZ=             -0.2413   YZ=             -1.3075
 Octapole moment (field-independent basis, Debye-Ang**2):
  XXX=             -5.2299  YYY=             -3.8828  ZZZ=             -0.3841  XYY=             -1.9507
  XXY=             13.4681  XXZ=              3.7606  XZZ=             -1.9296  YZZ=              0.1308
  YYZ=              0.9811  XYZ=             -1.2263
 Hexadecapole moment (field-independent basis, Debye-Ang**3):
 XXXX=           -355.1917 YYYY=           -185.0509 ZZZZ=            -54.2848 XXXY=              7.7923
 XXXZ=             -5.3526 YYYX=              2.8243 YYYZ=              0.4724 ZZZX=              1.1433
 ZZZY=             -1.5715 XXYY=           -104.9913 XXZZ=            -68.2474 YYZZ=            -41.4646
 XXYZ=              0.9190 YYXZ=             -1.2695 ZZXY=              0.7286
 N-N= 1.671895225927D+02 E-N=-9.628710212240D+02  KE= 2.667166215698D+02
  Exact polarizability:   0.000   0.000   0.000   0.000   0.000   0.000
 Approx polarizability: 141.007  -2.720  86.795  -6.140   0.477  52.702
 No NMR shielding tensors so no spin-rotation constants.
 Leave Link  601 at Tue Oct 15 20:06:46 2019, MaxMem=   280000000 cpu:               2.5 elap:               0.1
 (Enter /home/soft/g16/l701.exe)
 ... and contract with generalized density number  0.
 Compute integral second derivatives.
 Leave Link  701 at Tue Oct 15 20:06:46 2019, MaxMem=   280000000 cpu:               4.7 elap:               0.2
 (Enter /home/soft/g16/l702.exe)
 L702 exits ... SP integral derivatives will be done elsewhere.
 Leave Link  702 at Tue Oct 15 20:06:46 2019, MaxMem=   280000000 cpu:               1.0 elap:               0.1
 (Enter /home/soft/g16/l703.exe)
 Integral derivatives from FoFJK, PRISM(SPDF).
 Compute integral second derivatives, UseDBF=F ICtDFT=           0.
 Calling FoFJK, ICntrl=    100147 FMM=F ISym2X=0 I1Cent= 0 IOpClX= 0 NMat=1 NMatS=1 NMatT=0.
 FoFJK:  IHMeth= 1 ICntrl=  100147 DoSepK=F KAlg= 0 I1Cent=           0 FoldK=F
 IRaf=         0 NMat=       1 IRICut=       1 DoRegI=T DoRafI=F ISym2E= 0 IDoP0=0 IntGTp=1.
 FoFCou: FMM=F IPFlag=           0 FMFlag=      100000 FMFlg1=         800
         NFxFlg=           0 DoJE=F BraDBF=F KetDBF=F FulRan=T
         wScrn=  0.000000 ICntrl=    100147 IOpCl=  0 I1Cent=           0 NGrid=           0
         NMat0=    1 NMatS0=      1 NMatT0=    0 NMatD0=    1 NMtDS0=    0 NMtDT0=    0
 Symmetry not used in FoFCou.
 Leave Link  703 at Tue Oct 15 20:06:52 2019, MaxMem=   280000000 cpu:             142.3 elap:               6.0
 (Enter /home/soft/g16/l716.exe)
 Dipole        =-7.87226670D-01 1.36950314D+00 6.02150936D-01
 Polarizability= 0.00000000D+00 0.00000000D+00 0.00000000D+00
                 0.00000000D+00 0.00000000D+00 0.00000000D+00
 ***** Axes restored to original set *****
 -------------------------------------------------------------------
 Center     Atomic                   Forces (Hartrees/Bohr)
 Number     Number              X              Y              Z
 -------------------------------------------------------------------
      1        6           0.069238811   -0.032002829   -0.004153843
      2        1          -0.019471876    0.003965404   -0.000899748
      3        8          -0.004439882   -0.011562807   -0.031751728
      4        6          -0.018114655    0.035087438   -0.038406601
      5        1           0.019740717    0.001648071    0.002428511
      6        1          -0.008047654   -0.012911759   -0.001611657
      7        6           0.010990465    0.072772775    0.022223875
      8        1           0.006242139   -0.013649230    0.016698506
      9        1          -0.023647509   -0.005171832   -0.003873972
     10        8          -0.060356437    0.000965186    0.019786635
     11        1           0.027865880   -0.039140417    0.019560023
 -------------------------------------------------------------------
 Cartesian Forces:  Max     0.072772775 RMS     0.027414601
 Force constants in Cartesian coordinates: 
                1             2             3             4             5 
      1  0.721986D+00
      2  0.130520D+00  0.547998D+00
      3 -0.295953D-01 -0.292120D-01  0.207457D+00
      4 -0.362475D+00  0.216047D-01  0.127700D-01  0.383727D+00
      5  0.218960D-01 -0.520649D-01 -0.410399D-02 -0.281141D-02  0.558391D-01
      6  0.754885D-02 -0.828412D-02 -0.447965D-01 -0.139660D-01 -0.267014D-02
      7 -0.206210D+00 -0.139765D+00  0.147667D-01 -0.162296D-01 -0.414000D-01
      8 -0.181121D+00 -0.382578D+00  0.139376D-01 -0.195491D-01 -0.456155D-02
      9  0.137332D-01 -0.109752D-01 -0.691687D-01  0.377122D-02  0.711521D-02
     10 -0.129914D+00 -0.212060D-01 -0.539499D-02 -0.513777D-02  0.202007D-01
     11  0.370005D-01 -0.900791D-01 -0.340251D-02 -0.272023D-02  0.414949D-02
     12 -0.518911D-02  0.368002D-01 -0.810738D-01 -0.256635D-03  0.332595D-02
     13 -0.123286D-01  0.104914D-01 -0.106210D-01 -0.988669D-03  0.313082D-02
     14  0.209301D-01 -0.161188D-02  0.247436D-01  0.135344D-02 -0.321451D-02
     15  0.236381D-03 -0.770609D-02 -0.408738D-03  0.957991D-03 -0.642144D-03
     16  0.143143D-01  0.149321D-01  0.922542D-04  0.616258D-03 -0.942592D-03
     17 -0.250535D-01 -0.183588D-01  0.154418D-02  0.988640D-03  0.101048D-02
     18 -0.786791D-03  0.263096D-02 -0.429949D-02 -0.204633D-03 -0.191144D-03
     19 -0.477295D-02  0.593870D-01  0.484241D-02 -0.366210D-03 -0.986242D-03
     20  0.104488D-01  0.350109D-01 -0.135740D-01  0.130046D-02 -0.301433D-02
     21 -0.177154D-02 -0.485806D-01 -0.498805D-03 -0.877967D-03  0.138825D-02
     22 -0.442763D-03 -0.478135D-02  0.752376D-03 -0.170510D-04  0.434608D-03
     23 -0.671405D-03 -0.307307D-02  0.570352D-03 -0.549568D-05  0.353821D-03
     24  0.294353D-02  0.980833D-02 -0.350886D-02  0.440190D-03 -0.580082D-03
     25  0.111554D-02 -0.660448D-02  0.101468D-02  0.945412D-05  0.348559D-03
     26  0.217215D-03  0.215608D-02 -0.118213D-02  0.379357D-04  0.110657D-03
     27 -0.969523D-03  0.483326D-02 -0.608619D-03  0.255815D-03 -0.227081D-03
     28  0.919909D-03 -0.838021D-02  0.224833D-03 -0.137068D-03 -0.567888D-03
     29 -0.869254D-02 -0.576678D-01  0.254452D-02  0.414198D-03  0.267076D-02
     30 -0.219270D-02 -0.270605D-02  0.211232D-02  0.394104D-03  0.629891D-03
     31 -0.221930D-01 -0.561976D-01  0.111481D-01  0.998232D-03  0.697398D-03
     32 -0.547433D-02  0.202686D-01  0.813429D-02 -0.613096D-03 -0.127907D-02
     33  0.160429D-01  0.533912D-01 -0.520626D-02 -0.328402D-02 -0.404473D-02
                6             7             8             9            10 
      6  0.105443D-01
      7  0.913131D-02  0.183239D+00
      8  0.580585D-02  0.188434D+00  0.482961D+00
      9  0.147248D-01  0.712595D-02  0.535947D-02  0.153563D-01
     10 -0.416717D-02  0.469529D-01  0.426071D-02 -0.896205D-02  0.431467D+00
     11  0.623659D-02 -0.188109D-01 -0.654154D-01  0.105764D-01  0.153297D+00
     12  0.251676D-01 -0.219569D-01 -0.149902D-01  0.188836D-01  0.224130D+00
     13  0.159130D-02 -0.412058D-02 -0.653818D-02  0.361213D-02 -0.136812D+00
     14 -0.340397D-02 -0.192190D-02  0.190492D-03 -0.320370D-02  0.671629D-02
     15 -0.109771D-02  0.453327D-02  0.362918D-02 -0.924722D-03 -0.177579D+00
     16  0.571600D-03 -0.132484D-02  0.576381D-02 -0.161103D-02 -0.182053D+00
     17 -0.866592D-03  0.463300D-02 -0.853592D-02  0.895960D-03 -0.153729D+00
     18 -0.147216D-02  0.899768D-03 -0.307769D-03  0.582594D-02 -0.208436D-02
     19  0.278489D-02 -0.352870D-01 -0.327931D-01  0.228955D-01  0.161353D-01
     20  0.553842D-02 -0.245735D-01 -0.166395D-01  0.170330D-01  0.165589D-01
     21 -0.562652D-02  0.268208D-01  0.255345D-01 -0.129834D-01 -0.692505D-01
     22 -0.223613D-03  0.309260D-02  0.215812D-02 -0.299714D-02 -0.507647D-02
     23  0.102637D-03  0.241083D-02  0.242550D-02 -0.312634D-02 -0.176240D-02
     24  0.242454D-02 -0.704947D-02 -0.377925D-02  0.329619D-02  0.141646D-01
     25  0.241410D-03  0.237276D-02  0.438632D-02 -0.262255D-02  0.296623D-02
     26  0.562520D-03 -0.788125D-03 -0.111742D-02 -0.981595D-04  0.250622D-02
     27 -0.272454D-04 -0.895268D-03 -0.356737D-02  0.271524D-03 -0.189762D-02
     28 -0.279693D-02  0.746744D-03  0.569779D-02  0.708857D-02 -0.203330D-01
     29 -0.469353D-02  0.437087D-01  0.298864D-01 -0.295938D-01 -0.349525D-01
     30  0.191405D-04  0.113272D-01 -0.328723D-02 -0.797486D-02  0.138116D-01
     31 -0.715622D-03  0.267677D-01  0.292999D-01 -0.420339D-01 -0.181947D-01
     32  0.167233D-02 -0.119272D-01 -0.366149D-01  0.601707D-02  0.810992D-02
     33  0.139689D-03 -0.447033D-01 -0.283348D-01  0.326934D-01  0.172297D-01
               11            12            13            14            15 
     11  0.465651D+00
     12 -0.430922D-01  0.318383D+00
     13  0.443913D-03 -0.165698D+00  0.159926D+00
     14 -0.405343D-01  0.185359D-01 -0.104385D-01  0.415497D-01
     15  0.203861D-01 -0.242291D+00  0.175643D+00 -0.149326D-01  0.252431D+00
     16 -0.165437D+00 -0.110836D-01 -0.122807D-01 -0.159954D-01  0.201469D-02
     17 -0.225032D+00 -0.146116D-02  0.307835D-02  0.366531D-02 -0.374552D-03
     18  0.600829D-02 -0.359322D-01 -0.155148D-01 -0.202859D-01  0.128124D-02
     19 -0.208597D-01 -0.626668D-01  0.280588D-02 -0.258937D-02 -0.471500D-02
     20 -0.579178D-01 -0.210367D-01 -0.218159D-02 -0.699898D-03  0.107909D-02
     21  0.181143D-01  0.244701D-01  0.157798D-01 -0.113415D-02 -0.137311D-01
     22  0.576812D-02 -0.113838D-03  0.879813D-03  0.155684D-03 -0.179864D-03
     23  0.332312D-02 -0.193211D-04  0.369518D-03  0.471025D-04 -0.559577D-03
     24 -0.148264D-01 -0.587448D-02 -0.195129D-02 -0.590608D-04  0.178490D-02
     25  0.396720D-02  0.126091D-01 -0.213945D-02  0.686704D-03  0.253683D-02
     26 -0.102925D-02 -0.345822D-02 -0.212389D-03  0.957466D-04 -0.167198D-04
     27 -0.274672D-02 -0.980565D-02  0.179713D-02 -0.198582D-03 -0.130349D-02
     28 -0.621358D-02  0.169512D-01  0.176565D-02  0.189585D-03 -0.103553D-02
     29  0.160588D-01  0.330668D-01  0.404231D-02  0.599449D-03 -0.259834D-02
     30  0.150188D-01 -0.177849D-02 -0.197658D-02  0.668725D-03  0.213925D-02
     31  0.135644D-01  0.132745D-01  0.329310D-02  0.913362D-03 -0.241285D-02
     32 -0.917455D-02 -0.767111D-02 -0.218567D-02 -0.871372D-04  0.173571D-02
     33 -0.122727D-01 -0.101491D-01 -0.266200D-02 -0.730363D-03  0.212060D-02
               16            17            18            19            20 
     16  0.186172D+00
     17  0.167255D+00  0.243852D+00
     18  0.917008D-02  0.958628D-03  0.354988D-01
     19 -0.223571D-02  0.177295D-02  0.491343D-02  0.412711D+00
     20 -0.474960D-02  0.265675D-02  0.102526D-01 -0.136178D+00  0.487921D+00
     21 -0.419134D-02  0.993090D-03  0.448993D-02  0.257909D+00  0.214264D-01
     22 -0.482617D-03 -0.683504D-05  0.264835D-03 -0.168638D+00  0.162173D+00
     23  0.270766D-03 -0.180841D-03 -0.519828D-03  0.157593D+00 -0.229769D+00
     24  0.305449D-03  0.350799D-03  0.123744D-03 -0.272781D-01  0.110045D-01
     25  0.250498D-03 -0.488866D-03 -0.101748D-02 -0.140606D+00  0.368509D-02
     26  0.131317D-03  0.693873D-04 -0.200616D-03 -0.300481D-02 -0.455049D-01
     27  0.593304D-03  0.428616D-03 -0.448784D-03 -0.163420D+00 -0.141039D-01
     28 -0.185193D-02  0.691160D-03  0.372368D-02 -0.114713D+00 -0.437196D-01
     29 -0.155420D-02  0.854612D-03  0.174857D-02 -0.135843D-01 -0.146503D+00
     30  0.333838D-02 -0.910309D-03 -0.446838D-02 -0.444705D-02 -0.113789D-02
     31 -0.112433D-02  0.858973D-03  0.636297D-03  0.349670D-01  0.172355D-01
     32  0.325522D-03 -0.172378D-05 -0.938055D-04 -0.875792D-02 -0.255396D-01
     33  0.800243D-03 -0.155867D-02 -0.598574D-03 -0.308185D-01 -0.164815D-01
               21            22            23            24            25 
     21  0.341596D+00
     22 -0.297798D-01  0.167423D+00
     23  0.237096D-01 -0.160322D+00  0.258011D+00
     24 -0.372379D-01  0.284110D-01 -0.274341D-01  0.377073D-01
     25 -0.150291D+00 -0.945958D-02 -0.200331D-03 -0.183753D-01  0.164315D+00
     26 -0.105997D-01  0.161568D-01  0.432415D-02  0.201151D-01  0.180308D-01
     27 -0.247247D+00 -0.308845D-02 -0.930114D-03  0.424596D-03  0.164978D+00
     28 -0.228132D-01  0.162714D-01  0.680783D-02  0.316153D-02 -0.169065D-01
     29 -0.406909D-01 -0.211708D-01 -0.359623D-01  0.900463D-02 -0.242855D-01
     30 -0.710938D-01  0.306501D-02  0.319927D-02  0.429406D-02 -0.130812D-01
     31 -0.215343D-01 -0.355101D-02 -0.449102D-02  0.522784D-02 -0.191712D-02
     32  0.983917D-02 -0.566265D-03  0.501339D-03 -0.360447D-02  0.474498D-03
     33  0.178625D-01  0.388946D-02  0.500746D-02 -0.343412D-02  0.400796D-02
               26            27            28            29            30 
     26  0.552694D-01
     27  0.172355D-01  0.248262D+00
     28 -0.325524D-01  0.218436D-02  0.146361D+00
     29 -0.143412D-01 -0.928975D-03  0.109162D+00  0.176456D+00
     30 -0.215582D-01  0.114852D-01  0.162992D-02 -0.497119D-02  0.801943D-01
     31 -0.522613D-03  0.462796D-03 -0.121230D-01 -0.530873D-01 -0.118687D-01
     32 -0.326919D-04  0.205384D-03 -0.311145D-01  0.279486D-01  0.150542D-01
     33 -0.799394D-03 -0.100295D-02 -0.831848D-02  0.371122D-01 -0.149287D-01
               31            32            33 
     31 -0.692294D-02
     32  0.517291D-01  0.240111D-01
     33  0.478159D-01 -0.312887D-01 -0.174966D-01
 FormGI is forming the generalized inverse of G from B-inverse, IUseBI=4.
 Force constants in internal coordinates: 
                1             2             3             4             5 
      1  0.384251D+00
      2  0.242500D-01  0.627324D+00
      3  0.232041D-02  0.971710D-01  0.212241D+00
      4 -0.258130D-02  0.287543D-01 -0.256252D-02  0.564425D-02
      5 -0.132708D-03 -0.787362D-03  0.373733D-02  0.261917D-03  0.388087D+00
      6  0.116122D-02  0.259820D-02  0.315745D-02  0.742609D-03  0.200241D-02
      7 -0.263742D-04  0.125228D-03 -0.556808D-03  0.154511D-02  0.431304D-03
      8  0.209561D-03  0.127525D-02 -0.363424D-03  0.325434D-02 -0.436786D-03
      9  0.682571D-03  0.179441D-01 -0.542454D-01  0.106032D-01  0.989588D-03
     10  0.160918D-02 -0.608572D-01  0.471760D-03  0.313677D-01  0.184038D-03
     11  0.366107D-02 -0.192379D-01 -0.535776D-01 -0.530860D-02  0.120387D-02
     12  0.483829D-02 -0.731468D-01 -0.335747D-01 -0.640813D-03  0.415120D-02
     13 -0.849503D-02  0.923197D-01  0.878273D-01  0.599964D-02 -0.532262D-02
     14 -0.198832D-02  0.817287D-01  0.143994D+00  0.592367D-01  0.655943D-04
     15  0.354445D-02 -0.598766D-02  0.276131D-01 -0.703793D-02  0.109830D-01
     16  0.114285D-04 -0.673896D-02  0.196957D-01 -0.776159D-02 -0.609577D-02
     17 -0.834966D-03 -0.532157D-02 -0.154067D-01 -0.213388D-03  0.509995D-02
     18 -0.204765D-03 -0.354090D-02  0.802304D-02 -0.102485D-01 -0.672570D-04
     19  0.303872D-04 -0.166510D-02  0.813977D-02  0.405121D-02 -0.222543D-04
     20 -0.195961D-03  0.130419D-02  0.194099D-03 -0.765600D-02 -0.313561D-03
     21  0.270837D-02 -0.120779D+00 -0.441843D-01  0.114695D-01  0.879926D-03
     22  0.320206D-03 -0.866779D-01  0.800813D-01  0.587815D-01  0.180935D-02
     23 -0.230198D-02 -0.299823D-01  0.372161D-01  0.517719D-03  0.131410D-02
     24 -0.196019D-02 -0.351161D-01  0.829291D-01  0.393719D-02  0.356680D-02
     25 -0.793015D-03  0.957882D-03  0.117955D-01  0.662285D-02 -0.375895D-02
     26  0.361887D-03 -0.133531D-01  0.218968D-01 -0.270131D-02  0.548000D-02
     27 -0.112215D-02  0.554201D-02 -0.334276D-01  0.327108D-02 -0.596943D-02
     28  0.327522D-04 -0.876898D-02 -0.233263D-01 -0.605308D-02  0.326952D-02
     29 -0.255041D-03 -0.878239D-01  0.452052D-01 -0.458587D-02  0.617674D-02
     30  0.212846D-03  0.343900D-02 -0.151349D-01  0.619366D-02  0.265497D-03
     31 -0.387926D-03 -0.240445D-02  0.209550D-01 -0.316046D-02  0.786377D-03
     32 -0.271456D-04  0.218997D-02  0.577687D-02  0.119234D-01  0.108546D-02
     33 -0.506837D-03 -0.952193D-01  0.566719D-01  0.147647D-01  0.540534D-02
                6             7             8             9            10 
      6  0.384706D+00
      7  0.191789D-03  0.383070D+00
      8  0.468960D-03  0.413738D-02  0.377760D+00
      9 -0.104400D-02  0.153338D-01  0.182493D-01  0.257980D+00
     10  0.174813D-03 -0.179827D-02  0.662892D-03  0.583291D-01 -0.195347D-01
     11 -0.520307D-02 -0.114616D-02 -0.164423D-02  0.709908D-02  0.236970D-01
     12 -0.554184D-02 -0.125459D-02 -0.167701D-02  0.129085D-01  0.214555D-01
     13  0.107689D-01  0.241207D-02  0.334295D-02 -0.196521D-01 -0.455482D-01
     14  0.851543D-02  0.491192D-02  0.944984D-02  0.113735D+00 -0.840306D-01
     15 -0.643948D-02 -0.278638D-03  0.414494D-03  0.216456D-05 -0.198678D-02
     16  0.723510D-02 -0.943792D-03 -0.103085D-02  0.118758D-01  0.320677D-02
     17  0.628286D-02  0.340981D-04 -0.290506D-03  0.206223D-02 -0.848057D-03
     18 -0.341921D-03  0.103094D-01  0.119852D-01 -0.176824D-01 -0.881392D-02
     19 -0.119309D-03  0.925893D-04 -0.507305D-02  0.108168D-01 -0.789816D-02
     20 -0.415402D-03 -0.490713D-02 -0.379873D-03  0.461801D-01 -0.212346D-02
     21  0.350061D-03  0.150508D-02  0.306980D-02  0.184061D+00  0.542368D-01
     22  0.458241D-02  0.290825D-02  0.727342D-02  0.176190D+00  0.378334D-03
     23 -0.976091D-03  0.392614D-03  0.856218D-03  0.436586D-01 -0.197351D-01
     24  0.604969D-03  0.115236D-02  0.232029D-02  0.680213D-01 -0.465163D-01
     25 -0.433348D-02  0.516747D-03  0.654311D-03  0.109344D-01 -0.101974D-01
     26  0.384863D-02 -0.190073D-03 -0.789257D-04  0.207338D-01 -0.104889D-01
     27 -0.590679D-02 -0.239071D-03 -0.800622D-03 -0.132229D-01  0.163906D-01
     28  0.227533D-02 -0.945891D-03 -0.153386D-02 -0.342347D-02  0.160991D-01
     29 -0.456561D-02 -0.208988D-02 -0.920500D-03  0.788253D-01 -0.482382D-01
     30  0.619788D-03 -0.346816D-02 -0.990595D-03 -0.311836D-01  0.165378D-01
     31 -0.298471D-03  0.383257D-02  0.582318D-02  0.606740D-02 -0.207094D-01
     32  0.467468D-03 -0.584453D-02 -0.560069D-02 -0.852457D-02 -0.346142D-02
     33 -0.155882D-02 -0.640062D-03  0.302497D-02  0.138748D+00 -0.500742D-01
               11            12            13            14            15 
     11  0.162694D+00
     12  0.207157D-01  0.146476D+00
     13 -0.183121D+00 -0.167394D+00  0.350440D+00
     14 -0.105210D+00 -0.115046D+00  0.220382D+00  0.279633D+00
     15 -0.656832D-02  0.838266D-02 -0.196430D-02 -0.250219D-01  0.129147D+00
     16  0.121556D-01  0.590791D-02 -0.182028D-01 -0.702908D-01 -0.201322D-01
     17  0.488285D-02  0.343970D-02 -0.841191D-02 -0.936087D-02 -0.349518D-01
     18  0.237621D-02  0.197183D-02 -0.444794D-02 -0.404016D-01  0.204204D-03
     19  0.221970D-02  0.140430D-02 -0.356245D-02 -0.154411D-02 -0.221565D-02
     20 -0.364776D-02 -0.472807D-02  0.818695D-02 -0.278196D-01  0.511285D-02
     21  0.620650D-01  0.693669D-01 -0.132393D+00 -0.179772D+00 -0.298251D-02
     22  0.196173D-01  0.170588D-01 -0.368424D-01 -0.720197D-01 -0.445743D-01
     23  0.181499D-01  0.361803D-01 -0.541049D-01 -0.524358D-01 -0.383132D-01
     24  0.380110D-01  0.237991D-01 -0.608034D-01 -0.449145D-01 -0.484566D-01
     25  0.160329D-01 -0.382745D-02 -0.116419D-01  0.222132D-01 -0.249788D-01
     26  0.254346D-01  0.913645D-02 -0.342941D-01 -0.476183D-01 -0.102801D-02
     27 -0.512075D-02  0.969124D-02 -0.478838D-02  0.146684D-01 -0.147517D-01
     28  0.428100D-02  0.226551D-01 -0.274406D-01 -0.551631D-01  0.919911D-02
     29  0.128404D+00  0.124297D+00 -0.251392D+00 -0.144826D+00 -0.764345D-01
     30 -0.192898D-02  0.210750D-05  0.203160D-02  0.444854D-01 -0.600860D-03
     31  0.562776D-02  0.448333D-02 -0.100288D-01 -0.271206D-01 -0.493527D-02
     32  0.363653D-02  0.420031D-02 -0.754783D-02  0.418192D-01 -0.708722D-02
     33  0.938496D-01  0.925247D-01 -0.185600D+00 -0.115497D+00 -0.643042D-01
               16            17            18            19            20 
     16  0.154574D+00
     17 -0.471176D-01  0.531794D-01
     18 -0.205010D-03 -0.296077D-04  0.694181D-01
     19  0.238181D-03 -0.306375D-03 -0.265535D-01  0.680519D-01
     20 -0.750889D-03  0.195712D-04 -0.246887D-01 -0.598223D-01  0.174588D+00
     21  0.778784D-02 -0.392287D-03 -0.333906D-01 -0.155405D-01 -0.136661D-01
     22 -0.213911D-01 -0.758940D-02 -0.440641D-01 -0.161188D-01 -0.250550D-01
     23  0.852520D-02 -0.695898D-03 -0.925179D-02  0.556359D-02 -0.155923D-01
     24 -0.920370D-03 -0.675611D-02 -0.160449D-01  0.977388D-02 -0.285178D-01
     25 -0.712768D-02 -0.926391D-02 -0.339452D-02  0.389134D-02 -0.978609D-02
     26  0.174940D-01  0.561019D-02 -0.343128D-02  0.230516D-02 -0.709098D-02
     27  0.219593D-02 -0.325638D-02  0.335206D-02 -0.301334D-03  0.304982D-02
     28  0.268176D-01  0.116177D-01  0.331531D-02 -0.188751D-02  0.574493D-02
     29  0.433788D-01 -0.254316D-02 -0.948745D-02  0.297908D-01 -0.603326D-01
     30  0.304608D-03  0.383106D-03  0.485326D-02 -0.297362D-01 -0.202667D-01
     31  0.820865D-04 -0.500732D-03  0.248308D-01 -0.364666D-02  0.649499D-02
     32  0.669786D-03 -0.284287D-03 -0.286425D-01  0.250303D-01 -0.376909D-01
     33  0.185797D-01 -0.436701D-02 -0.269483D-01  0.236163D-01 -0.694449D-01
               21            22            23            24            25 
     21  0.416839D+00
     22  0.710614D-01 -0.363807D-01
     23 -0.471301D-01 -0.333921D-02  0.570352D-01
     24 -0.111999D+00 -0.145141D-01  0.727421D-01  0.141614D+00
     25 -0.268220D-01  0.301552D-01  0.343309D-01  0.727203D-01  0.423706D-01
     26 -0.243598D-01 -0.195353D-01  0.152372D-01  0.342087D-01  0.113636D-01
     27  0.377015D-01  0.412314D-01  0.188916D-01  0.412823D-02  0.402245D-02
     28  0.401637D-01 -0.845905D-02 -0.202086D-03 -0.343834D-01 -0.269846D-01
     29 -0.119053D+00  0.227252D-01  0.163662D+00  0.254081D+00  0.991619D-01
     30  0.484780D-01  0.629676D-01  0.867801D-02  0.158199D-01  0.345183D-02
     31 -0.709502D-01 -0.614157D-01  0.463579D-02  0.102914D-01  0.669850D-02
     32 -0.110193D-01  0.194343D-01  0.226416D-01  0.423896D-01  0.147592D-01
     33 -0.874142D-01 -0.920029D-01  0.992744D-01  0.152934D+00  0.730878D-01
               26            27            28            29            30 
     26  0.283179D-01
     27 -0.765456D-02  0.188392D-01
     28  0.929979D-02  0.716221D-02  0.434466D-01
     29  0.758048D-01  0.923222D-02 -0.141249D-01  0.797629D+00
     30  0.373962D-02 -0.362667D-02 -0.333888D-02  0.701621D-02  0.462383D-01
     31  0.311328D-02  0.106547D-02 -0.251976D-02  0.643131D-01 -0.150525D-01
     32  0.104812D-01 -0.486199D-02 -0.914003D-02  0.961892D-01  0.106423D-01
     33  0.397389D-01  0.197252D-01 -0.136237D-01  0.535075D+00  0.311954D-01
               31            32            33 
     31  0.484448D-01
     32  0.157821D-01  0.598169D-01
     33  0.422455D-01  0.105501D+00  0.469882D+00
 Leave Link  716 at Tue Oct 15 20:06:52 2019, MaxMem=   280000000 cpu:               2.0 elap:               0.1
 (Enter /home/soft/g16/l103.exe)

 GradGradGradGradGradGradGradGradGradGradGradGradGradGradGradGradGradGrad
 Berny optimization.
 Red2BG is reusing G-inverse.
 Internal  Forces:  Max     0.202778331 RMS     0.063459125
 Search for a saddle point.
 Step number   1 out of a maximum of   43
 All quantities printed in internal units (Hartrees-Bohrs-Radians)
 Swapping is turned off.
 Second derivative matrix not updated -- analytic derivatives used.
 ITU=  0
     Eigenvalues ---   -0.40889  -0.05040  -0.02547   0.01063   0.02610
     Eigenvalues ---    0.03701   0.03857   0.05876   0.07491   0.09669
     Eigenvalues ---    0.10208   0.11242   0.12256   0.14349   0.17543
     Eigenvalues ---    0.19233   0.23140   0.24065   0.37515   0.37983
     Eigenvalues ---    0.38412   0.38564   0.39011   0.50924   0.54068
     Eigenvalues ---    0.94968   1.63111
 Eigenvectors required to have negative eigenvalues:
                          A12       R9        A4        R3        D11
   1                    0.52608  -0.39136   0.34661  -0.27422   0.25667
                          R10       A11       D8        D2        R4
   1                    0.22207   0.20409  -0.18516   0.17419  -0.14171
 Eigenvalue     2 is  -5.04D-02 should be greater than     0.000000 Eigenvector:
                          R10       A12       A4        D7        D11
   1                    0.77967  -0.49279   0.17634   0.14878  -0.14606
                          D2        R4        A11       D1        D3
   1                    0.14372  -0.13153   0.12622   0.08843   0.04953
 Eigenvalue     3 is  -2.55D-02 should be greater than     0.000000 Eigenvector:
                          R4        A12       A11       D1        D2
   1                    0.73243  -0.29957   0.25761   0.25234   0.24173
                          R10       D3        D5        D10       R9
   1                   -0.20647  -0.15638  -0.14633  -0.14279  -0.12344
 RFO step:  Lambda0=9.582836618D-02 Lambda=-1.70136462D-01.
 Linear search not attempted -- option 19 set.
 Maximum step size (   0.300) exceeded in Quadratic search.
    -- Step size scaled by   0.273
 Iteration  1 RMS(Cart)=  0.05733639 RMS(Int)=  0.00417812
 Iteration  2 RMS(Cart)=  0.00938470 RMS(Int)=  0.00034789
 Iteration  3 RMS(Cart)=  0.00005408 RMS(Int)=  0.00034698
 Iteration  4 RMS(Cart)=  0.00000000 RMS(Int)=  0.00034698
 ITry= 1 IFail=0 DXMaxC= 2.10D-01 DCOld= 1.00D+10 DXMaxT= 3.00D-01 DXLimC= 3.00D+00 Rises=F
 Variable       Old X    -DE/DX   Delta X   Delta X   Delta X     New X
                                 (Linear)    (Quad)   (Total)
    R1        2.02201   0.01943   0.00000   0.00823   0.00823   2.03024
    R2        2.38918  -0.02051   0.00000   0.01507   0.01507   2.40425
    R3        2.91018  -0.02386   0.00000  -0.06924  -0.06924   2.84094
    R4        2.82741  -0.08413   0.00000  -0.17167  -0.17167   2.65574
    R5        2.02201   0.01324   0.00000   0.00569   0.00569   2.02770
    R6        2.02201   0.01504   0.00000   0.00630   0.00630   2.02831
    R7        2.02201   0.01577   0.00000   0.00853   0.00853   2.03054
    R8        2.02201   0.01731   0.00000   0.00991   0.00991   2.03192
    R9        2.65533  -0.03961   0.00000  -0.06644  -0.06644   2.58889
   R10        3.26100  -0.09731   0.00000  -0.15407  -0.15407   3.10693
    A1        2.10308   0.00628   0.00000  -0.00873  -0.00874   2.09434
    A2        2.09241   0.01354   0.00000   0.01017   0.01016   2.10257
    A3        2.08756  -0.02030   0.00000  -0.00156  -0.00157   2.08599
    A4        1.83181  -0.18360   0.00000  -0.04686  -0.04686   1.78495
    A5        1.91063   0.00990   0.00000   0.02713   0.02673   1.93736
    A6        1.91063   0.00599   0.00000   0.02008   0.01968   1.93031
    A7        1.91063   0.00267   0.00000   0.00968   0.00894   1.91958
    A8        1.91063   0.00846   0.00000   0.01746   0.01658   1.92721
    A9        1.93084  -0.00259   0.00000   0.02012   0.01914   1.94998
   A10        1.90662   0.02298   0.00000   0.03233   0.03166   1.93828
   A11        1.78960  -0.13156   0.00000  -0.05131  -0.05131   1.73829
   A12        2.30481  -0.20278   0.00000   0.13756   0.13756   2.44237
    D1       -2.19404  -0.04117   0.00000  -0.03068  -0.03071  -2.22475
    D2        0.93058  -0.07338   0.00000  -0.03930  -0.03927   0.89131
    D3       -2.05223  -0.02860   0.00000  -0.03621  -0.03652  -2.08874
    D4        0.04217  -0.01559   0.00000   0.00455   0.00483   0.04700
    D5        1.10623   0.00348   0.00000  -0.02746  -0.02773   1.07850
    D6       -3.08256   0.01648   0.00000   0.01331   0.01362  -3.06894
    D7       -0.93611  -0.01303   0.00000  -0.02635  -0.02635  -0.96247
    D8       -2.11672  -0.01646   0.00000  -0.05586  -0.05642  -2.17314
    D9       -2.79988   0.01417   0.00000   0.04529   0.04565  -2.75422
   D10        1.37890  -0.00947   0.00000  -0.00978  -0.01014   1.36876
   D11        0.92559  -0.09893   0.00000   0.04206   0.04206   0.96766
         Item               Value     Threshold  Converged?
 Maximum Force            0.202778     0.000450     NO 
 RMS     Force            0.063459     0.000300     NO 
 Maximum Displacement     0.209932     0.001800     NO 
 RMS     Displacement     0.061029     0.001200     NO 
 Predicted change in Energy=-2.664892D-02
 Lowest energy point so far.  Saving SCF results.
 GradGradGradGradGradGradGradGradGradGradGradGradGradGradGradGradGradGrad

 Leave Link  103 at Tue Oct 15 20:06:53 2019, MaxMem=   280000000 cpu:               9.9 elap:               0.5
 (Enter /home/soft/g16/l202.exe)
                          Input orientation:                          
 ---------------------------------------------------------------------
 Center     Atomic      Atomic             Coordinates (Angstroms)
 Number     Number       Type             X           Y           Z
 ---------------------------------------------------------------------
      1          6           0       -0.737037    2.661030    0.156542
      2          1           0       -1.811104    2.673385    0.178100
      3          8           0       -0.089869    3.753342    0.074581
      4          6           0        0.011128    1.357469    0.189268
      5          1           0        0.650397    1.302434    1.049303
      6          1           0       -0.672167    0.529731    0.186547
      7          6           0        1.152483    1.279980   -1.437707
      8          1           0        1.781871    0.413052   -1.354715
      9          1           0        0.485807    1.180783   -2.275473
     10          8           0        1.886794    2.433098   -1.526880
     11          1           0        0.758470    3.516423   -1.020506
 ---------------------------------------------------------------------
                    Distance matrix (angstroms):
                    1          2          3          4          5
     1  C    0.000000
     2  H    1.074355   0.000000
     3  O    1.272277   2.034619   0.000000
     4  C    1.503361   2.247730   2.400742   0.000000
     5  H    2.137237   2.949151   2.739531   1.073012   0.000000
     6  H    2.132497   2.427447   3.277693   1.073336   1.758009
     7  C    2.831822   3.651747   3.154040   1.988905   2.537285
     8  H    3.698945   4.513103   4.087032   2.532062   2.801881
     9  H    3.098576   3.677456   3.531602   2.516245   3.331070
    10  O    3.125756   4.079111   2.866168   2.760482   3.073076
    11  H    2.086547   2.958053   1.405356   2.585179   3.032744
                    6          7          8          9         10
     6  H    0.000000
     7  C    2.555469   0.000000
     8  H    2.900242   1.074514   0.000000
     9  H    2.797556   1.075244   1.765499   0.000000
    10  O    3.620348   1.369980   2.030082   2.022732   0.000000
    11  H    3.524773   2.308891   3.284807   2.665427   1.644118
                   11
    11  H    0.000000
 Stoichiometry    C3H6O2
 Framework group  C1[X(C3H6O2)]
 Deg. of freedom    27
 Full point group                 C1      NOp   1
 RotChk:  IX=0 Diff= 2.17D-02
 Largest Abelian subgroup         C1      NOp   1
 Largest concise Abelian subgroup C1      NOp   1
                         Standard orientation:                         
 ---------------------------------------------------------------------
 Center     Atomic      Atomic             Coordinates (Angstroms)
 Number     Number       Type             X           Y           Z
 ---------------------------------------------------------------------
      1          6           0       -1.393247    0.228774    0.229437
      2          1           0       -2.156624    0.585549    0.895925
      3          8           0       -1.360389   -0.999462   -0.100782
      4          6           0       -0.339137    1.164711   -0.293025
      5          1           0       -0.371730    1.221290   -1.364049
      6          1           0       -0.460260    2.143759    0.129875
      7          6           0        1.431484    0.428948    0.235459
      8          1           0        2.188448    1.022749   -0.243065
      9          1           0        1.497631    0.526977    1.304180
     10          8           0        1.503195   -0.885593   -0.143598
     11          1           0       -0.034515   -1.354485    0.200945
 ---------------------------------------------------------------------
 Rotational constants (GHZ):           7.8481926           3.7589306           2.7434856
 Leave Link  202 at Tue Oct 15 20:06:53 2019, MaxMem=   280000000 cpu:               0.9 elap:               0.1
 (Enter /home/soft/g16/l301.exe)
 Standard basis: 6-311+G(d) (5D, 7F)
 Ernie: Thresh=  0.10000D-02 Tol=  0.10000D-05 Strict=F.
 There are   133 symmetry adapted cartesian basis functions of A   symmetry.
 There are   128 symmetry adapted basis functions of A   symmetry.
   128 basis functions,   210 primitive gaussians,   133 cartesian basis functions
    20 alpha electrons       20 beta electrons
       nuclear repulsion energy       169.6589355277 Hartrees.
 IExCor=  402 DFT=T Ex+Corr=B3LYP ExCW=0 ScaHFX=  0.200000
 ScaDFX=  0.800000  0.720000  1.000000  0.810000 ScalE2=  1.000000  1.000000
 IRadAn=      5 IRanWt=     -1 IRanGd=            0 ICorTp=0 IEmpDi=  4
 NAtoms=   11 NActive=   11 NUniq=   11 SFac= 1.00D+00 NAtFMM=   60 NAOKFM=F Big=F
 Integral buffers will be    131072 words long.
 Raffenetti 2 integral format.
 Two-electron integral symmetry is turned on.
 Leave Link  301 at Tue Oct 15 20:06:53 2019, MaxMem=   280000000 cpu:               2.3 elap:               0.1
 (Enter /home/soft/g16/l302.exe)
 NPDir=0 NMtPBC=     1 NCelOv=     1 NCel=       1 NClECP=     1 NCelD=      1
         NCelK=      1 NCelE2=     1 NClLst=     1 CellRange=     0.0.
 One-electron integrals computed using PRISM.
 One-electron integral symmetry used in STVInt
 NBasis=   128 RedAO= T EigKep=  1.30D-04  NBF=   128
 NBsUse=   128 1.00D-06 EigRej= -1.00D+00 NBFU=   128
 Precomputing XC quadrature grid using
 IXCGrd= 4 IRadAn=           5 IRanWt=          -1 IRanGd=           0 AccXCQ= 0.00D+00.
 Generated NRdTot=       0 NPtTot=           0 NUsed=           0 NTot=          32
 NSgBfM=   133   133   133   133   133 MxSgAt=    11 MxSgA2=    11.
 Leave Link  302 at Tue Oct 15 20:06:53 2019, MaxMem=   280000000 cpu:               3.8 elap:               0.2
 (Enter /home/soft/g16/l303.exe)
 DipDrv:  MaxL=1.
 Leave Link  303 at Tue Oct 15 20:06:53 2019, MaxMem=   280000000 cpu:               2.5 elap:               0.1
 (Enter /home/soft/g16/l401.exe)
 Initial guess from the checkpoint file:  "ts.chk"
 B after Tr=     0.000000   -0.000000    0.000000
         Rot=    0.999973    0.000009    0.001053   -0.007309 Ang=   0.85 deg.
 Guess basis will be translated and rotated to current coordinates.
 JPrj=2 DoOrth=T DoCkMO=T.
 Generating alternative initial guess.
 ExpMin= 4.38D-02 ExpMax= 8.59D+03 ExpMxC= 1.30D+03 IAcc=2 IRadAn=         4 AccDes= 0.00D+00
 Harris functional with IExCor=  402 and IRadAn=       4 diagonalized for initial guess.
 HarFok:  IExCor=  402 AccDes= 0.00D+00 IRadAn=         4 IDoV= 1 UseB2=F ITyADJ=14
 ICtDFT=  3500011 ScaDFX=  1.000000  1.000000  1.000000  1.000000
 FoFCou: FMM=F IPFlag=           0 FMFlag=      100000 FMFlg1=           0
         NFxFlg=           0 DoJE=T BraDBF=F KetDBF=T FulRan=T
         wScrn=  0.000000 ICntrl=       500 IOpCl=  0 I1Cent=   200000004 NGrid=           0
         NMat0=    1 NMatS0=      1 NMatT0=    0 NMatD0=    1 NMtDS0=    0 NMtDT0=    0
 Petite list used in FoFCou.
 Harris En= -268.354185075661    
 Leave Link  401 at Tue Oct 15 20:06:53 2019, MaxMem=   280000000 cpu:               6.1 elap:               0.3
 (Enter /home/soft/g16/l502.exe)
 Keep R1 ints in memory in canonical form, NReq=57089831.
 FoFCou: FMM=F IPFlag=           0 FMFlag=           0 FMFlg1=           0
         NFxFlg=           0 DoJE=F BraDBF=F KetDBF=F FulRan=T
         wScrn=  0.000000 ICntrl=       600 IOpCl=  0 I1Cent=           0 NGrid=           0
         NMat0=    1 NMatS0=   8256 NMatT0=    0 NMatD0=    1 NMtDS0=    0 NMtDT0=    0
 Symmetry not used in FoFCou.
 Two-electron integral symmetry not used.
 Closed shell SCF:
 Using DIIS extrapolation, IDIIS=  1040.
 NGot=   280000000 LenX=   245875069 LenY=   245856939
 Requested convergence on RMS density matrix=1.00D-08 within 128 cycles.
 Requested convergence on MAX density matrix=1.00D-06.
 Requested convergence on             energy=1.00D-06.
 No special actions if energy rises.

 Cycle   1  Pass 1  IDiag  1:
 E= -268.303213142987    
 DIIS: error= 2.49D-03 at cycle   1 NSaved=   1.
 NSaved= 1 IEnMin= 1 EnMin= -268.303213142987     IErMin= 1 ErrMin= 2.49D-03
 ErrMax= 2.49D-03  0.00D+00 EMaxC= 1.00D-01 BMatC= 2.08D-03 BMatP= 2.08D-03
 IDIUse=3 WtCom= 9.75D-01 WtEn= 2.49D-02
 Coeff-Com:  0.100D+01
 Coeff-En:   0.100D+01
 Coeff:      0.100D+01
 Gap=     0.439 Goal=   None    Shift=    0.000
 GapD=    0.439 DampG=2.000 DampE=1.000 DampFc=2.0000 IDamp=-1.
 RMSDP=7.55D-04 MaxDP=1.01D-02              OVMax= 3.00D-02

 Cycle   2  Pass 1  IDiag  1:
 E= -268.306395474058     Delta-E=       -0.003182331071 Rises=F Damp=F
 DIIS: error= 1.18D-03 at cycle   2 NSaved=   2.
 NSaved= 2 IEnMin= 2 EnMin= -268.306395474058     IErMin= 2 ErrMin= 1.18D-03
 ErrMax= 1.18D-03  0.00D+00 EMaxC= 1.00D-01 BMatC= 2.87D-04 BMatP= 2.08D-03
 IDIUse=3 WtCom= 9.88D-01 WtEn= 1.18D-02
 Coeff-Com:  0.148D+00 0.852D+00
 Coeff-En:   0.000D+00 0.100D+01
 Coeff:      0.147D+00 0.853D+00
 Gap=     0.144 Goal=   None    Shift=    0.000
 RMSDP=2.58D-04 MaxDP=4.93D-03 DE=-3.18D-03 OVMax= 9.21D-03

 Cycle   3  Pass 1  IDiag  1:
 E= -268.306365680340     Delta-E=        0.000029793718 Rises=F Damp=F
 DIIS: error= 1.49D-03 at cycle   3 NSaved=   3.
 NSaved= 3 IEnMin= 2 EnMin= -268.306395474058     IErMin= 2 ErrMin= 1.18D-03
 ErrMax= 1.49D-03  0.00D+00 EMaxC= 1.00D-01 BMatC= 4.03D-04 BMatP= 2.87D-04
 IDIUse=3 WtCom= 2.06D-01 WtEn= 7.94D-01
 Coeff-Com:  0.450D-03 0.546D+00 0.454D+00
 Coeff-En:   0.000D+00 0.527D+00 0.473D+00
 Coeff:      0.925D-04 0.531D+00 0.469D+00
 Gap=     0.147 Goal=   None    Shift=    0.000
 RMSDP=2.10D-04 MaxDP=6.29D-03 DE= 2.98D-05 OVMax= 6.94D-03

 Cycle   4  Pass 1  IDiag  1:
 E= -268.306611612274     Delta-E=       -0.000245931933 Rises=F Damp=F
 DIIS: error= 6.15D-04 at cycle   4 NSaved=   4.
 NSaved= 4 IEnMin= 4 EnMin= -268.306611612274     IErMin= 4 ErrMin= 6.15D-04
 ErrMax= 6.15D-04  0.00D+00 EMaxC= 1.00D-01 BMatC= 7.00D-05 BMatP= 2.87D-04
 IDIUse=3 WtCom= 9.94D-01 WtEn= 6.15D-03
 Coeff-Com: -0.168D-01 0.248D+00 0.330D+00 0.439D+00
 Coeff-En:   0.000D+00 0.000D+00 0.169D+00 0.831D+00
 Coeff:     -0.167D-01 0.246D+00 0.329D+00 0.441D+00
 Gap=     0.145 Goal=   None    Shift=    0.000
 RMSDP=8.37D-05 MaxDP=2.04D-03 DE=-2.46D-04 OVMax= 3.94D-03

 Cycle   5  Pass 1  IDiag  1:
 E= -268.306665238952     Delta-E=       -0.000053626678 Rises=F Damp=F
 DIIS: error= 2.54D-04 at cycle   5 NSaved=   5.
 NSaved= 5 IEnMin= 5 EnMin= -268.306665238952     IErMin= 5 ErrMin= 2.54D-04
 ErrMax= 2.54D-04  0.00D+00 EMaxC= 1.00D-01 BMatC= 7.23D-06 BMatP= 7.00D-05
 IDIUse=3 WtCom= 9.97D-01 WtEn= 2.54D-03
 Coeff-Com: -0.125D-01 0.953D-01 0.163D+00 0.296D+00 0.458D+00
 Coeff-En:   0.000D+00 0.000D+00 0.000D+00 0.723D-01 0.928D+00
 Coeff:     -0.124D-01 0.951D-01 0.163D+00 0.296D+00 0.459D+00
 Gap=     0.145 Goal=   None    Shift=    0.000
 RMSDP=2.69D-05 MaxDP=6.09D-04 DE=-5.36D-05 OVMax= 1.49D-03

 Cycle   6  Pass 1  IDiag  1:
 E= -268.306671232821     Delta-E=       -0.000005993869 Rises=F Damp=F
 DIIS: error= 1.03D-04 at cycle   6 NSaved=   6.
 NSaved= 6 IEnMin= 6 EnMin= -268.306671232821     IErMin= 6 ErrMin= 1.03D-04
 ErrMax= 1.03D-04  0.00D+00 EMaxC= 1.00D-01 BMatC= 1.33D-06 BMatP= 7.23D-06
 IDIUse=3 WtCom= 9.99D-01 WtEn= 1.03D-03
 Coeff-Com: -0.354D-02 0.182D-02 0.312D-01 0.987D-01 0.316D+00 0.555D+00
[...]
                                                     32   34   37   39   40
                                                     41   42   43
 ITU=  0  0  0  0  0  0  0  0  0  0  0  0  0  0  0  0  0  0  0  0
 ITU=  0  0  0  0  0  0  0  0  0  0  0  0  0  0
     Eigenvalues ---   -0.10380  -0.00420   0.00609   0.02050   0.03177
     Eigenvalues ---    0.05661   0.06470   0.10536   0.11058   0.13068
     Eigenvalues ---    0.13605   0.14356   0.18364   0.19563   0.23377
     Eigenvalues ---    0.27807   0.37496   0.37825   0.38246   0.38513
     Eigenvalues ---    0.38978   0.42474   0.46513   0.57128   0.95572
     Eigenvalues ---    1.06494   1.53848
 Eigenvectors required to have negative eigenvalues:
                          R10       D8        R4        D5        R9
   1                   -0.53147   0.34660   0.32742   0.29692   0.26997
                          D9        A4        D2        R3        R2
   1                   -0.24600  -0.18945  -0.18050   0.16339  -0.15989
 Eigenvalue     2 is  -4.20D-03 should be greater than     0.000000 Eigenvector:
                          D7        D11       D1        D2        R10
   1                   -0.58418   0.38555   0.35986   0.35609  -0.32657
                          D3        D5        R4        A12       D10
   1                   -0.19128  -0.18953   0.15130   0.11021   0.10809
 RFO step:  Lambda0=6.970925142D-06 Lambda=-4.19982812D-03.
 Linear search not attempted -- option 19 set.
 Maximum step size (   0.300) exceeded in Quadratic search.
    -- Step size scaled by   0.960
 Iteration  1 RMS(Cart)=  0.12321632 RMS(Int)=  0.04223969
 Iteration  2 RMS(Cart)=  0.07864455 RMS(Int)=  0.00359236
 Iteration  3 RMS(Cart)=  0.01077384 RMS(Int)=  0.00062765
 Iteration  4 RMS(Cart)=  0.00006766 RMS(Int)=  0.00062623
 Iteration  5 RMS(Cart)=  0.00000000 RMS(Int)=  0.00062623
 ITry= 1 IFail=0 DXMaxC= 2.13D-01 DCOld= 1.00D+10 DXMaxT= 3.00D-01 DXLimC= 3.00D+00 Rises=F
 Variable       Old X    -DE/DX   Delta X   Delta X   Delta X     New X
                                 (Linear)    (Quad)   (Total)
    R1        2.06675  -0.00000   0.00000   0.00459   0.00459   2.07134
    R2        2.43633  -0.00023   0.00000  -0.01656  -0.01656   2.41978
    R3        2.63104  -0.00009   0.00000  -0.00259  -0.00259   2.62845
    R4        2.08557   0.00090   0.00000   0.11133   0.11133   2.19690
    R5        2.04747   0.00004   0.00000  -0.00283  -0.00283   2.04464
    R6        2.05072   0.00001   0.00000  -0.00354  -0.00354   2.04718
    R7        2.07247   0.00004   0.00000  -0.00383  -0.00383   2.06864
    R8        2.07879   0.00005   0.00000  -0.00498  -0.00498   2.07381
    R9        2.42318   0.00010   0.00000   0.01346   0.01346   2.43664
   R10        2.59481   0.00081   0.00000  -0.23877  -0.23877   2.35604
    A1        2.02323   0.00018   0.00000   0.02875   0.02875   2.05197
    A2        2.12162   0.00034   0.00000   0.01024   0.01024   2.13187
    A3        2.12444  -0.00045   0.00000  -0.03966  -0.03966   2.08478
    A4        1.84214   0.00229   0.00000  -0.00570  -0.00570   1.83644
    A5        2.06055  -0.00028   0.00000  -0.02072  -0.02267   2.03788
    A6        2.05969   0.00017   0.00000   0.04149   0.03956   2.09924
    A7        2.01787  -0.00007   0.00000   0.04063   0.03847   2.05634
    A8        1.97721  -0.00020   0.00000   0.00765   0.00759   1.98480
    A9        2.06676   0.00000   0.00000  -0.01883  -0.01885   2.04791
   A10        2.07853  -0.00010   0.00000   0.00156   0.00153   2.08006
   A11        1.85421   0.00160   0.00000   0.04791   0.04791   1.90212
   A12        2.66436   0.00243   0.00000   0.08168   0.08168   2.74604
    D1       -2.35957   0.00057   0.00000   0.25952   0.25955  -2.10002
    D2        0.60623   0.00104   0.00000   0.25678   0.25675   0.86298
    D3       -2.69647   0.00054   0.00000  -0.13535  -0.13574  -2.83221
    D4       -0.13113   0.00020   0.00000  -0.01170  -0.01127  -0.14241
    D5        0.63078   0.00007   0.00000  -0.13390  -0.13433   0.49646
    D6       -3.08707  -0.00026   0.00000  -0.01026  -0.00986  -3.09693
    D7        0.26790   0.00212   0.00000  -0.41921  -0.41921  -0.15131
    D8       -2.55409   0.00049   0.00000   0.02209   0.02214  -2.53195
    D9       -2.27142  -0.00022   0.00000   0.07149   0.07156  -2.19985
   D10        1.48753   0.00036   0.00000   0.08546   0.08539   1.57292
   D11       -0.15523   0.00128   0.00000   0.27337   0.27337   0.11813
         Item               Value     Threshold  Converged?
 Maximum Force            0.002426     0.000450     NO 
 RMS     Force            0.000855     0.000300     NO 
 Maximum Displacement     0.213460     0.001800     NO 
 RMS     Displacement     0.112772     0.001200     NO 
 Predicted change in Energy=-1.101088D-03
 Optimization stopped.
    -- Number of steps exceeded,  NStep=  43
    -- Flag reset to prevent archiving.
                           ----------------------------
                           ! Non-Optimized Parameters !
                           ! (Angstroms and Degrees)  !
 --------------------------                            --------------------------
 ! Name  Definition              Value          Derivative Info.                !
 --------------------------------------------------------------------------------
 ! R1    R(1,2)                  1.0961         -DE/DX =    0.0                 !
 ! R2    R(1,3)                  1.2805         -DE/DX =   -0.0002              !
 ! R3    R(1,4)                  1.3909         -DE/DX =   -0.0001              !
 ! R4    R(3,11)                 1.1625         -DE/DX =    0.0009              !
 ! R5    R(4,5)                  1.082          -DE/DX =    0.0                 !
 ! R6    R(4,6)                  1.0833         -DE/DX =    0.0                 !
 ! R7    R(7,8)                  1.0947         -DE/DX =    0.0                 !
 ! R8    R(7,9)                  1.0974         -DE/DX =    0.0001              !
 ! R9    R(7,10)                 1.2894         -DE/DX =    0.0001              !
 ! R10   R(10,11)                1.2468         -DE/DX =    0.0008              !
 ! A1    A(2,1,3)              117.5694         -DE/DX =    0.0002              !
 ! A2    A(2,1,4)              122.1469         -DE/DX =    0.0003              !
 ! A3    A(3,1,4)              119.4491         -DE/DX =   -0.0005              !
 ! A4    A(1,3,11)             105.2201         -DE/DX =    0.0023              !
 ! A5    A(1,4,5)              116.7619         -DE/DX =   -0.0003              !
 ! A6    A(1,4,6)              120.2778         -DE/DX =    0.0002              !
 ! A7    A(5,4,6)              117.8197         -DE/DX =   -0.0001              !
 ! A8    A(8,7,9)              113.7206         -DE/DX =   -0.0002              !
 ! A9    A(8,7,10)             117.3367         -DE/DX =    0.0                 !
 ! A10   A(9,7,10)             119.1787         -DE/DX =   -0.0001              !
 ! A11   A(7,10,11)            108.9835         -DE/DX =    0.0016              !
 ! A12   A(3,11,10)            157.3366         -DE/DX =    0.0024              !
 ! D1    D(2,1,3,11)          -120.3222         -DE/DX =    0.0006              !
 ! D2    D(4,1,3,11)            49.4453         -DE/DX =    0.001               !
 ! D3    D(2,1,4,5)           -162.2738         -DE/DX =    0.0005              !
 ! D4    D(2,1,4,6)             -8.1595         -DE/DX =    0.0002              !
 ! D5    D(3,1,4,5)             28.4448         -DE/DX =    0.0001              !
 ! D6    D(3,1,4,6)           -177.4409         -DE/DX =   -0.0003              !
 ! D7    D(1,3,11,10)           -8.6694         -DE/DX =    0.0021              !
 ! D8    D(8,7,9,10)          -145.0701         -DE/DX =    0.0005              !
 ! D9    D(8,7,10,11)         -126.0424         -DE/DX =   -0.0002              !
 ! D10   D(9,7,10,11)           90.1218         -DE/DX =    0.0004              !
 ! D11   D(7,10,11,3)            6.7685         -DE/DX =    0.0013              !
 --------------------------------------------------------------------------------
 Largest change from initial coordinates is atom   11       0.577 Angstoms.
 GradGradGradGradGradGradGradGradGradGradGradGradGradGradGradGradGradGrad

 Leave Link  103 at Tue Oct 15 20:10:22 2019, MaxMem=   280000000 cpu:               1.7 elap:               0.1
 (Enter /home/soft/g16/l202.exe)
                          Input orientation:                          
 ---------------------------------------------------------------------
 Center     Atomic      Atomic             Coordinates (Angstroms)
 Number     Number       Type             X           Y           Z
 ---------------------------------------------------------------------
      1          6           0       -0.668285    2.558659    0.011952
      2          1           0       -1.733707    2.605234   -0.230607
      3          8           0       -0.012735    3.661579   -0.114504
      4          6           0       -0.022968    1.344374    0.229982
      5          1           0        0.863930    1.343062    0.852339
      6          1           0       -0.629701    0.445816    0.275945
      7          6           0        1.071955    1.425362   -1.424960
      8          1           0        1.612239    0.505210   -1.171624
      9          1           0        0.307663    1.280747   -2.202814
     10          8           0        1.705471    2.539008   -1.372782
     11          1           0        0.922910    3.391678   -0.633869
 ---------------------------------------------------------------------
                    Distance matrix (angstroms):
                    1          2          3          4          5
     1  C    0.000000
     2  H    1.093676   0.000000
     3  O    1.289251   2.022644   0.000000
     4  C    1.392286   2.174520   2.342694   0.000000
     5  H    2.128758   3.084408   2.660611   1.083475   0.000000
     6  H    2.129622   2.477602   3.297610   1.085193   1.835270
     7  C    2.525375   3.269605   2.809718   1.986014   2.288261
     8  H    3.289118   4.060907   3.704147   2.311406   2.314819
     9  H    2.736918   3.132261   3.183088   2.455985   3.106006
    10  O    2.748198   3.624485   2.407418   2.642632   2.662638
    11  H    1.908640   2.799773   1.103639   2.415032   2.531624
                    6          7          8          9         10
     6  H    0.000000
     7  C    2.597734   0.000000
     8  H    2.669322   1.096706   0.000000
     9  H    2.778490   1.100051   1.834864   0.000000
    10  O    3.542991   1.282292   2.045846   2.055733   0.000000
    11  H    3.452024   2.124721   3.015965   2.701138   1.373113
                   11
    11  H    0.000000
 Stoichiometry    C3H6O2
 Framework group  C1[X(C3H6O2)]
 Deg. of freedom    27
 Full point group                 C1      NOp   1
 RotChk:  IX=0 Diff= 2.50D-15
 Largest Abelian subgroup         C1      NOp   1
 Largest concise Abelian subgroup C1      NOp   1
                         Standard orientation:                         
 ---------------------------------------------------------------------
 Center     Atomic      Atomic             Coordinates (Angstroms)
 Number     Number       Type             X           Y           Z
 ---------------------------------------------------------------------
      1          6           0       -1.227786    0.201787    0.231462
      2          1           0       -1.883921    0.417568    1.079432
      3          8           0       -1.098131   -1.042945   -0.078378
      4          6           0       -0.419125    1.184707   -0.332804
      5          1           0       -0.126469    1.070603   -1.369747
      6          1           0       -0.545228    2.206798    0.009354
      7          6           0        1.289779    0.390191    0.293810
      8          1           0        1.889783    1.140772   -0.234761
      9          1           0        1.230541    0.565743    1.378146
     10          8           0        1.297632   -0.815357   -0.143072
     11          1           0       -0.017914   -1.195170   -0.245643
 ---------------------------------------------------------------------
 Rotational constants (GHZ):           7.8022971           4.8624869           3.3321369
 Leave Link  202 at Tue Oct 15 20:10:22 2019, MaxMem=   280000000 cpu:               1.1 elap:               0.1
 (Enter /home/soft/g16/l601.exe)
 Copying SCF densities to generalized density rwf, IOpCl= 0 IROHF=0.

 **********************************************************************

            Population analysis using the SCF density.

 **********************************************************************

 Orbital symmetries:
       Occupied  (A) (A) (A) (A) (A) (A) (A) (A) (A) (A) (A) (A)
                 (A) (A) (A) (A) (A) (A) (A) (A)
       Virtual   (A) (A) (A) (A) (A) (A) (A) (A) (A) (A) (A) (A)
                 (A) (A) (A) (A) (A) (A) (A) (A) (A) (A) (A) (A)
                 (A) (A) (A) (A) (A) (A) (A) (A) (A) (A) (A) (A)
                 (A) (A) (A) (A) (A) (A) (A) (A) (A) (A) (A) (A)
                 (A) (A) (A) (A) (A) (A) (A) (A) (A) (A) (A) (A)
                 (A) (A) (A) (A) (A) (A) (A) (A) (A) (A) (A) (A)
                 (A) (A) (A) (A) (A) (A) (A) (A) (A) (A) (A) (A)
                 (A) (A) (A) (A) (A) (A) (A) (A) (A) (A) (A) (A)
                 (A) (A) (A) (A) (A) (A) (A) (A) (A) (A) (A) (A)
 The electronic state is 1-A.
 Alpha  occ. eigenvalues --  -19.16446 -19.10731 -10.28069 -10.26322 -10.19899
 Alpha  occ. eigenvalues --   -1.09486  -1.02127  -0.78598  -0.64505  -0.63817
 Alpha  occ. eigenvalues --   -0.54167  -0.52009  -0.47357  -0.45682  -0.43778
 Alpha  occ. eigenvalues --   -0.42373  -0.36903  -0.35478  -0.27247  -0.25802
 Alpha virt. eigenvalues --   -0.07313   0.00050   0.01585   0.01849   0.03363
 Alpha virt. eigenvalues --    0.04910   0.06026   0.06664   0.07064   0.07863
 Alpha virt. eigenvalues --    0.08478   0.11289   0.12249   0.14160   0.16299
 Alpha virt. eigenvalues --    0.16598   0.19464   0.19818   0.20355   0.21580
 Alpha virt. eigenvalues --    0.23176   0.23634   0.25404   0.27149   0.28415
 Alpha virt. eigenvalues --    0.29274   0.30218   0.31434   0.33326   0.34503
 Alpha virt. eigenvalues --    0.41105   0.42745   0.44996   0.47531   0.48777
 Alpha virt. eigenvalues --    0.50305   0.52978   0.57374   0.60929   0.64038
 Alpha virt. eigenvalues --    0.64356   0.65319   0.66782   0.68707   0.70260
 Alpha virt. eigenvalues --    0.71602   0.79459   0.87542   0.93156   1.02091
 Alpha virt. eigenvalues --    1.04264   1.10763   1.12476   1.13876   1.17379
 Alpha virt. eigenvalues --    1.22175   1.31241   1.32114   1.36147   1.42270
 Alpha virt. eigenvalues --    1.48680   1.52131   1.57613   1.58866   1.61953
 Alpha virt. eigenvalues --    1.68052   1.73808   1.76141   1.88593   1.91236
 Alpha virt. eigenvalues --    2.00110   2.11331   2.37202   2.38002   2.42237
 Alpha virt. eigenvalues --    2.48506   2.51043   2.58613   2.63257   2.68207
 Alpha virt. eigenvalues --    2.80577   2.85995   2.99808   3.02191   3.08475
 Alpha virt. eigenvalues --    3.09419   3.12354   3.17080   3.18212   3.20433
 Alpha virt. eigenvalues --    3.26679   3.28958   3.33223   3.39378   3.61149
 Alpha virt. eigenvalues --    3.91258   4.00601   4.96992   5.04572   5.05729
 Alpha virt. eigenvalues --    5.11651   5.55294   5.58625  23.46871  23.61608
 Alpha virt. eigenvalues --   23.94588  49.86858  49.90654
          Condensed to atoms (all electrons):
               1          2          3          4          5          6
     1  C    5.253726   0.362013   0.343792   0.173424  -0.053719  -0.049747
     2  H    0.362013   0.480971  -0.060034  -0.000149   0.002015  -0.001846
     3  O    0.343792  -0.060034   8.013177  -0.115467  -0.008340   0.010970
     4  C    0.173424  -0.000149  -0.115467   6.078936   0.414969   0.366246
     5  H   -0.053719   0.002015  -0.008340   0.414969   0.391679  -0.022735
     6  H   -0.049747  -0.001846   0.010970   0.366246  -0.022735   0.438896
     7  C    0.045003  -0.013382  -0.036395  -0.093683  -0.023190   0.000275
     8  H    0.032870  -0.000360   0.005884  -0.080487  -0.011080  -0.001029
     9  H   -0.040462  -0.000735  -0.003319  -0.025645   0.004087   0.002489
    10  O   -0.058300  -0.002526   0.013988  -0.114828  -0.002646   0.007477
    11  H   -0.037417   0.003936   0.194977   0.030715   0.000737  -0.001811
               7          8          9         10         11
     1  C    0.045003   0.032870  -0.040462  -0.058300  -0.037417
     2  H   -0.013382  -0.000360  -0.000735  -0.002526   0.003936
     3  O   -0.036395   0.005884  -0.003319   0.013988   0.194977
     4  C   -0.093683  -0.080487  -0.025645  -0.114828   0.030715
     5  H   -0.023190  -0.011080   0.004087  -0.002646   0.000737
     6  H    0.000275  -0.001029   0.002489   0.007477  -0.001811
     7  C    5.444151   0.396045   0.395716   0.290668  -0.022811
     8  H    0.396045   0.566474  -0.080961  -0.061521  -0.004831
     9  H    0.395716  -0.080961   0.580361  -0.064531   0.006669
    10  O    0.290668  -0.061521  -0.064531   8.277670   0.097252
    11  H   -0.022811  -0.004831   0.006669   0.097252   0.257501
 Mulliken charges:
               1
     1  C    0.028819
     2  H    0.230096
     3  O   -0.359233
     4  C   -0.634031
     5  H    0.308223
     6  H    0.250816
     7  C   -0.382398
     8  H    0.238997
     9  H    0.226330
    10  O   -0.382703
    11  H    0.475083
 Sum of Mulliken charges =  -0.00000
 Mulliken charges with hydrogens summed into heavy atoms:
               1
     1  C    0.258916
     3  O    0.115850
     4  C   -0.074992
     7  C    0.082930
    10  O   -0.382703
 Electronic spatial extent (au):  <R**2>=            398.4151
 Charge=             -0.0000 electrons
 Dipole moment (field-independent basis, Debye):
    X=             -0.9725    Y=              3.5155    Z=              0.8308  Tot=              3.7409
 Quadrupole moment (field-independent basis, Debye-Ang):
   XX=            -33.0616   YY=            -32.2732   ZZ=            -29.8107
   XY=              1.1578   XZ=             -0.6890   YZ=              0.0637
 Traceless Quadrupole moment (field-independent basis, Debye-Ang):
   XX=             -1.3464   YY=             -0.5581   ZZ=              1.9045
   XY=              1.1578   XZ=             -0.6890   YZ=              0.0637
 Octapole moment (field-independent basis, Debye-Ang**2):
  XXX=             -3.3439  YYY=             -1.2365  ZZZ=             -0.2709  XYY=              0.9345
  XXY=              7.0547  XXZ=              4.1748  XZZ=             -0.6850  YZZ=             -0.7437
  YYZ=             -0.7399  XYZ=             -1.7082
 Hexadecapole moment (field-independent basis, Debye-Ang**3):
 XXXX=           -270.3300 YYYY=           -173.9566 ZZZZ=            -58.3962 XXXY=              7.3667
 XXXZ=             -5.5126 YYYX=             -0.7004 YYYZ=              3.5933 ZZZX=             -1.5955
 ZZZY=             -0.4130 XXYY=            -84.6629 XXZZ=            -54.3127 YYZZ=            -41.2595
 XXYZ=              0.4184 YYXZ=             -1.7899 ZZXY=              1.2751
 N-N= 1.803753297293D+02 E-N=-9.895626435095D+02  KE= 2.674227695252D+02
 No NMR shielding tensors so no spin-rotation constants.
 Leave Link  601 at Tue Oct 15 20:10:22 2019, MaxMem=   280000000 cpu:               2.7 elap:               0.1
 (Enter /home/soft/g16/l9999.exe)


 EXPERIENCE IS A WONDERFUL THING.  IT ENABLES
 YOU TO RECOGNIZE A MISTAKE WHEN YOU MAKE IT AGAIN.
           - BACK OF A SUGAR PACKET
 Error termination request processed by link 9999.
 Error termination via Lnk1e in /home/soft/g16/l9999.exe at Tue Oct 15 20:10:22 2019.
 Job cpu time:       0 days  1 hours 16 minutes  5.3 seconds.
 Elapsed time:       0 days  0 hours  3 minutes 48.1 seconds.
 File lengths (MBytes):  RWF=    332 Int=      0 D2E=      0 Chk=      8 Scr=      8
