 Entering Gaussian System, Link 0=g16
 Input=ts2.gjf
 Output=ts2.log
 Initial command:
 /home/soft/g16/l1.exe "/tmp/gaussian/Gau-43735.inp" -scrdir="/tmp/gaussian/"
 Entering Link 1 = /home/soft/g16/l1.exe PID=     43736.
  
 Copyright (c) 1988,1990,1992,1993,1995,1998,2003,2009,2016,
            Gaussian, Inc.  All Rights Reserved.
  
 This is part of the Gaussian(R) 16 program.  It is based on
 the Gaussian(R) 09 system (copyright 2009, Gaussian, Inc.),
 the Gaussian(R) 03 system (copyright 2003, Gaussian, Inc.),
 the Gaussian(R) 98 system (copyright 1998, Gaussian, Inc.),
 the Gaussian(R) 94 system (copyright 1995, Gaussian, Inc.),
 the Gaussian 92(TM) system (copyright 1992, Gaussian, Inc.),
 the Gaussian 90(TM) system (copyright 1990, Gaussian, Inc.),
 the Gaussian 88(TM) system (copyright 1988, Gaussian, Inc.),
 the Gaussian 86(TM) system (copyright 1986, Carnegie Mellon
 University), and the Gaussian 82(TM) system (copyright 1983,
 Carnegie Mellon University). Gaussian is a federally registered
 trademark of Gaussian, Inc.
  
 This software contains proprietary and confidential information,
 including trade secrets, belonging to Gaussian, Inc.
  
 This software is provided under written license and may be
 used, copied, transmitted, or stored only in accord with that
 written license.
  
 The following legend is applicable only to US Government
 contracts under FAR:
  
                    RESTRICTED RIGHTS LEGEND
  
 Use, reproduction and disclosure by the US Government is
 subject to restrictions as set forth in subparagraphs (a)
 and (c) of the Commercial Computer Software - Restricted
 Rights clause in FAR 52.227-19.
  
 Gaussian, Inc.
 340 Quinnipiac St., Bldg. 40, Wallingford CT 06492
  
  
 ---------------------------------------------------------------
 Warning -- This program may not be used in any manner that
 competes with the business of Gaussian, Inc. or will provide
 assistance to any competitor of Gaussian, Inc.  The licensee
 of this program is prohibited from giving any competitor of
 Gaussian, Inc. access to this program.  By using this program,
 the user acknowledges that Gaussian, Inc. is engaged in the
 business of creating and licensing software in the field of
 computational chemistry and represents and warrants to the
 licensee that it is not a competitor of Gaussian, Inc. and that
 it will not use this program in any manner prohibited above.
 ---------------------------------------------------------------
  

 Cite this work as:
 Gaussian 16, Revision A.03,
 M. J. Frisch, G. W. Trucks, H. B. Schlegel, G. E. Scuseria, 
 M. A. Robb, J. R. Cheeseman, G. Scalmani, V. Barone, 
 G. A. Petersson, H. Nakatsuji, X. Li, M. Caricato, A. V. Marenich, 
 J. Bloino, B. G. Janesko, R. Gomperts, B. Mennucci, H. P. Hratchian, 
 J. V. Ortiz, A. F. Izmaylov, J. L. Sonnenberg, D. Williams-Young, 
 F. Ding, F. Lipparini, F. Egidi, J. Goings, B. Peng, A. Petrone, 
 T. Henderson, D. Ranasinghe, V. G. Zakrzewski, J. Gao, N. Rega, 
 G. Zheng, W. Liang, M. Hada, M. Ehara, K. Toyota, R. Fukuda, 
 J. Hasegawa, M. Ishida, T. Nakajima, Y. Honda, O. Kitao, H. Nakai, 
 T. Vreven, K. Throssell, J. A. Montgomery, Jr., J. E. Peralta, 
 F. Ogliaro, M. J. Bearpark, J. J. Heyd, E. N. Brothers, K. N. Kudin, 
 V. N. Staroverov, T. A. Keith, R. Kobayashi, J. Normand, 
 K. Raghavachari, A. P. Rendell, J. C. Burant, S. S. Iyengar, 
 J. Tomasi, M. Cossi, J. M. Millam, M. Klene, C. Adamo, R. Cammi, 
 J. W. Ochterski, R. L. Martin, K. Morokuma, O. Farkas, 
 J. B. Foresman, and D. J. Fox, Gaussian, Inc., Wallingford CT, 2016.
 
 ******************************************
 Gaussian 16:  ES64L-G16RevA.03 25-Dec-2016
                15-Oct-2019 
 ******************************************
 %chk=ts2.chk
 %nprocshared=24
 Will use up to   24 processors via shared memory.
 -------------------------------------------
 #p opt=(calcfc,ts,noeigen) b3lyp/6-311+g(d)
 -------------------------------------------
 1/5=1,10=4,11=1,18=20,26=3,38=1/1,3;
 2/9=110,12=2,17=6,18=5,40=1/2;
 3/5=4,6=6,7=11,11=2,25=1,30=1,71=2,74=-5,140=1/1,2,3;
 4//1;
 5/5=2,38=5/2;
 8/6=4,10=90,11=11/1;
 11/6=1,8=1,9=11,15=111,16=1/1,2,10;
 10/6=1,13=1/2;
 6/7=2,8=2,9=2,10=2,28=1/1;
 7/10=1,18=20,25=1/1,2,3,16;
 1/5=1,10=4,11=1,18=20,26=3/3(2);
 2/9=110/2;
 99//99;
 2/9=110/2;
 3/5=4,6=6,7=11,11=2,25=1,30=1,71=1,74=-5/1,2,3;
 4/5=5,16=3,69=1/1;
 5/5=2,38=5/2;
 7//1,2,3,16;
 1/5=1,11=1,18=20,26=3/3(-5);
 2/9=110/2;
 6/7=2,8=2,9=2,10=2,19=2,28=1/1;
 99/9=1/99;
 Leave Link    1 at Tue Oct 15 20:23:01 2019, MaxMem=           0 cpu:               2.2 elap:               0.1
 (Enter /home/soft/g16/l101.exe)
 -------------------
 Title Card Required
 -------------------
 Symbolic Z-matrix:
 Charge =  0 Multiplicity = 1
 C                    -1.22779   0.20179   0.23146 
 H                    -1.88392   0.41757   1.07943 
 O                    -1.09813  -1.04295  -0.07838 
 C                    -0.41913   1.18471  -0.3328 
 H                    -0.12647   1.0706   -1.36975 
 H                    -0.54523   2.2068    0.00935 
 C                     1.28978   0.39019   0.29381 
 H                     1.88978   1.14077  -0.23476 
 H                     1.23054   0.56574   1.37815 
 O                     1.29763  -0.81536  -0.14307 
 H                     0.13517  -1.60536  -0.47993 
 
 Add virtual bond connecting atoms H11        and O3         Dist= 2.67D+00.
 Add virtual bond connecting atoms H11        and O10        Dist= 2.73D+00.
 Add atom      7 valence  3 ND=      2 dihedral       8      7      9     10
 ITRead=  0  0  0  0  0  0  0  0  0  0  0
 MicOpt= -1 -1 -1 -1 -1 -1 -1 -1 -1 -1 -1
 NAtoms=     11 NQM=       11 NQMF=       0 NMMI=      0 NMMIF=      0
                NMic=       0 NMicF=      0.
                    Isotopes and Nuclear Properties:
 (Nuclear quadrupole moments (NQMom) in fm**2, nuclear magnetic moments (NMagM)
  in nuclear magnetons)

  Atom         1           2           3           4           5           6           7           8           9          10
 IAtWgt=          12           1          16          12           1           1          12           1           1          16
 AtmWgt=  12.0000000   1.0078250  15.9949146  12.0000000   1.0078250   1.0078250  12.0000000   1.0078250   1.0078250  15.9949146
 NucSpn=           0           1           0           0           1           1           0           1           1           0
 AtZEff=  -0.0000000  -0.0000000  -0.0000000  -0.0000000  -0.0000000  -0.0000000  -0.0000000  -0.0000000  -0.0000000  -0.0000000
 NQMom=    0.0000000   0.0000000   0.0000000   0.0000000   0.0000000   0.0000000   0.0000000   0.0000000   0.0000000   0.0000000
 NMagM=    0.0000000   2.7928460   0.0000000   0.0000000   2.7928460   2.7928460   0.0000000   2.7928460   2.7928460   0.0000000
 AtZNuc=   6.0000000   1.0000000   8.0000000   6.0000000   1.0000000   1.0000000   6.0000000   1.0000000   1.0000000   8.0000000

  Atom        11
 IAtWgt=           1
 AtmWgt=   1.0078250
 NucSpn=           1
 AtZEff=  -0.0000000
 NQMom=    0.0000000
 NMagM=    2.7928460
 AtZNuc=   1.0000000
 Leave Link  101 at Tue Oct 15 20:23:01 2019, MaxMem=   280000000 cpu:               4.7 elap:               0.2
 (Enter /home/soft/g16/l103.exe)

 GradGradGradGradGradGradGradGradGradGradGradGradGradGradGradGradGradGrad
 Berny optimization.
 Initialization pass.
                           ----------------------------
                           !    Initial Parameters    !
                           ! (Angstroms and Degrees)  !
 --------------------------                            --------------------------
 ! Name  Definition              Value          Derivative Info.                !
 --------------------------------------------------------------------------------
 ! R1    R(1,2)                  1.0937         calculate D2E/DX2 analytically  !
 ! R2    R(1,3)                  1.2893         calculate D2E/DX2 analytically  !
 ! R3    R(1,4)                  1.3923         calculate D2E/DX2 analytically  !
 ! R4    R(3,11)                 1.4137         calculate D2E/DX2 analytically  !
 ! R5    R(4,5)                  1.0835         calculate D2E/DX2 analytically  !
 ! R6    R(4,6)                  1.0852         calculate D2E/DX2 analytically  !
 ! R7    R(7,8)                  1.0967         calculate D2E/DX2 analytically  !
 ! R8    R(7,9)                  1.1001         calculate D2E/DX2 analytically  !
 ! R9    R(7,10)                 1.2823         calculate D2E/DX2 analytically  !
 ! R10   R(10,11)                1.4453         calculate D2E/DX2 analytically  !
 ! A1    A(2,1,3)              115.9224         calculate D2E/DX2 analytically  !
 ! A2    A(2,1,4)              121.5601         calculate D2E/DX2 analytically  !
 ! A3    A(3,1,4)              121.7213         calculate D2E/DX2 analytically  !
 ! A4    A(1,3,11)             122.6893         calculate D2E/DX2 analytically  !
 ! A5    A(1,4,5)              118.0609         calculate D2E/DX2 analytically  !
 ! A6    A(1,4,6)              118.0115         calculate D2E/DX2 analytically  !
 ! A7    A(5,4,6)              115.6157         calculate D2E/DX2 analytically  !
 ! A8    A(8,7,9)              113.2859         calculate D2E/DX2 analytically  !
 ! A9    A(8,7,10)             118.4165         calculate D2E/DX2 analytically  !
 ! A10   A(9,7,10)             119.0912         calculate D2E/DX2 analytically  !
 ! A11   A(7,10,11)            126.0413         calculate D2E/DX2 analytically  !
 ! A12   A(3,11,10)            114.709          calculate D2E/DX2 analytically  !
 ! D1    D(2,1,3,11)          -140.7297         calculate D2E/DX2 analytically  !
 ! D2    D(4,1,3,11)            29.1983         calculate D2E/DX2 analytically  !
 ! D3    D(2,1,4,5)           -154.4964         calculate D2E/DX2 analytically  !
 ! D4    D(2,1,4,6)             -7.5134         calculate D2E/DX2 analytically  !
 ! D5    D(3,1,4,5)             36.141          calculate D2E/DX2 analytically  !
 ! D6    D(3,1,4,6)           -176.876          calculate D2E/DX2 analytically  !
 ! D7    D(1,3,11,10)           17.6385         calculate D2E/DX2 analytically  !
 ! D8    D(8,7,9,10)          -146.3387         calculate D2E/DX2 analytically  !
 ! D9    D(8,7,10,11)         -126.3779         calculate D2E/DX2 analytically  !
 ! D10   D(9,7,10,11)           88.9941         calculate D2E/DX2 analytically  !
 ! D11   D(7,10,11,3)          -10.5781         calculate D2E/DX2 analytically  !
 --------------------------------------------------------------------------------
 Trust Radius=3.00D-01 FncErr=1.00D-07 GrdErr=1.00D-06 EigMax=2.50D+02 EigMin=1.00D-04
 Number of steps in this run=     43 maximum allowed number of steps=    100.
 Search for a saddle point of order  1.
 GradGradGradGradGradGradGradGradGradGradGradGradGradGradGradGradGradGrad

 Leave Link  103 at Tue Oct 15 20:23:01 2019, MaxMem=   280000000 cpu:               0.4 elap:               0.0
 (Enter /home/soft/g16/l202.exe)
                          Input orientation:                          
 ---------------------------------------------------------------------
 Center     Atomic      Atomic             Coordinates (Angstroms)
 Number     Number       Type             X           Y           Z
 ---------------------------------------------------------------------
      1          6           0       -1.227786    0.201787    0.231462
      2          1           0       -1.883921    0.417568    1.079432
      3          8           0       -1.098131   -1.042945   -0.078378
      4          6           0       -0.419125    1.184707   -0.332804
      5          1           0       -0.126469    1.070603   -1.369747
      6          1           0       -0.545228    2.206798    0.009354
      7          6           0        1.289779    0.390191    0.293810
      8          1           0        1.889783    1.140772   -0.234761
      9          1           0        1.230541    0.565743    1.378146
     10          8           0        1.297632   -0.815357   -0.143072
     11          1           0        0.135170   -1.605356   -0.479932
 ---------------------------------------------------------------------
                    Distance matrix (angstroms):
                    1          2          3          4          5
     1  C    0.000000
     2  H    1.093676   0.000000
     3  O    1.289251   2.022644   0.000000
     4  C    1.392286   2.174521   2.342694   0.000000
     5  H    2.128758   3.084408   2.660610   1.083475   0.000000
     6  H    2.129621   2.477602   3.297609   1.085193   1.835270
     7  C    2.525375   3.269606   2.809718   1.986015   2.288262
     8  H    3.289117   4.060907   3.704147   2.311406   2.314819
     9  H    2.736918   3.132261   3.183089   2.455985   3.106006
    10  O    2.748198   3.624486   2.407418   2.642633   2.662638
    11  H    2.372656   3.255851   1.413712   2.848393   2.832134
                    6          7          8          9         10
     6  H    0.000000
     7  C    2.597735   0.000000
     8  H    2.669322   1.096706   0.000000
     9  H    2.778490   1.100051   1.834864   0.000000
    10  O    3.542991   1.282292   2.045847   2.055734   0.000000
    11  H    3.903186   2.431873   3.268026   3.060386   1.445300
                   11
    11  H    0.000000
 Stoichiometry    C3H6O2
 Framework group  C1[X(C3H6O2)]
 Deg. of freedom    27
 Full point group                 C1      NOp   1
 Largest Abelian subgroup         C1      NOp   1
 Largest concise Abelian subgroup C1      NOp   1
                         Standard orientation:                         
 ---------------------------------------------------------------------
 Center     Atomic      Atomic             Coordinates (Angstroms)
 Number     Number       Type             X           Y           Z
 ---------------------------------------------------------------------
      1          6           0       -1.234669    0.200017    0.231818
      2          1           0       -1.894965    0.421998    1.074944
      3          8           0       -1.088248   -1.048143   -0.055976
      4          6           0       -0.437992    1.183414   -0.348438
      5          1           0       -0.142161    1.055018   -1.382806
      6          1           0       -0.578005    2.209599   -0.024424
      7          6           0        1.280113    0.422435    0.294429
      8          1           0        1.871128    1.171441   -0.246362
      9          1           0        1.216798    0.616150    1.375437
     10          8           0        1.304440   -0.790370   -0.121247
     11          1           0        0.152957   -1.601299   -0.445861
 ---------------------------------------------------------------------
 Rotational constants (GHZ):           7.6528046           4.8535892           3.3073757
 Leave Link  202 at Tue Oct 15 20:23:01 2019, MaxMem=   280000000 cpu:               0.5 elap:               0.0
 (Enter /home/soft/g16/l301.exe)
 Standard basis: 6-311+G(d) (5D, 7F)
 Ernie: Thresh=  0.10000D-02 Tol=  0.10000D-05 Strict=F.
 There are   133 symmetry adapted cartesian basis functions of A   symmetry.
 There are   128 symmetry adapted basis functions of A   symmetry.
   128 basis functions,   210 primitive gaussians,   133 cartesian basis functions
    20 alpha electrons       20 beta electrons
       nuclear repulsion energy       178.5629935387 Hartrees.
 IExCor=  402 DFT=T Ex+Corr=B3LYP ExCW=0 ScaHFX=  0.200000
 ScaDFX=  0.800000  0.720000  1.000000  0.810000 ScalE2=  1.000000  1.000000
 IRadAn=      5 IRanWt=     -1 IRanGd=            0 ICorTp=0 IEmpDi=  4
 NAtoms=   11 NActive=   11 NUniq=   11 SFac= 1.00D+00 NAtFMM=   60 NAOKFM=F Big=F
 Integral buffers will be    131072 words long.
 Raffenetti 2 integral format.
 Two-electron integral symmetry is turned on.
 Leave Link  301 at Tue Oct 15 20:23:02 2019, MaxMem=   280000000 cpu:               2.1 elap:               0.1
 (Enter /home/soft/g16/l302.exe)
 NPDir=0 NMtPBC=     1 NCelOv=     1 NCel=       1 NClECP=     1 NCelD=      1
         NCelK=      1 NCelE2=     1 NClLst=     1 CellRange=     0.0.
 One-electron integrals computed using PRISM.
 One-electron integral symmetry used in STVInt
 NBasis=   128 RedAO= T EigKep=  9.08D-05  NBF=   128
 NBsUse=   128 1.00D-06 EigRej= -1.00D+00 NBFU=   128
 Precomputing XC quadrature grid using
 IXCGrd= 4 IRadAn=           5 IRanWt=          -1 IRanGd=           0 AccXCQ= 0.00D+00.
 Generated NRdTot=       0 NPtTot=           0 NUsed=           0 NTot=          32
 NSgBfM=   133   133   133   133   133 MxSgAt=    11 MxSgA2=    11.
 Leave Link  302 at Tue Oct 15 20:23:02 2019, MaxMem=   280000000 cpu:               4.5 elap:               0.3
 (Enter /home/soft/g16/l303.exe)
 DipDrv:  MaxL=1.
 Leave Link  303 at Tue Oct 15 20:23:02 2019, MaxMem=   280000000 cpu:               1.4 elap:               0.1
 (Enter /home/soft/g16/l401.exe)
 ExpMin= 4.38D-02 ExpMax= 8.59D+03 ExpMxC= 1.30D+03 IAcc=3 IRadAn=         5 AccDes= 0.00D+00
 Harris functional with IExCor=  402 and IRadAn=       5 diagonalized for initial guess.
 HarFok:  IExCor=  402 AccDes= 0.00D+00 IRadAn=         5 IDoV= 1 UseB2=F ITyADJ=14
 ICtDFT=  3500011 ScaDFX=  1.000000  1.000000  1.000000  1.000000
 FoFCou: FMM=F IPFlag=           0 FMFlag=      100000 FMFlg1=           0
         NFxFlg=           0 DoJE=T BraDBF=F KetDBF=T FulRan=T
         wScrn=  0.000000 ICntrl=       500 IOpCl=  0 I1Cent=   200000004 NGrid=           0
         NMat0=    1 NMatS0=      1 NMatT0=    0 NMatD0=    1 NMtDS0=    0 NMtDT0=    0
 Petite list used in FoFCou.
 Harris En= -268.370181807659    
 JPrj=0 DoOrth=F DoCkMO=F.
 Leave Link  401 at Tue Oct 15 20:23:02 2019, MaxMem=   280000000 cpu:               8.3 elap:               0.4
 (Enter /home/soft/g16/l502.exe)
 Keep R1 ints in memory in canonical form, NReq=57089831.
 FoFCou: FMM=F IPFlag=           0 FMFlag=           0 FMFlg1=           0
         NFxFlg=           0 DoJE=F BraDBF=F KetDBF=F FulRan=T
         wScrn=  0.000000 ICntrl=       600 IOpCl=  0 I1Cent=           0 NGrid=           0
         NMat0=    1 NMatS0=   8256 NMatT0=    0 NMatD0=    1 NMtDS0=    0 NMtDT0=    0
 Symmetry not used in FoFCou.
 Two-electron integral symmetry not used.
 Closed shell SCF:
 Using DIIS extrapolation, IDIIS=  1040.
 NGot=   280000000 LenX=   245875069 LenY=   245856939
 Requested convergence on RMS density matrix=1.00D-08 within 128 cycles.
 Requested convergence on MAX density matrix=1.00D-06.
 Requested convergence on             energy=1.00D-06.
 No special actions if energy rises.

 Cycle   1  Pass 1  IDiag  1:
 E= -268.174410529279    
 DIIS: error= 2.81D-02 at cycle   1 NSaved=   1.
 NSaved= 1 IEnMin= 1 EnMin= -268.174410529279     IErMin= 1 ErrMin= 2.81D-02
 ErrMax= 2.81D-02  0.00D+00 EMaxC= 1.00D-01 BMatC= 2.03D-01 BMatP= 2.03D-01
 IDIUse=3 WtCom= 7.19D-01 WtEn= 2.81D-01
 Coeff-Com:  0.100D+01
 Coeff-En:   0.100D+01
 Coeff:      0.100D+01
 Gap=     0.142 Goal=   None    Shift=    0.000
 GapD=    0.142 DampG=1.000 DampE=0.500 DampFc=0.5000 IDamp=-1.
 Damping current iteration by 5.00D-01
 RMSDP=1.50D-02 MaxDP=7.72D-01              OVMax= 2.76D-01

 Cycle   2  Pass 1  IDiag  1:
 E= -268.206622312410     Delta-E=       -0.032211783132 Rises=F Damp=T
 DIIS: error= 1.59D-02 at cycle   2 NSaved=   2.
 NSaved= 2 IEnMin= 2 EnMin= -268.206622312410     IErMin= 2 ErrMin= 1.59D-02
 ErrMax= 1.59D-02  0.00D+00 EMaxC= 1.00D-01 BMatC= 3.22D-02 BMatP= 2.03D-01
 IDIUse=3 WtCom= 8.41D-01 WtEn= 1.59D-01
 Coeff-Com:  0.232D+00 0.768D+00
 Coeff-En:   0.394D+00 0.606D+00
 Coeff:      0.258D+00 0.742D+00
 Gap=     0.247 Goal=   None    Shift=    0.000
 RMSDP=5.57D-03 MaxDP=2.96D-01 DE=-3.22D-02 OVMax= 1.95D-01

 Cycle   3  Pass 1  IDiag  1:
 E= -268.307623499674     Delta-E=       -0.101001187264 Rises=F Damp=F
 DIIS: error= 1.38D-02 at cycle   3 NSaved=   3.
 NSaved= 3 IEnMin= 3 EnMin= -268.307623499674     IErMin= 3 ErrMin= 1.38D-02
 ErrMax= 1.38D-02  0.00D+00 EMaxC= 1.00D-01 BMatC= 2.33D-02 BMatP= 3.22D-02
 IDIUse=3 WtCom= 8.62D-01 WtEn= 1.38D-01
 Coeff-Com:  0.752D-01 0.464D+00 0.461D+00
 Coeff-En:   0.000D+00 0.000D+00 0.100D+01
 Coeff:      0.648D-01 0.400D+00 0.535D+00
 Gap=     0.196 Goal=   None    Shift=    0.000
 RMSDP=1.62D-03 MaxDP=2.37D-02 DE=-1.01D-01 OVMax= 7.11D-02

 Cycle   4  Pass 1  IDiag  1:
 E= -268.323644512939     Delta-E=       -0.016021013265 Rises=F Damp=F
 DIIS: error= 6.52D-03 at cycle   4 NSaved=   4.
 NSaved= 4 IEnMin= 4 EnMin= -268.323644512939     IErMin= 4 ErrMin= 6.52D-03
 ErrMax= 6.52D-03  0.00D+00 EMaxC= 1.00D-01 BMatC= 5.73D-03 BMatP= 2.33D-02
 IDIUse=3 WtCom= 9.35D-01 WtEn= 6.52D-02
 Coeff-Com:  0.727D-02 0.111D+00 0.344D+00 0.538D+00
 Coeff-En:   0.000D+00 0.000D+00 0.239D+00 0.761D+00
 Coeff:      0.679D-02 0.104D+00 0.337D+00 0.553D+00
 Gap=     0.199 Goal=   None    Shift=    0.000
 RMSDP=6.90D-04 MaxDP=1.20D-02 DE=-1.60D-02 OVMax= 3.09D-02

 Cycle   5  Pass 1  IDiag  1:
 E= -268.328620521969     Delta-E=       -0.004976009030 Rises=F Damp=F
 DIIS: error= 1.26D-03 at cycle   5 NSaved=   5.
 NSaved= 5 IEnMin= 5 EnMin= -268.328620521969     IErMin= 5 ErrMin= 1.26D-03
 ErrMax= 1.26D-03  0.00D+00 EMaxC= 1.00D-01 BMatC= 2.93D-04 BMatP= 5.73D-03
 IDIUse=3 WtCom= 9.87D-01 WtEn= 1.26D-02
 Coeff-Com: -0.465D-03 0.316D-01 0.160D+00 0.320D+00 0.489D+00
 Coeff-En:   0.000D+00 0.000D+00 0.000D+00 0.000D+00 0.100D+01
 Coeff:     -0.459D-03 0.312D-01 0.158D+00 0.316D+00 0.496D+00
 Gap=     0.192 Goal=   None    Shift=    0.000
 RMSDP=1.53D-04 MaxDP=2.80D-03 DE=-4.98D-03 OVMax= 7.33D-03

 Cycle   6  Pass 1  IDiag  1:
 E= -268.328806673070     Delta-E=       -0.000186151101 Rises=F Damp=F
 DIIS: error= 7.88D-04 at cycle   6 NSaved=   6.
 NSaved= 6 IEnMin= 6 EnMin= -268.328806673070     IErMin= 6 ErrMin= 7.88D-04
 ErrMax= 7.88D-04  0.00D+00 EMaxC= 1.00D-01 BMatC= 7.74D-05 BMatP= 2.93D-04
 IDIUse=3 WtCom= 9.92D-01 WtEn= 7.88D-03
 Coeff-Com: -0.192D-02 0.338D-02 0.499D-01 0.124D+00 0.358D+00 0.466D+00
 Coeff-En:   0.000D+00 0.000D+00 0.000D+00 0.000D+00 0.225D+00 0.775D+00
 Coeff:     -0.190D-02 0.336D-02 0.495D-01 0.123D+00 0.357D+00 0.468D+00
 Gap=     0.193 Goal=   None    Shift=    0.000
 RMSDP=6.24D-05 MaxDP=8.84D-04 DE=-1.86D-04 OVMax= 3.00D-03

 Cycle   7  Pass 1  IDiag  1:
 E= -268.328865653287     Delta-E=       -0.000058980217 Rises=F Damp=F
 DIIS: error= 1.19D-04 at cycle   7 NSaved=   7.
 NSaved= 7 IEnMin= 7 EnMin= -268.328865653287     IErMin= 7 ErrMin= 1.19D-04
 ErrMax= 1.19D-04  0.00D+00 EMaxC= 1.00D-01 BMatC= 2.47D-06 BMatP= 7.74D-05
 IDIUse=3 WtCom= 9.99D-01 WtEn= 1.19D-03
 Coeff-Com: -0.773D-03-0.457D-03 0.151D-01 0.426D-01 0.156D+00 0.241D+00
 Coeff-Com:  0.546D+00
 Coeff-En:   0.000D+00 0.000D+00 0.000D+00 0.000D+00 0.000D+00 0.000D+00
 Coeff-En:   0.100D+01
 Coeff:     -0.772D-03-0.456D-03 0.151D-01 0.426D-01 0.156D+00 0.241D+00
 Coeff:      0.546D+00
 Gap=     0.192 Goal=   None    Shift=    0.000
 RMSDP=1.43D-05 MaxDP=4.53D-04 DE=-5.90D-05 OVMax= 6.28D-04

 Cycle   8  Pass 1  IDiag  1:
 E= -268.328867721084     Delta-E=       -0.000002067798 Rises=F Damp=F
 DIIS: error= 2.75D-05 at cycle   8 NSaved=   8.
 NSaved= 8 IEnMin= 8 EnMin= -268.328867721084     IErMin= 8 ErrMin= 2.75D-05
 ErrMax= 2.75D-05  0.00D+00 EMaxC= 1.00D-01 BMatC= 1.61D-07 BMatP= 2.47D-06
 IDIUse=1 WtCom= 1.00D+00 WtEn= 0.00D+00
 Coeff-Com: -0.168D-04-0.605D-03 0.112D-02 0.476D-02 0.295D-01 0.491D-01
 Coeff-Com:  0.237D+00 0.679D+00
 Coeff:     -0.168D-04-0.605D-03 0.112D-02 0.476D-02 0.295D-01 0.491D-01
 Coeff:      0.237D+00 0.679D+00
 Gap=     0.192 Goal=   None    Shift=    0.000
 RMSDP=3.65D-06 MaxDP=5.48D-05 DE=-2.07D-06 OVMax= 1.53D-04

 Cycle   9  Pass 1  IDiag  1:
 E= -268.328867872328     Delta-E=       -0.000000151244 Rises=F Damp=F
 DIIS: error= 3.25D-06 at cycle   9 NSaved=   9.
 NSaved= 9 IEnMin= 9 EnMin= -268.328867872328     IErMin= 9 ErrMin= 3.25D-06
 ErrMax= 3.25D-06  0.00D+00 EMaxC= 1.00D-01 BMatC= 3.31D-09 BMatP= 1.61D-07
 IDIUse=1 WtCom= 1.00D+00 WtEn= 0.00D+00
 Coeff-Com:  0.396D-04-0.146D-03-0.390D-03-0.661D-03 0.559D-03 0.893D-03
 Coeff-Com:  0.285D-01 0.185D+00 0.786D+00
 Coeff:      0.396D-04-0.146D-03-0.390D-03-0.661D-03 0.559D-03 0.893D-03
 Coeff:      0.285D-01 0.185D+00 0.786D+00
 Gap=     0.192 Goal=   None    Shift=    0.000
 RMSDP=8.54D-07 MaxDP=1.30D-05 DE=-1.51D-07 OVMax= 2.07D-05

 Cycle  10  Pass 1  IDiag  1:
 E= -268.328867875589     Delta-E=       -0.000000003260 Rises=F Damp=F
 DIIS: error= 1.12D-06 at cycle  10 NSaved=  10.
 NSaved=10 IEnMin=10 EnMin= -268.328867875589     IErMin=10 ErrMin= 1.12D-06
 ErrMax= 1.12D-06  0.00D+00 EMaxC= 1.00D-01 BMatC= 2.43D-10 BMatP= 3.31D-09
 IDIUse=1 WtCom= 1.00D+00 WtEn= 0.00D+00
 Coeff-Com:  0.102D-04-0.320D-04-0.180D-03-0.323D-03-0.374D-03-0.572D-03
 Coeff-Com:  0.586D-02 0.577D-01 0.297D+00 0.640D+00
 Coeff:      0.102D-04-0.320D-04-0.180D-03-0.323D-03-0.374D-03-0.572D-03
 Coeff:      0.586D-02 0.577D-01 0.297D+00 0.640D+00
 Gap=     0.192 Goal=   None    Shift=    0.000
 RMSDP=1.61D-07 MaxDP=2.83D-06 DE=-3.26D-09 OVMax= 9.38D-06

 Cycle  11  Pass 1  IDiag  1:
 E= -268.328867875797     Delta-E=       -0.000000000209 Rises=F Damp=F
 DIIS: error= 6.24D-07 at cycle  11 NSaved=  11.
 NSaved=11 IEnMin=11 EnMin= -268.328867875797     IErMin=11 ErrMin= 6.24D-07
 ErrMax= 6.24D-07  0.00D+00 EMaxC= 1.00D-01 BMatC= 7.07D-11 BMatP= 2.43D-10
 IDIUse=1 WtCom= 1.00D+00 WtEn= 0.00D+00
 Coeff-Com: -0.274D-05 0.717D-05-0.555D-04-0.102D-03-0.385D-03-0.618D-03
 Coeff-Com: -0.183D-02 0.199D-02 0.443D-01 0.398D+00 0.559D+00
 Coeff:     -0.274D-05 0.717D-05-0.555D-04-0.102D-03-0.385D-03-0.618D-03
 Coeff:     -0.183D-02 0.199D-02 0.443D-01 0.398D+00 0.559D+00
 Gap=     0.192 Goal=   None    Shift=    0.000
 RMSDP=6.63D-08 MaxDP=1.42D-06 DE=-2.09D-10 OVMax= 2.32D-06

 Cycle  12  Pass 1  IDiag  1:
 E= -268.328867875867     Delta-E=       -0.000000000070 Rises=F Damp=F
 DIIS: error= 4.57D-08 at cycle  12 NSaved=  12.
 NSaved=12 IEnMin=12 EnMin= -268.328867875867     IErMin=12 ErrMin= 4.57D-08
 ErrMax= 4.57D-08  0.00D+00 EMaxC= 1.00D-01 BMatC= 4.96D-13 BMatP= 7.07D-11
 IDIUse=1 WtCom= 1.00D+00 WtEn= 0.00D+00
 Coeff-Com: -0.147D-05 0.331D-05-0.319D-05-0.548D-05-0.443D-04-0.658D-04
 Coeff-Com: -0.495D-03-0.188D-02-0.554D-02 0.442D-01 0.102D+00 0.862D+00
 Coeff:     -0.147D-05 0.331D-05-0.319D-05-0.548D-05-0.443D-04-0.658D-04
 Coeff:     -0.495D-03-0.188D-02-0.554D-02 0.442D-01 0.102D+00 0.862D+00
 Gap=     0.192 Goal=   None    Shift=    0.000
 RMSDP=1.25D-08 MaxDP=2.55D-07 DE=-6.97D-11 OVMax= 4.46D-07

 Cycle  13  Pass 1  IDiag  1:
 E= -268.328867875862     Delta-E=        0.000000000005 Rises=F Damp=F
 DIIS: error= 1.43D-08 at cycle  13 NSaved=  13.
 NSaved=13 IEnMin=12 EnMin= -268.328867875867     IErMin=13 ErrMin= 1.43D-08
 ErrMax= 1.43D-08  0.00D+00 EMaxC= 1.00D-01 BMatC= 3.07D-14 BMatP= 4.96D-13
 IDIUse=1 WtCom= 1.00D+00 WtEn= 0.00D+00
 Coeff-Com: -0.140D-06 0.400D-06 0.241D-06 0.779D-06 0.240D-05-0.694D-06
 Coeff-Com: -0.223D-04-0.318D-03-0.204D-02-0.734D-02-0.628D-02 0.125D+00
 Coeff-Com:  0.891D+00
 Coeff:     -0.140D-06 0.400D-06 0.241D-06 0.779D-06 0.240D-05-0.694D-06
 Coeff:     -0.223D-04-0.318D-03-0.204D-02-0.734D-02-0.628D-02 0.125D+00
 Coeff:      0.891D+00
 Gap=     0.192 Goal=   None    Shift=    0.000
 RMSDP=2.44D-09 MaxDP=3.22D-08 DE= 4.66D-12 OVMax= 1.11D-07

 SCF Done:  E(RB3LYP) =  -268.328867876     A.U. after   13 cycles
            NFock= 13  Conv=0.24D-08     -V/T= 2.0045
 KE= 2.671235515942D+02 PE=-9.860842352032D+02 EE= 2.720688221945D+02
 Leave Link  502 at Tue Oct 15 20:23:06 2019, MaxMem=   280000000 cpu:              59.6 elap:               3.1
 (Enter /home/soft/g16/l801.exe)
 DoSCS=F DFT=T ScalE2(SS,OS)=  1.000000  1.000000
 Range of M.O.s used for correlation:     1   128
 NBasis=   128 NAE=    20 NBE=    20 NFC=     0 NFV=     0
 NROrb=    128 NOA=    20 NOB=    20 NVA=   108 NVB=   108

 **** Warning!!: The largest alpha MO coefficient is  0.39586607D+02

 Leave Link  801 at Tue Oct 15 20:23:06 2019, MaxMem=   280000000 cpu:               0.9 elap:               0.1
 (Enter /home/soft/g16/l1101.exe)
 Using compressed storage, NAtomX=    11.
 Will process     12 centers per pass.
 Leave Link 1101 at Tue Oct 15 20:23:06 2019, MaxMem=   280000000 cpu:               4.9 elap:               0.3
 (Enter /home/soft/g16/l1102.exe)
 Symmetrizing basis deriv contribution to polar:
 IMax=3 JMax=2 DiffMx= 0.00D+00
 Leave Link 1102 at Tue Oct 15 20:23:07 2019, MaxMem=   280000000 cpu:               2.1 elap:               0.2
 (Enter /home/soft/g16/l1110.exe)
 Forming Gx(P) for the SCF density, NAtomX=    11.
 Integral derivatives from FoFJK, PRISM(SPDF).
 Do as many integral derivatives as possible in FoFJK.
 G2DrvN: MDV=     279999094.
 G2DrvN: will do    12 centers at a time, making    1 passes.
 Calling FoFCou, ICntrl=  3107 FMM=F I1Cent=   0 AccDes= 0.00D+00.
 FoFJK:  IHMeth= 1 ICntrl=    3107 DoSepK=F KAlg= 0 I1Cent=           0 FoldK=F
 IRaf=         0 NMat=       1 IRICut=       1 DoRegI=T DoRafI=F ISym2E= 0 IDoP0=0 IntGTp=1.
 FoFCou: FMM=F IPFlag=           0 FMFlag=      100000 FMFlg1=           0
         NFxFlg=           0 DoJE=F BraDBF=F KetDBF=F FulRan=T
         wScrn=  0.000000 ICntrl=      3107 IOpCl=  0 I1Cent=           0 NGrid=           0
         NMat0=    1 NMatS0=      1 NMatT0=    0 NMatD0=    1 NMtDS0=    0 NMtDT0=    0
 Symmetry not used in FoFCou.
 End of G2Drv F.D. properties file   721 does not exist.
 End of G2Drv F.D. properties file   722 does not exist.
 End of G2Drv F.D. properties file   788 does not exist.
 Leave Link 1110 at Tue Oct 15 20:23:11 2019, MaxMem=   280000000 cpu:              92.8 elap:               3.9
 (Enter /home/soft/g16/l1002.exe)
 Minotr:  Closed shell wavefunction.
          IDoAtm=11111111111
          Direct CPHF calculation.
          Differentiating once with respect to nuclear coordinates.
          Requested convergence is 1.0D-08 RMS, and 1.0D-07 maximum.
          Secondary convergence is 1.0D-12 RMS, and 1.0D-12 maximum.
          NewPWx=T KeepS1=F KeepF1=F KeepIn=T MapXYZ=F SortEE=F KeepMc=T.
         3335 words used for storage of precomputed grid.
 Keep R1 ints in memory in canonical form, NReq=57016494.
 FoFCou: FMM=F IPFlag=           0 FMFlag=           0 FMFlg1=           0
         NFxFlg=           0 DoJE=F BraDBF=F KetDBF=F FulRan=T
         wScrn=  0.000000 ICntrl=       600 IOpCl=  0 I1Cent=           0 NGrid=           0
         NMat0=    1 NMatS0=   8256 NMatT0=    0 NMatD0=    1 NMtDS0=    0 NMtDT0=    0
 Symmetry not used in FoFCou.
 Two-electron integral symmetry not used.
          MDV=     280000000 using IRadAn=       1.
          Solving linear equations simultaneously, MaxMat=       0.
          There are    36 degrees of freedom in the 1st order CPHF.  IDoFFX=6 NUNeed=     0.
     30 vectors produced by pass  0 Test12= 6.00D-15 2.78D-09 XBig12= 1.98D-01 1.36D-01.
 AX will form    30 AO Fock derivatives at one time.
     30 vectors produced by pass  1 Test12= 6.00D-15 2.78D-09 XBig12= 6.04D-02 6.76D-02.
     30 vectors produced by pass  2 Test12= 6.00D-15 2.78D-09 XBig12= 7.04D-04 4.09D-03.
     30 vectors produced by pass  3 Test12= 6.00D-15 2.78D-09 XBig12= 4.77D-06 3.01D-04.
     30 vectors produced by pass  4 Test12= 6.00D-15 2.78D-09 XBig12= 1.13D-08 1.62D-05.
     27 vectors produced by pass  5 Test12= 6.00D-15 2.78D-09 XBig12= 1.48D-11 5.51D-07.
      1 vectors produced by pass  6 Test12= 6.00D-15 2.78D-09 XBig12= 1.39D-14 1.62D-08.
 InvSVY:  IOpt=1 It=  1 EMax= 1.55D-15
 Solved reduced A of dimension   178 with    30 vectors.
 End of Minotr F.D. properties file   721 does not exist.
 End of Minotr F.D. properties file   722 does not exist.
 End of Minotr F.D. properties file   788 does not exist.
 Leave Link 1002 at Tue Oct 15 20:23:15 2019, MaxMem=   280000000 cpu:             109.6 elap:               4.7
 (Enter /home/soft/g16/l601.exe)
 Copying SCF densities to generalized density rwf, IOpCl= 0 IROHF=0.

 **********************************************************************

            Population analysis using the SCF density.

 **********************************************************************

 Orbital symmetries:
       Occupied  (A) (A) (A) (A) (A) (A) (A) (A) (A) (A) (A) (A)
                 (A) (A) (A) (A) (A) (A) (A) (A)
       Virtual   (A) (A) (A) (A) (A) (A) (A) (A) (A) (A) (A) (A)
                 (A) (A) (A) (A) (A) (A) (A) (A) (A) (A) (A) (A)
                 (A) (A) (A) (A) (A) (A) (A) (A) (A) (A) (A) (A)
                 (A) (A) (A) (A) (A) (A) (A) (A) (A) (A) (A) (A)
                 (A) (A) (A) (A) (A) (A) (A) (A) (A) (A) (A) (A)
                 (A) (A) (A) (A) (A) (A) (A) (A) (A) (A) (A) (A)
                 (A) (A) (A) (A) (A) (A) (A) (A) (A) (A) (A) (A)
                 (A) (A) (A) (A) (A) (A) (A) (A) (A) (A) (A) (A)
                 (A) (A) (A) (A) (A) (A) (A) (A) (A) (A) (A) (A)
 The electronic state is 1-A.
 Alpha  occ. eigenvalues --  -19.14823 -19.11381 -10.26990 -10.26042 -10.19005
 Alpha  occ. eigenvalues --   -1.05439  -1.01613  -0.77297  -0.64287  -0.61038
 Alpha  occ. eigenvalues --   -0.52018  -0.50507  -0.46962  -0.45149  -0.43103
 Alpha  occ. eigenvalues --   -0.41443  -0.35476  -0.32067  -0.26731  -0.25179
 Alpha virt. eigenvalues --   -0.05932  -0.01888   0.00623   0.02141   0.02407
 Alpha virt. eigenvalues --    0.05037   0.05457   0.06604   0.07041   0.07938
 Alpha virt. eigenvalues --    0.08672   0.10469   0.11618   0.13359   0.14498
 Alpha virt. eigenvalues --    0.17000   0.18431   0.19855   0.20225   0.21720
 Alpha virt. eigenvalues --    0.22438   0.23225   0.25832   0.27140   0.28530
 Alpha virt. eigenvalues --    0.29569   0.30337   0.32407   0.33283   0.34353
 Alpha virt. eigenvalues --    0.40927   0.41382   0.44408   0.46473   0.48280
 Alpha virt. eigenvalues --    0.50541   0.52292   0.57893   0.61159   0.64233
 Alpha virt. eigenvalues --    0.65006   0.65830   0.67383   0.68928   0.70623
 Alpha virt. eigenvalues --    0.71603   0.80461   0.88461   0.94088   1.01475
 Alpha virt. eigenvalues --    1.05410   1.08559   1.12508   1.14948   1.19444
 Alpha virt. eigenvalues --    1.22578   1.32223   1.33170   1.37918   1.43692
 Alpha virt. eigenvalues --    1.49793   1.52638   1.55002   1.58432   1.60972
 Alpha virt. eigenvalues --    1.68932   1.75019   1.77172   1.88121   1.92146
 Alpha virt. eigenvalues --    2.01195   2.12092   2.37791   2.38198   2.43752
 Alpha virt. eigenvalues --    2.46408   2.49557   2.58271   2.66274   2.69317
 Alpha virt. eigenvalues --    2.83659   2.85762   2.87050   2.91475   3.07409
 Alpha virt. eigenvalues --    3.10216   3.12390   3.14377   3.18269   3.20389
 Alpha virt. eigenvalues --    3.27053   3.29130   3.34095   3.41784   3.62715
 Alpha virt. eigenvalues --    3.91394   4.02431   4.98909   5.05085   5.07651
 Alpha virt. eigenvalues --    5.10888   5.54989   5.59677  23.47903  23.61752
 Alpha virt. eigenvalues --   23.95498  49.87325  49.89399
          Condensed to atoms (all electrons):
               1          2          3          4          5          6
     1  C    5.210807   0.352858   0.375101   0.107824  -0.047317  -0.042792
     2  H    0.352858   0.493341  -0.060251   0.007293   0.002267  -0.002111
     3  O    0.375101  -0.060251   8.081061  -0.075602  -0.009356   0.008745
     4  C    0.107824   0.007293  -0.075602   6.092023   0.412559   0.366427
     5  H   -0.047317   0.002267  -0.009356   0.412559   0.402862  -0.023369
     6  H   -0.042792  -0.002111   0.008745   0.366427  -0.023369   0.443743
     7  C    0.044052  -0.013969  -0.040528  -0.067385  -0.025492  -0.003425
     8  H    0.042731  -0.000417   0.001608  -0.097711  -0.009477   0.000167
     9  H   -0.039741  -0.000629   0.000129  -0.019880   0.003828   0.001695
    10  O   -0.038915  -0.003478  -0.042446  -0.089070  -0.003515   0.005881
    11  H   -0.017422   0.001617   0.136864  -0.011765  -0.000362   0.000127
               7          8          9         10         11
     1  C    0.044052   0.042731  -0.039741  -0.038915  -0.017422
     2  H   -0.013969  -0.000417  -0.000629  -0.003478   0.001617
     3  O   -0.040528   0.001608   0.000129  -0.042446   0.136864
     4  C   -0.067385  -0.097711  -0.019880  -0.089070  -0.011765
     5  H   -0.025492  -0.009477   0.003828  -0.003515  -0.000362
     6  H   -0.003425   0.000167   0.001695   0.005881   0.000127
     7  C    5.350409   0.417741   0.397583   0.334939  -0.006044
     8  H    0.417741   0.557064  -0.074461  -0.076879  -0.000069
     9  H    0.397583  -0.074461   0.563122  -0.059975   0.001262
    10  O    0.334939  -0.076879  -0.059975   8.210382   0.134494
    11  H   -0.006044  -0.000069   0.001262   0.134494   0.287300
 Mulliken charges:
               1
     1  C    0.052814
     2  H    0.223479
     3  O   -0.375326
     4  C   -0.624714
     5  H    0.297371
     6  H    0.244911
     7  C   -0.387882
     8  H    0.239703
     9  H    0.227067
    10  O   -0.371421
    11  H    0.473998
 Sum of Mulliken charges =  -0.00000
 Mulliken charges with hydrogens summed into heavy atoms:
               1
     1  C    0.276293
     3  O    0.098672
     4  C   -0.082432
     7  C    0.078888
    10  O   -0.371421
 APT charges:
               1
     1  C   -0.221168
     2  H    0.545254
     3  O   -0.464462
     4  C   -1.042043
     5  H    0.434928
     6  H    0.539811
     7  C   -0.821728
     8  H    0.515798
     9  H    0.412384
    10  O   -0.495518
    11  H    0.596743
 Sum of APT charges =  -0.00000
 APT charges with hydrogens summed into heavy atoms:
               1
     1  C    0.324086
     3  O    0.132281
     4  C   -0.067304
     7  C    0.106454
    10  O   -0.495518
 Electronic spatial extent (au):  <R**2>=            402.3204
 Charge=             -0.0000 electrons
 Dipole moment (field-independent basis, Debye):
    X=             -0.5890    Y=              2.6128    Z=              0.3610  Tot=              2.7026
 Quadrupole moment (field-independent basis, Debye-Ang):
   XX=            -33.9864   YY=            -30.1435   ZZ=            -29.8776
   XY=              0.4185   XZ=             -0.8412   YZ=              1.2143
 Traceless Quadrupole moment (field-independent basis, Debye-Ang):
   XX=             -2.6506   YY=              1.1923   ZZ=              1.4582
   XY=              0.4185   XZ=             -0.8412   YZ=              1.2143
 Octapole moment (field-independent basis, Debye-Ang**2):
  XXX=             -3.3154  YYY=             -7.0266  ZZZ=             -0.2386  XYY=              2.5099
  XXY=              7.9600  XXZ=              4.0505  XZZ=             -0.2856  YZZ=             -1.2724
  YYZ=             -2.6905  XYZ=             -1.3972
 Hexadecapole moment (field-independent basis, Debye-Ang**3):
 XXXX=           -276.6457 YYYY=           -170.0811 ZZZZ=            -60.0654 XXXY=              6.5341
 XXXZ=             -5.5733 YYYX=             -3.2077 YYYZ=              7.6238 ZZZX=             -1.6356
 ZZZY=              0.4222 XXYY=            -86.5763 XXZZ=            -55.2623 YYZZ=            -41.7843
 XXYZ=              0.6778 YYXZ=             -2.2133 ZZXY=              1.0764
 N-N= 1.785629935387D+02 E-N=-9.860842343621D+02  KE= 2.671235515942D+02
  Exact polarizability:   0.000   0.000   0.000   0.000   0.000   0.000
 Approx polarizability: 102.649  -1.059  88.261  -2.605   3.695  54.105
 No NMR shielding tensors so no spin-rotation constants.
 Leave Link  601 at Tue Oct 15 20:23:16 2019, MaxMem=   280000000 cpu:               2.3 elap:               0.1
 (Enter /home/soft/g16/l701.exe)
 ... and contract with generalized density number  0.
 Compute integral second derivatives.
 Leave Link  701 at Tue Oct 15 20:23:16 2019, MaxMem=   280000000 cpu:               3.9 elap:               0.2
 (Enter /home/soft/g16/l702.exe)
 L702 exits ... SP integral derivatives will be done elsewhere.
 Leave Link  702 at Tue Oct 15 20:23:16 2019, MaxMem=   280000000 cpu:               0.5 elap:               0.0
 (Enter /home/soft/g16/l703.exe)
 Integral derivatives from FoFJK, PRISM(SPDF).
 Compute integral second derivatives, UseDBF=F ICtDFT=           0.
 Calling FoFJK, ICntrl=    100147 FMM=F ISym2X=0 I1Cent= 0 IOpClX= 0 NMat=1 NMatS=1 NMatT=0.
 FoFJK:  IHMeth= 1 ICntrl=  100147 DoSepK=F KAlg= 0 I1Cent=           0 FoldK=F
 IRaf=         0 NMat=       1 IRICut=       1 DoRegI=T DoRafI=F ISym2E= 0 IDoP0=0 IntGTp=1.
 FoFCou: FMM=F IPFlag=           0 FMFlag=      100000 FMFlg1=         800
         NFxFlg=           0 DoJE=F BraDBF=F KetDBF=F FulRan=T
         wScrn=  0.000000 ICntrl=    100147 IOpCl=  0 I1Cent=           0 NGrid=           0
         NMat0=    1 NMatS0=      1 NMatT0=    0 NMatD0=    1 NMtDS0=    0 NMtDT0=    0
 Symmetry not used in FoFCou.
 Leave Link  703 at Tue Oct 15 20:23:22 2019, MaxMem=   280000000 cpu:             147.9 elap:               6.2
 (Enter /home/soft/g16/l716.exe)
 Dipole        =-2.31719566D-01 1.02796834D+00 1.42043085D-01
 Polarizability= 0.00000000D+00 0.00000000D+00 0.00000000D+00
                 0.00000000D+00 0.00000000D+00 0.00000000D+00
 ***** Axes restored to original set *****
 -------------------------------------------------------------------
 Center     Atomic                   Forces (Hartrees/Bohr)
 Number     Number              X              Y              Z
 -------------------------------------------------------------------
      1        6           0.014609776   -0.033310558   -0.008611767
      2        1           0.001246651   -0.001097631    0.002710733
      3        8          -0.008840612   -0.011959402   -0.009848230
      4        6           0.011228312    0.003649162   -0.001572169
      5        1          -0.001399611    0.000473043   -0.000528207
      6        1          -0.000248975    0.000897066   -0.000703945
      7        6          -0.022536780    0.008748708   -0.000635231
      8        1           0.001556200   -0.002757798   -0.000436945
      9        1           0.001619018   -0.001917071   -0.000473773
     10        8           0.008066831   -0.036993073   -0.015183236
     11        1          -0.005300810    0.074267554    0.035282769
 -------------------------------------------------------------------
 Cartesian Forces:  Max     0.074267554 RMS     0.018195478
 Force constants in Cartesian coordinates: 
                1             2             3             4             5 
      1  0.431244D+00
      2  0.445570D-01  0.665296D+00
      3 -0.257496D+00  0.303829D-01  0.477980D+00
      4 -0.147632D+00  0.152408D-01  0.121575D+00  0.138091D+00
      5  0.182428D-01 -0.552935D-01 -0.276800D-01 -0.278047D-01  0.737349D-01
      6  0.129814D+00 -0.232736D-01 -0.210898D+00 -0.146990D+00  0.408552D-01
      7 -0.105682D+00  0.120380D-01  0.364099D-01  0.380747D-02  0.281343D-01
      8  0.436562D-01 -0.358123D+00 -0.948669D-01  0.112727D-01 -0.263816D-01
      9  0.342185D-01 -0.650978D-01 -0.106137D+00  0.464855D-02 -0.310804D-01
     10 -0.140539D+00 -0.609280D-01  0.987008D-01  0.298304D-02 -0.112445D-01
     11 -0.125376D+00 -0.223865D+00  0.851368D-01  0.308726D-02  0.765486D-02
     12  0.102556D+00  0.789262D-01 -0.150133D+00  0.195253D-01  0.185965D-01
     13 -0.113192D-01 -0.518691D-02  0.251002D-01 -0.114423D-03 -0.402108D-02
     14 -0.338641D-02  0.784126D-02  0.221624D-01 -0.296567D-02 -0.194075D-02
     15  0.405075D-03 -0.674889D-02 -0.850553D-02  0.119146D-02  0.978755D-03
     16  0.473895D-02 -0.200943D-01 -0.132148D-01 -0.133629D-02  0.108740D-02
     17  0.900856D-02 -0.171158D-01 -0.101570D-01 -0.299294D-03  0.595356D-03
     18 -0.543131D-02  0.131970D-01  0.276376D-02 -0.135479D-02 -0.101894D-03
     19 -0.430350D-01 -0.617655D-01  0.364799D-02  0.436928D-03  0.140786D-02
     20  0.303975D-01  0.750734D-01 -0.770099D-02  0.313289D-02 -0.275128D-02
     21 -0.100752D-02 -0.611433D-03 -0.320479D-02 -0.631569D-03 -0.663804D-03
     22  0.280659D-02  0.876974D-02 -0.446346D-03  0.110717D-02  0.141316D-04
     23 -0.197713D-02 -0.581291D-02 -0.155662D-03 -0.139299D-03  0.323437D-03
     24 -0.577938D-03  0.451455D-02 -0.343321D-03  0.845562D-03 -0.242472D-04
     25  0.166881D-02  0.787596D-02 -0.547619D-02  0.337922D-04 -0.177937D-03
     26 -0.184537D-02 -0.184156D-02  0.384434D-03  0.301580D-03  0.325525D-03
     27  0.901438D-03  0.140434D-02 -0.955926D-04 -0.149166D-03  0.895390D-04
     28 -0.167182D-01 -0.141888D-01 -0.144831D-02  0.799902D-03  0.209752D-02
     29 -0.266369D-01 -0.843477D-01  0.826972D-02 -0.239266D-02  0.463443D-02
     30 -0.520574D-02 -0.286723D-01  0.572103D-02 -0.140067D-02  0.213081D-02
     31  0.244669D-01  0.736820D-01 -0.735204D-02  0.182318D-02 -0.773578D-02
     32  0.133597D-01 -0.181158D-02 -0.577579D-02  0.566436D-03 -0.901385D-03
     33  0.182385D-02 -0.402097D-02 -0.714796D-02  0.274041D-02 -0.310049D-02
                6             7             8             9            10 
      6  0.211299D+00
      7  0.620425D-02  0.117189D+00
      8 -0.180273D-01  0.315924D-01  0.460500D+00
      9 -0.983598D-03 -0.191459D-01  0.903387D-01  0.855096D-01
     10  0.938810D-02  0.294982D-01 -0.634362D-01 -0.250933D-01  0.204112D+00
     11 -0.454640D-02 -0.198641D-01 -0.655750D-01  0.461952D-02  0.114104D+00
     12 -0.252252D-02 -0.349129D-02 -0.564104D-02  0.206463D-01 -0.215157D+00
     13  0.360988D-02 -0.270423D-02  0.940651D-02 -0.240797D-02 -0.374543D-01
     14  0.138849D-03  0.318273D-03 -0.896376D-03 -0.235482D-02  0.172028D-02
     15  0.174371D-02 -0.195535D-02  0.292087D-02  0.213937D-02  0.907201D-01
     16 -0.191286D-02  0.128329D-02 -0.473974D-02  0.720987D-02 -0.416402D-01
     17  0.655886D-03 -0.421116D-02 -0.247534D-02  0.227960D-02  0.250874D-01
     18 -0.656930D-03  0.413977D-02  0.256095D-02  0.345097D-02  0.198523D-01
     19  0.146163D-02 -0.297492D-01  0.487269D-01  0.134600D-01  0.640660D-01
     20  0.258278D-02  0.304422D-01 -0.705508D-01 -0.253336D-01 -0.913994D-01
     21 -0.155520D-02  0.766573D-02 -0.134094D-02  0.332340D-02  0.993326D-02
     22  0.880192D-03  0.400796D-02 -0.734950D-02 -0.347231D-02 -0.253707D-01
     23 -0.949613D-04 -0.405484D-02  0.757559D-02  0.162535D-02  0.876445D-02
     24  0.114527D-02  0.720718D-03 -0.315138D-02 -0.221656D-02 -0.110412D-01
     25  0.419559D-03  0.527503D-03 -0.469762D-02 -0.722648D-03 -0.134937D-01
     26  0.166755D-03 -0.674327D-03  0.219041D-02  0.697499D-03  0.129054D-02
     27  0.434019D-03 -0.131643D-02 -0.431749D-03 -0.647109D-03 -0.382569D-02
     28  0.595904D-03 -0.536684D-01  0.246772D-01  0.111318D-01 -0.723811D-03
     29 -0.421602D-03 -0.535004D-01  0.813653D-01  0.215964D-01  0.816349D-01
     30  0.368758D-03 -0.248900D-01  0.253167D-01  0.141479D-01  0.252203D-01
     31 -0.347023D-02  0.354904D-01 -0.891087D-01 -0.198267D-01 -0.414382D-01
     32  0.196441D-02 -0.202204D-01 -0.276289D-01  0.270942D-02 -0.559323D-02
     33  0.162462D-02 -0.434137D-02  0.232198D-02 -0.192329D-01  0.130200D-02
               11            12            13            14            15 
     11  0.670160D+00
     12  0.337993D-01  0.550919D+00
     13  0.386201D-02  0.793129D-01  0.622958D-01
     14 -0.584877D-01 -0.327242D-01 -0.631368D-02  0.534183D-01
     15 -0.300457D-01 -0.312259D+00 -0.878167D-01  0.316389D-01  0.327571D+00
     16  0.347321D-01  0.235166D-01 -0.162346D-02  0.696041D-02  0.565356D-03
     17 -0.302500D+00 -0.846071D-01 -0.336623D-03  0.135791D-02  0.834235D-03
     18 -0.865303D-01 -0.793386D-01  0.223491D-02 -0.258748D-01 -0.357062D-02
     19 -0.216893D-01 -0.771733D-03 -0.144001D-01  0.449239D-02 -0.587991D-02
     20 -0.208325D-01 -0.127872D-01  0.953308D-02 -0.237619D-02  0.464666D-02
     21 -0.124132D-01 -0.271050D-01 -0.175606D-01  0.500694D-02 -0.878578D-02
     22 -0.377644D-02  0.117983D-02  0.897478D-03 -0.105180D-02  0.540936D-03
     23  0.402959D-02 -0.763891D-04 -0.839088D-04  0.291465D-03 -0.875680D-03
     24 -0.213687D-02 -0.901706D-03 -0.141472D-02 -0.276307D-03  0.119198D-02
     25  0.964454D-03 -0.135215D-01 -0.161666D-02  0.581760D-03 -0.899226D-03
     26  0.135375D-02  0.582514D-02  0.142731D-02 -0.378103D-03  0.279690D-03
     27  0.158157D-02 -0.213085D-02  0.230102D-03  0.272253D-03  0.392668D-03
     28  0.208756D-01  0.585142D-02  0.953966D-03  0.844709D-03  0.418660D-03
     29 -0.138109D-01  0.611416D-03 -0.922414D-02  0.174643D-02 -0.440212D-02
     30  0.861474D-02  0.216403D-02 -0.120103D-02  0.127051D-02  0.258625D-03
     31 -0.691958D-02  0.998968D-03  0.508518D-02 -0.120027D-02  0.270962D-02
     32  0.187325D-02 -0.192257D-02  0.937438D-03 -0.576249D-03  0.773264D-03
     33  0.192062D-02  0.661406D-03 -0.870138D-04  0.740119D-03 -0.175722D-03
               16            17            18            19            20 
     16  0.389748D-01
     17 -0.288219D-01  0.321157D+00
     18 -0.203503D-01  0.913684D-01  0.761712D-01
     19  0.496091D-02 -0.157499D-02  0.227067D-02  0.199311D+00
     20  0.870741D-02 -0.156064D-02  0.460733D-02  0.202077D+00  0.592448D+00
     21  0.652866D-02 -0.139792D-02  0.184966D-02 -0.983893D-01  0.848664D-01
     22  0.166888D-03  0.329253D-03  0.384380D-03 -0.109781D+00 -0.105181D+00
     23 -0.591867D-03  0.984047D-04 -0.284352D-03 -0.943184D-01 -0.140997D+00
     24  0.669610D-03  0.112970D-04  0.113289D-03  0.833464D-01  0.766684D-01
     25  0.433335D-03  0.285847D-03  0.218596D-03 -0.408196D-01 -0.159529D-01
     26 -0.473267D-03 -0.291212D-05 -0.301288D-03 -0.375686D-02 -0.549822D-01
     27 -0.711711D-03  0.451551D-03 -0.394117D-03  0.230593D-01 -0.187588D-01
     28 -0.468024D-02  0.128401D-02 -0.220865D-02 -0.787959D-01 -0.641258D-02
     29  0.399026D-02 -0.253835D-03  0.151388D-02 -0.699498D-01 -0.353725D+00
     30 -0.228170D-02  0.726723D-03  0.122775D-04 -0.227307D-01 -0.113036D+00
     31 -0.127790D-02 -0.751155D-03  0.244405D-03  0.478052D-01 -0.653442D-01
     32 -0.756608D-03  0.699482D-03 -0.154982D-03 -0.364938D-02 -0.197456D-01
     33 -0.187292D-04 -0.165680D-03 -0.400839D-03  0.525744D-03  0.424498D-02
               21            22            23            24            25 
     21  0.582580D+00
     22  0.797815D-01  0.120045D+00
     23  0.837341D-01  0.103453D+00  0.177599D+00
     24 -0.127352D+00 -0.788559D-01 -0.856117D-01  0.123481D+00
     25  0.194267D-01  0.435609D-02 -0.386122D-04  0.184896D-01  0.406443D-01
     26 -0.171586D-01 -0.979723D-03  0.469922D-02  0.173013D-01  0.211100D-02
     27 -0.288153D+00  0.356177D-03 -0.381365D-03 -0.127780D-01 -0.202820D-01
     28  0.208697D-02  0.709409D-02 -0.206376D-01 -0.107047D-01  0.115728D-01
     29 -0.140270D+00  0.669050D-02 -0.473270D-01 -0.499075D-02  0.996317D-02
     30 -0.119763D+00 -0.494659D-03 -0.148151D-02  0.168807D-01  0.174409D-02
     31 -0.783389D-02 -0.533020D-02  0.962371D-02 -0.147733D-02 -0.330674D-02
     32  0.248071D-03 -0.918534D-03 -0.480320D-03 -0.230430D-02 -0.915136D-03
     33 -0.118356D-01  0.146200D-03  0.360210D-02  0.779335D-03  0.603001D-03
               26            27            28            29            30 
     26  0.678664D-01
     27  0.373569D-01  0.308668D+00
     28 -0.178704D-02 -0.705859D-03  0.120849D+00
     29 -0.197433D-01 -0.219848D-01 -0.338229D-01  0.434523D+00
     30 -0.420515D-01 -0.556392D-02 -0.735380D-02  0.141682D+00  0.934085D-01
     31  0.438617D-02  0.244385D-02  0.133163D-01  0.932480D-01  0.385940D-01
     32  0.512783D-03  0.400608D-03  0.270699D-01 -0.306150D-02  0.549926D-02
     33 -0.250027D-02  0.268189D-03  0.233658D-02 -0.160500D-02 -0.763537D-02
               31            32            33 
     31 -0.766341D-01
     32 -0.988020D-02  0.511200D-01
     33 -0.503068D-02 -0.143738D-02  0.430948D-01
 FormGI is forming the generalized inverse of G from B-inverse, IUseBI=4.
 Force constants in internal coordinates: 
                1             2             3             4             5 
      1  0.335423D+00
      2  0.251394D-01  0.533136D+00
      3  0.533629D-02  0.927166D-01  0.470478D+00
      4 -0.422062D-02  0.313500D-01 -0.144793D-01  0.588177D-01
      5 -0.392587D-03  0.292768D-03  0.376405D-02 -0.241122D-03  0.357317D+00
      6  0.902274D-03  0.696100D-03  0.408812D-02  0.281867D-03  0.135313D-02
      7 -0.119198D-03  0.684758D-03 -0.394046D-04  0.346452D-02  0.116691D-02
      8  0.424722D-03  0.337542D-02  0.113900D-04  0.486415D-02 -0.331882D-03
      9 -0.369189D-03  0.403509D-01 -0.481741D-01 -0.874143D-02 -0.203776D-03
     10  0.272793D-02 -0.724245D-01  0.656124D-02  0.925857D-01  0.159680D-02
     11  0.193770D-02  0.642202D-02 -0.456250D-01 -0.234042D-01  0.548721D-03
     12  0.805282D-02 -0.567425D-01 -0.148720D-01 -0.140393D-01  0.441161D-02
     13 -0.973521D-02  0.499503D-01  0.656434D-01  0.401851D-01 -0.480000D-02
     14 -0.699515D-03  0.260146D-01  0.490727D-01  0.188322D+00  0.106803D-02
     15  0.385918D-02 -0.659681D-02  0.158735D-01  0.134810D-03  0.865722D-02
     16 -0.160687D-02 -0.152514D-02  0.113175D-01 -0.576467D-02 -0.897915D-02
     17 -0.123812D-02 -0.119820D-02 -0.186658D-01  0.759789D-03  0.336818D-02
     18 -0.299665D-03 -0.361806D-02  0.336865D-02 -0.927491D-02  0.340940D-03
     19  0.436599D-03 -0.831469D-03  0.579364D-02  0.346356D-02 -0.670129D-03
     20 -0.320003D-03 -0.136120D-03 -0.149041D-02 -0.113042D-02  0.665480D-03
     21  0.360015D-02 -0.145026D+00 -0.228022D-01  0.820962D-01  0.355720D-02
     22  0.166359D-02 -0.103491D+00  0.584571D-02  0.237774D+00  0.341607D-02
     23 -0.164093D-02 -0.228100D-01  0.132303D-01  0.144785D-01 -0.130202D-02
     24  0.861012D-03 -0.312627D-01  0.432845D-01  0.298294D-01  0.190721D-03
     25 -0.396833D-03  0.552839D-02  0.462252D-02  0.114437D-01 -0.337282D-02
     26  0.101922D-02 -0.116093D-01  0.138293D-01  0.294103D-02  0.320034D-02
     27 -0.229027D-02  0.733383D-02 -0.247076D-01 -0.427158D-02 -0.449240D-02
     28 -0.874211D-03 -0.980383D-02 -0.155008D-01 -0.127743D-01  0.208076D-02
     29  0.239260D-02 -0.850393D-01  0.663850D-01  0.662470D-01  0.117930D-02
     30  0.147203D-03  0.783316D-02 -0.146092D-01  0.102795D-01 -0.310548D-03
     31 -0.143364D-03 -0.614063D-02  0.250207D-01 -0.145066D-01  0.172425D-02
     32  0.272827D-03  0.299594D-02  0.106428D-01  0.616082D-03  0.103162D-02
     33  0.514112D-03 -0.481532D-01  0.497677D-01 -0.822368D-02  0.293537D-02
                6             7             8             9            10 
      6  0.355059D+00
      7  0.289651D-03  0.323338D+00
      8  0.356018D-03  0.545522D-02  0.315628D+00
      9 -0.132540D-02  0.238234D-01  0.245202D-01  0.533769D+00
     10 -0.381043D-03 -0.402782D-02 -0.134118D-02  0.773769D-01  0.300162D-01
     11 -0.392780D-02 -0.183612D-02 -0.267811D-02 -0.109451D-01  0.305865D-01
     12 -0.446157D-02 -0.233032D-02 -0.262894D-02 -0.400935D-03  0.248385D-01
     13  0.863537D-02  0.444107D-02  0.573302D-02  0.156773D-01 -0.573589D-01
     14  0.407494D-02  0.106109D-01  0.153525D-01  0.107599D+00 -0.139255D-01
     15 -0.945063D-02  0.718055D-03  0.711325D-03  0.220957D-02 -0.859006D-02
     16  0.712010D-02 -0.681238D-03 -0.561583D-03  0.629722D-02  0.565835D-02
     17  0.409292D-02  0.714912D-04 -0.259068D-03 -0.113249D-02 -0.847124D-03
     18 -0.580343D-04  0.921425D-02  0.898653D-02 -0.289408D-01 -0.375712D-02
     19 -0.161081D-04 -0.171700D-03 -0.813701D-02  0.190019D-01 -0.349649D-02
     20 -0.158267D-03 -0.708368D-02  0.249659D-02  0.228733D-01 -0.816045D-02
     21 -0.993507D-03  0.584915D-03  0.416369D-02  0.204360D+00  0.108946D+00
     22  0.237526D-02  0.621208D-02  0.125257D-01  0.180710D+00  0.136619D+00
     23 -0.835672D-03  0.812065D-04  0.122387D-02  0.417101D-01  0.245712D-01
     24  0.170151D-03  0.152380D-02  0.357120D-02  0.686495D-01  0.155415D-01
     25 -0.225922D-02  0.125523D-03  0.768094D-03  0.996007D-02  0.100762D-01
     26  0.225002D-02  0.343304D-03  0.486642D-03  0.228400D-01  0.301150D-02
     27 -0.347894D-02 -0.150112D-02 -0.177281D-02 -0.175730D-01  0.196976D-01
     28  0.103030D-02 -0.128334D-02 -0.205426D-02 -0.469306D-02  0.126329D-01
     29 -0.358307D-03  0.247146D-02  0.535382D-02  0.152184D+00  0.440398D-01
     30  0.382722D-03 -0.344619D-02 -0.276710D-02 -0.266802D-01  0.262658D-01
     31 -0.190723D-03  0.265959D-02  0.527450D-02  0.807640D-02 -0.231445D-01
     32  0.228821D-03 -0.389544D-02 -0.354665D-02 -0.422451D-02  0.466093D-02
     33 -0.118165D-02  0.188327D-02  0.100873D-02  0.689979D-01  0.868871D-02
               11            12            13            14            15 
     11  0.133443D+00
     12 -0.127320D-01  0.120594D+00
     13 -0.122735D+00 -0.108426D+00  0.234894D+00
     14 -0.677741D-01 -0.707095D-01  0.145496D+00  0.619415D+00
     15  0.126459D-02  0.118095D-01 -0.144616D-01 -0.101175D-01  0.941947D-01
     16  0.184402D-02 -0.443184D-02  0.196502D-02 -0.282337D-01 -0.415373D-01
     17  0.278730D-02 -0.141114D-02 -0.157293D-02  0.417661D-02 -0.377814D-01
     18  0.297767D-02  0.269676D-02 -0.633555D-02 -0.295085D-01  0.674751D-03
     19  0.168521D-02  0.261658D-02 -0.402399D-02 -0.831627D-02 -0.159815D-02
     20 -0.141700D-02 -0.464737D-02  0.490010D-02 -0.287452D-02  0.184211D-02
     21  0.592335D-01  0.670474D-01 -0.126213D+00  0.558564D-01 -0.249769D-01
     22 -0.314227D-02  0.254329D-02  0.390690D-02  0.442231D+00 -0.188684D-01
     23  0.743804D-02  0.183759D-01 -0.239901D-01  0.109813D-01 -0.211913D-01
     24 -0.507102D-02  0.278974D-01 -0.139204D-01  0.463453D-01 -0.285693D-01
     25 -0.277839D-02 -0.204872D-02  0.108417D-01  0.422210D-01 -0.181580D-01
     26  0.872780D-02  0.820711D-02 -0.149503D-01 -0.178189D-01 -0.381985D-02
     27 -0.320226D-02  0.295818D-02 -0.111026D-02  0.285627D-02 -0.910950D-02
     28  0.830393D-02  0.132140D-01 -0.269023D-01 -0.571836D-01  0.522865D-02
     29  0.350030D-01  0.719970D-01 -0.947978D-01  0.372890D-01 -0.613970D-01
     30 -0.596064D-02 -0.213110D-02  0.105102D-01  0.697648D-01 -0.923466D-03
     31  0.937644D-02  0.870915D-02 -0.191673D-01 -0.889735D-01  0.125524D-02
     32  0.275965D-02  0.661843D-02 -0.757286D-02 -0.877954D-02 -0.549258D-03
     33  0.383668D-01  0.583872D-01 -0.914970D-01 -0.125162D+00 -0.289761D-01
               16            17            18            19            20 
     16  0.970001D-01
     17 -0.407753D-01  0.668972D-01
     18 -0.401491D-03 -0.971452D-04  0.786085D-01
     19  0.503989D-03 -0.621047D-04 -0.355134D-01  0.955622D-01
     20 -0.671812D-03 -0.239487D-05 -0.425200D-01 -0.694498D-01  0.134554D+00
     21  0.113948D-01  0.762534D-03 -0.227754D-01 -0.721086D-02 -0.206509D-01
     22 -0.935545D-02  0.234284D-02 -0.328079D-01 -0.822521D-02 -0.194957D-01
     23  0.552549D-02 -0.306419D-03 -0.592931D-02  0.561063D-02 -0.122465D-01
     24  0.116363D-02 -0.166009D-02 -0.973767D-02  0.765541D-02 -0.200591D-01
     25 -0.291163D-02 -0.131637D-02 -0.226091D-02  0.319473D-02 -0.656793D-02
     26  0.101527D-01 -0.366378D-03 -0.197645D-02  0.109719D-02 -0.447066D-02
     27  0.102101D-02 -0.302242D-03  0.180538D-02  0.118058D-02  0.128638D-02
     28  0.140854D-01  0.647747D-03  0.208984D-02 -0.916965D-03  0.338365D-02
     29  0.106385D-01 -0.326336D-03 -0.187167D-01  0.237867D-01 -0.556606D-01
     30  0.749101D-03  0.286929D-03  0.903527D-02 -0.183634D-01 -0.944171D-02
     31 -0.122064D-02 -0.898957D-03  0.148982D-01 -0.766299D-02  0.350397D-02
     32 -0.105796D-03 -0.587252D-03 -0.131289D-01  0.203187D-01 -0.202471D-01
     33  0.882024D-02 -0.146573D-02 -0.492480D-02  0.319103D-01 -0.505573D-01
               21            22            23            24            25 
     21  0.562084D+00
     22  0.415669D+00  0.794220D+00
     23  0.864029D-01  0.699493D-01  0.834026D-01
     24  0.948540D-01  0.908962D-01  0.969164D-01  0.155656D+00
     25  0.404665D-01  0.461268D-01  0.419957D-01  0.793863D-01  0.535175D-01
     26  0.176882D-01  0.392897D-03  0.132012D-01  0.266231D-01  0.128664D-01
     27  0.338579D-01  0.245576D-01  0.291470D-01  0.209564D-01  0.139976D-01
     28  0.110796D-01 -0.211763D-01  0.352550D-03 -0.318068D-01 -0.266535D-01
     29  0.246591D+00  0.205100D+00  0.195033D+00  0.279697D+00  0.137011D+00
     30  0.851241D-01  0.101821D+00  0.184332D-01  0.332685D-01  0.800232D-02
     31 -0.849239D-01 -0.105655D+00 -0.825478D-02 -0.139631D-01 -0.168362D-02
     32  0.100112D-01  0.975624D-02  0.153627D-01  0.274185D-01  0.876518D-02
     33  0.623477D-01 -0.314363D-01  0.930257D-01  0.132768D+00  0.634364D-01
               26            27            28            29            30 
     26  0.234693D-01
     27 -0.117596D-02  0.232921D-01
     28  0.942690D-02  0.811857D-02  0.441990D-01
     29  0.451276D-01  0.525967D-01 -0.392864D-01  0.659680D+00
     30  0.829878D-02 -0.738641D-02 -0.708996D-02  0.735829D-01  0.366125D-01
     31 -0.353136D-02  0.450121D-02  0.265348D-02  0.800449D-02 -0.150826D-01
     32  0.634085D-02 -0.347118D-02 -0.589550D-02  0.101303D+00  0.141337D-01
     33  0.241136D-01  0.246460D-01 -0.146768D-01  0.395800D+00  0.265400D-01
               31            32            33 
     31  0.527727D-01
     32  0.291985D-01  0.560819D-01
     33  0.802455D-01  0.122301D+00  0.382694D+00
 Leave Link  716 at Tue Oct 15 20:23:22 2019, MaxMem=   280000000 cpu:               1.8 elap:               0.1
 (Enter /home/soft/g16/l103.exe)

 GradGradGradGradGradGradGradGradGradGradGradGradGradGradGradGradGradGrad
 Berny optimization.
 Red2BG is reusing G-inverse.
 Internal  Forces:  Max     0.062236320 RMS     0.017217582
 Search for a saddle point.
 Step number   1 out of a maximum of   43
 All quantities printed in internal units (Hartrees-Bohrs-Radians)
 Swapping is turned off.
 Second derivative matrix not updated -- analytic derivatives used.
 ITU=  0
     Eigenvalues ---   -0.14625  -0.00438   0.00413   0.01692   0.02311
     Eigenvalues ---    0.03613   0.04294   0.05160   0.10408   0.11053
     Eigenvalues ---    0.11769   0.12448   0.13917   0.15756   0.18846
     Eigenvalues ---    0.21294   0.31250   0.32056   0.33065   0.35561
     Eigenvalues ---    0.35818   0.38556   0.43136   0.54725   0.74520
     Eigenvalues ---    1.17199   1.77785
 Eigenvectors required to have negative eigenvalues:
                          R4        R10       D8        R9        D5
   1                    0.58382  -0.52903   0.27534   0.21709   0.20017
                          D9        A4        R2        A3        R3
   1                   -0.18651  -0.17563  -0.15453  -0.14360   0.13461
 Eigenvalue     2 is  -4.38D-03 should be greater than     0.000000 Eigenvector:
                          D8        R10       D5        R4        D3
   1                   -0.41799  -0.38937  -0.38395   0.32086  -0.31243
                          D10       D2        A11       D9        D11
   1                   -0.28742   0.21927   0.17778   0.17229   0.17208
 RFO step:  Lambda0=3.060850763D-03 Lambda=-6.18522623D-02.
 Linear search not attempted -- option 19 set.
 Maximum step size (   0.300) exceeded in Quadratic search.
    -- Step size scaled by   0.291
 Iteration  1 RMS(Cart)=  0.06416007 RMS(Int)=  0.00653638
 Iteration  2 RMS(Cart)=  0.01092344 RMS(Int)=  0.00096649
 Iteration  3 RMS(Cart)=  0.00002219 RMS(Int)=  0.00096638
 Iteration  4 RMS(Cart)=  0.00000001 RMS(Int)=  0.00096638
 ITry= 1 IFail=0 DXMaxC= 1.63D-01 DCOld= 1.00D+10 DXMaxT= 3.00D-01 DXLimC= 3.00D+00 Rises=F
 Variable       Old X    -DE/DX   Delta X   Delta X   Delta X     New X
                                 (Linear)    (Quad)   (Total)
    R1        2.06675   0.00114   0.00000  -0.00083  -0.00083   2.06592
    R2        2.43633  -0.03302   0.00000  -0.01734  -0.01734   2.41899
    R3        2.63104   0.01024   0.00000   0.02225   0.02225   2.65329
    R4        2.67153  -0.03620   0.00000  -0.23124  -0.23124   2.44029
    R5        2.04747   0.00008   0.00000   0.00237   0.00237   2.04984
    R6        2.05072   0.00065   0.00000   0.00168   0.00168   2.05239
    R7        2.07247  -0.00083   0.00000   0.00402   0.00402   2.07649
    R8        2.07880  -0.00086   0.00000   0.00496   0.00496   2.08376
    R9        2.42318   0.00342   0.00000   0.02853   0.02853   2.45171
   R10        2.73122  -0.03098   0.00000   0.04509   0.04509   2.77632
    A1        2.02323   0.00104   0.00000  -0.00192  -0.00195   2.02128
    A2        2.12162   0.00270   0.00000   0.01131   0.01127   2.13290
    A3        2.12444  -0.00440   0.00000  -0.01187  -0.01191   2.11253
    A4        2.14133  -0.06224   0.00000  -0.06168  -0.06168   2.07965
    A5        2.06055  -0.00112   0.00000  -0.02535  -0.02714   2.03342
    A6        2.05969   0.00066   0.00000  -0.01705  -0.01883   2.04085
    A7        2.01787  -0.00050   0.00000  -0.01510  -0.01738   2.00049
    A8        1.97721   0.00182   0.00000  -0.02992  -0.03212   1.94509
    A9        2.06676  -0.00205   0.00000  -0.01436  -0.01696   2.04980
   A10        2.07853  -0.00140   0.00000  -0.02003  -0.02205   2.05648
   A11        2.19984  -0.04103   0.00000  -0.11349  -0.11349   2.08634
   A12        2.00205   0.02317   0.00000   0.11309   0.11309   2.11514
    D1       -2.45620   0.00175   0.00000  -0.03022  -0.03027  -2.48647
    D2        0.50961  -0.00208   0.00000  -0.04450  -0.04445   0.46516
    D3       -2.69647  -0.00087   0.00000   0.07876   0.07811  -2.61836
    D4       -0.13113  -0.00275   0.00000  -0.02949  -0.02888  -0.16001
    D5        0.63078   0.00340   0.00000   0.09534   0.09473   0.72551
    D6       -3.08707   0.00152   0.00000  -0.01291  -0.01226  -3.09933
    D7        0.30785  -0.01059   0.00000   0.02338   0.02338   0.33123
    D8       -2.55409   0.00331   0.00000   0.11004   0.10871  -2.44538
    D9       -2.20571  -0.00102   0.00000  -0.05088  -0.05061  -2.25632
   D10        1.55324   0.00117   0.00000   0.07005   0.06977   1.62301
   D11       -0.18462  -0.00381   0.00000  -0.05459  -0.05459  -0.23922
         Item               Value     Threshold  Converged?
 Maximum Force            0.062236     0.000450     NO 
 RMS     Force            0.017218     0.000300     NO 
 Maximum Displacement     0.163066     0.001800     NO 
 RMS     Displacement     0.070108     0.001200     NO 
 Predicted change in Energy=-1.909398D-02
 Lowest energy point so far.  Saving SCF results.
 GradGradGradGradGradGradGradGradGradGradGradGradGradGradGradGradGradGrad

 Leave Link  103 at Tue Oct 15 20:23:22 2019, MaxMem=   280000000 cpu:               1.8 elap:               0.1
 (Enter /home/soft/g16/l202.exe)
                          Input orientation:                          
 ---------------------------------------------------------------------
 Center     Atomic      Atomic             Coordinates (Angstroms)
 Number     Number       Type             X           Y           Z
 ---------------------------------------------------------------------
      1          6           0       -1.207823    0.170809    0.228546
      2          1           0       -1.876022    0.390433    1.065472
      3          8           0       -1.097860   -1.064765   -0.087456
      4          6           0       -0.343057    1.136000   -0.311798
      5          1           0       -0.109703    1.040522   -1.366818
      6          1           0       -0.469798    2.158112    0.032867
      7          6           0        1.231368    0.428883    0.273034
      8          1           0        1.861213    1.170397   -0.237733
      9          1           0        1.208605    0.600871    1.361977
     10          8           0        1.293019   -0.797686   -0.145228
     11          1           0        0.052303   -1.519065   -0.459353
 ---------------------------------------------------------------------
                    Distance matrix (angstroms):
                    1          2          3          4          5
     1  C    0.000000
     2  H    1.093238   0.000000
     3  O    1.280075   2.013052   0.000000
     4  C    1.404060   2.191512   2.337396   0.000000
     5  H    2.123077   3.075473   2.654328   1.084729   0.000000
     6  H    2.128930   2.483632   3.285707   1.086080   1.826963
     7  C    2.453208   3.207072   2.790383   1.822322   2.204924
     8  H    3.261222   4.034056   3.711420   2.205782   2.275129
     9  H    2.703469   3.105983   3.192958   2.344258   3.062280
    10  O    2.707748   3.594474   2.406444   2.538431   2.615133
    11  H    2.217385   3.112830   1.291344   2.688392   2.720520
                    6          7          8          9         10
     6  H    0.000000
     7  C    2.437596   0.000000
     8  H    2.546059   1.098831   0.000000
     9  H    2.647371   1.102677   1.819156   0.000000
    10  O    3.446154   1.297388   2.050549   2.057852   0.000000
    11  H    3.746532   2.391879   3.248765   3.024633   1.469163
                   11
    11  H    0.000000
 Stoichiometry    C3H6O2
 Framework group  C1[X(C3H6O2)]
 Deg. of freedom    27
 Full point group                 C1      NOp   1
 RotChk:  IX=0 Diff= 1.55D-01
 Largest Abelian subgroup         C1      NOp   1
 Largest concise Abelian subgroup C1      NOp   1
                         Standard orientation:                         
 ---------------------------------------------------------------------
 Center     Atomic      Atomic             Coordinates (Angstroms)
 Number     Number       Type             X           Y           Z
 ---------------------------------------------------------------------
      1          6           0       -1.194053    0.308772    0.218011
      2          1           0       -1.844735    0.616753    1.040769
      3          8           0       -1.199841   -0.940878   -0.059357
      4          6           0       -0.237143    1.170223   -0.341998
      5          1           0       -0.005809    1.020287   -1.391113
      6          1           0       -0.268609    2.209963   -0.029716
      7          6           0        1.258212    0.335296    0.280630
      8          1           0        1.959744    0.997418   -0.245561
      9          1           0        1.243532    0.542413    1.363581
     10          8           0        1.205981   -0.903983   -0.099731
     11          1           0       -0.095343   -1.513685   -0.405113
 ---------------------------------------------------------------------
 Rotational constants (GHZ):           7.8768993           5.0384223           3.4164356
 Leave Link  202 at Tue Oct 15 20:23:22 2019, MaxMem=   280000000 cpu:               0.5 elap:               0.0
 (Enter /home/soft/g16/l301.exe)
 Standard basis: 6-311+G(d) (5D, 7F)
 Ernie: Thresh=  0.10000D-02 Tol=  0.10000D-05 Strict=F.
 There are   133 symmetry adapted cartesian basis functions of A   symmetry.
 There are   128 symmetry adapted basis functions of A   symmetry.
   128 basis functions,   210 primitive gaussians,   133 cartesian basis functions
    20 alpha electrons       20 beta electrons
       nuclear repulsion energy       180.8966382671 Hartrees.
 IExCor=  402 DFT=T Ex+Corr=B3LYP ExCW=0 ScaHFX=  0.200000
 ScaDFX=  0.800000  0.720000  1.000000  0.810000 ScalE2=  1.000000  1.000000
 IRadAn=      5 IRanWt=     -1 IRanGd=            0 ICorTp=0 IEmpDi=  4
 NAtoms=   11 NActive=   11 NUniq=   11 SFac= 1.00D+00 NAtFMM=   60 NAOKFM=F Big=F
 Integral buffers will be    131072 words long.
 Raffenetti 2 integral format.
 Two-electron integral symmetry is turned on.
 Leave Link  301 at Tue Oct 15 20:23:22 2019, MaxMem=   280000000 cpu:               1.6 elap:               0.1
 (Enter /home/soft/g16/l302.exe)
 NPDir=0 NMtPBC=     1 NCelOv=     1 NCel=       1 NClECP=     1 NCelD=      1
         NCelK=      1 NCelE2=     1 NClLst=     1 CellRange=     0.0.
 One-electron integrals computed using PRISM.
 One-electron integral symmetry used in STVInt
 NBasis=   128 RedAO= T EigKep=  8.83D-05  NBF=   128
 NBsUse=   128 1.00D-06 EigRej= -1.00D+00 NBFU=   128
 Precomputing XC quadrature grid using
 IXCGrd= 4 IRadAn=           5 IRanWt=          -1 IRanGd=           0 AccXCQ= 0.00D+00.
 Generated NRdTot=       0 NPtTot=           0 NUsed=           0 NTot=          32
 NSgBfM=   133   133   133   133   133 MxSgAt=    11 MxSgA2=    11.
 Leave Link  302 at Tue Oct 15 20:23:23 2019, MaxMem=   280000000 cpu:               3.4 elap:               0.2
 (Enter /home/soft/g16/l303.exe)
 DipDrv:  MaxL=1.
 Leave Link  303 at Tue Oct 15 20:23:23 2019, MaxMem=   280000000 cpu:               0.5 elap:               0.0
 (Enter /home/soft/g16/l401.exe)
 Initial guess from the checkpoint file:  "ts2.chk"
 B after Tr=    -0.000000   -0.000000    0.000000
         Rot=    0.998657    0.005799    0.004909    0.051244 Ang=   5.94 deg.
 Guess basis will be translated and rotated to current coordinates.
 JPrj=2 DoOrth=T DoCkMO=T.
 Generating alternative initial guess.
 ExpMin= 4.38D-02 ExpMax= 8.59D+03 ExpMxC= 1.30D+03 IAcc=2 IRadAn=         4 AccDes= 0.00D+00
 Harris functional with IExCor=  402 and IRadAn=       4 diagonalized for initial guess.
 HarFok:  IExCor=  402 AccDes= 0.00D+00 IRadAn=         4 IDoV= 1 UseB2=F ITyADJ=14
 ICtDFT=  3500011 ScaDFX=  1.000000  1.000000  1.000000  1.000000
 FoFCou: FMM=F IPFlag=           0 FMFlag=      100000 FMFlg1=           0
         NFxFlg=           0 DoJE=T BraDBF=F KetDBF=T FulRan=T
         wScrn=  0.000000 ICntrl=       500 IOpCl=  0 I1Cent=   200000004 NGrid=           0
         NMat0=    1 NMatS0=      1 NMatT0=    0 NMatD0=    1 NMtDS0=    0 NMtDT0=    0
 Petite list used in FoFCou.
 Harris En= -268.388358079545    
 Leave Link  401 at Tue Oct 15 20:23:23 2019, MaxMem=   280000000 cpu:               7.3 elap:               0.3
 (Enter /home/soft/g16/l502.exe)
 Keep R1 ints in memory in canonical form, NReq=57089831.
 FoFCou: FMM=F IPFlag=           0 FMFlag=           0 FMFlg1=           0
         NFxFlg=           0 DoJE=F BraDBF=F KetDBF=F FulRan=T
         wScrn=  0.000000 ICntrl=       600 IOpCl=  0 I1Cent=           0 NGrid=           0
         NMat0=    1 NMatS0=   8256 NMatT0=    0 NMatD0=    1 NMtDS0=    0 NMtDT0=    0
 Symmetry not used in FoFCou.
 Two-electron integral symmetry not used.
 Closed shell SCF:
 Using DIIS extrapolation, IDIIS=  1040.
 NGot=   280000000 LenX=   245875069 LenY=   245856939
 Requested convergence on RMS density matrix=1.00D-08 within 128 cycles.
 Requested convergence on MAX density matrix=1.00D-06.
 Requested convergence on             energy=1.00D-06.
 No special actions if energy rises.

 Cycle   1  Pass 1  IDiag  1:
 E= -268.338384127500    
 DIIS: error= 4.96D-03 at cycle   1 NSaved=   1.
 NSaved= 1 IEnMin= 1 EnMin= -268.338384127500     IErMin= 1 ErrMin= 4.96D-03
 ErrMax= 4.96D-03  0.00D+00 EMaxC= 1.00D-01 BMatC= 5.65D-03 BMatP= 5.65D-03
 IDIUse=3 WtCom= 9.50D-01 WtEn= 4.96D-02
 Coeff-Com:  0.100D+01
 Coeff-En:   0.100D+01
 Coeff:      0.100D+01
 Gap=     0.504 Goal=   None    Shift=    0.000
 GapD=    0.504 DampG=2.000 DampE=1.000 DampFc=2.0000 IDamp=-1.
 RMSDP=1.44D-03 MaxDP=3.18D-02              OVMax= 3.42D-02

 Cycle   2  Pass 1  IDiag  1:
 E= -268.346309111275     Delta-E=       -0.007924983775 Rises=F Damp=F
 DIIS: error= 2.81D-03 at cycle   2 NSaved=   2.
 NSaved= 2 IEnMin= 2 EnMin= -268.346309111275     IErMin= 2 ErrMin= 2.81D-03
 ErrMax= 2.81D-03  0.00D+00 EMaxC= 1.00D-01 BMatC= 1.47D-03 BMatP= 5.65D-03
 IDIUse=3 WtCom= 9.72D-01 WtEn= 2.81D-02
 Coeff-Com:  0.248D+00 0.752D+00
 Coeff-En:   0.000D+00 0.100D+01
 Coeff:      0.241D+00 0.759D+00
 Gap=     0.181 Goal=   None    Shift=    0.000
 RMSDP=4.17D-04 MaxDP=8.39D-03 DE=-7.92D-03 OVMax= 1.73D-02

 Cycle   3  Pass 1  IDiag  1:
 E= -268.345629988426     Delta-E=        0.000679122849 Rises=F Damp=F
 DIIS: error= 3.87D-03 at cycle   3 NSaved=   3.
 NSaved= 3 IEnMin= 2 EnMin= -268.346309111275     IErMin= 2 ErrMin= 2.81D-03
 ErrMax= 3.87D-03  0.00D+00 EMaxC= 1.00D-01 BMatC= 2.53D-03 BMatP= 1.47D-03
 IDIUse=3 WtCom= 1.39D-01 WtEn= 8.61D-01
 Coeff-Com: -0.209D-01 0.576D+00 0.445D+00
 Coeff-En:   0.000D+00 0.595D+00 0.405D+00
 Coeff:     -0.289D-02 0.592D+00 0.411D+00
 Gap=     0.176 Goal=   None    Shift=    0.000
 RMSDP=3.50D-04 MaxDP=7.25D-03 DE= 6.79D-04 OVMax= 1.12D-02

 Cycle   4  Pass 1  IDiag  1:
 E= -268.347367667227     Delta-E=       -0.001737678802 Rises=F Damp=F
 DIIS: error= 6.71D-04 at cycle   4 NSaved=   4.
 NSaved= 4 IEnMin= 4 EnMin= -268.347367667227     IErMin= 4 ErrMin= 6.71D-04
 ErrMax= 6.71D-04  0.00D+00 EMaxC= 1.00D-01 BMatC= 4.70D-05 BMatP= 1.47D-03
 IDIUse=3 WtCom= 9.93D-01 WtEn= 6.71D-03
 Coeff-Com: -0.171D-01 0.292D+00 0.219D+00 0.506D+00
 Coeff-En:   0.000D+00 0.000D+00 0.000D+00 0.100D+01
 Coeff:     -0.170D-01 0.290D+00 0.217D+00 0.510D+00
 Gap=     0.177 Goal=   None    Shift=    0.000
 RMSDP=7.62D-05 MaxDP=1.10D-03 DE=-1.74D-03 OVMax= 4.47D-03

 Cycle   5  Pass 1  IDiag  1:
 E= -268.347413483337     Delta-E=       -0.000045816110 Rises=F Damp=F
 DIIS: error= 2.35D-04 at cycle   5 NSaved=   5.
 NSaved= 5 IEnMin= 5 EnMin= -268.347413483337     IErMin= 5 ErrMin= 2.35D-04
 ErrMax= 2.35D-04  0.00D+00 EMaxC= 1.00D-01 BMatC= 8.16D-06 BMatP= 4.70D-05
 IDIUse=3 WtCom= 9.98D-01 WtEn= 2.35D-03
 Coeff-Com: -0.778D-02 0.702D-01 0.502D-01 0.303D+00 0.585D+00
 Coeff-En:   0.000D+00 0.000D+00 0.000D+00 0.125D+00 0.875D+00
 Coeff:     -0.776D-02 0.701D-01 0.501D-01 0.302D+00 0.585D+00
 Gap=     0.176 Goal=   None    Shift=    0.000
 RMSDP=2.80D-05 MaxDP=7.31D-04 DE=-4.58D-05 OVMax= 1.12D-03

 Cycle   6  Pass 1  IDiag  1:
 E= -268.347421515577     Delta-E=       -0.000008032240 Rises=F Damp=F
 DIIS: error= 5.16D-05 at cycle   6 NSaved=   6.
 NSaved= 6 IEnMin= 6 EnMin= -268.347421515577     IErMin= 6 ErrMin= 5.16D-05
 ErrMax= 5.16D-05  0.00D+00 EMaxC= 1.00D-01 BMatC= 5.00D-07 BMatP= 8.16D-06
 IDIUse=1 WtCom= 1.00D+00 WtEn= 0.00D+00
 Coeff-Com: -0.173D-02 0.646D-02 0.260D-02 0.112D+00 0.267D+00 0.613D+00
 Coeff:     -0.173D-02 0.646D-02 0.260D-02 0.112D+00 0.267D+00 0.613D+00
 Gap=     0.176 Goal=   None    Shift=    0.000
 RMSDP=7.82D-06 MaxDP=1.12D-04 DE=-8.03D-06 OVMax= 4.30D-04

 Cycle   7  Pass 1  IDiag  1:
 E= -268.347421724378     Delta-E=       -0.000000208801 Rises=F Damp=F
 DIIS: error= 5.03D-05 at cycle   7 NSaved=   7.
 NSaved= 7 IEnMin= 7 EnMin= -268.347421724378     IErMin= 7 ErrMin= 5.03D-05
 ErrMax= 5.03D-05  0.00D+00 EMaxC= 1.00D-01 BMatC= 3.02D-07 BMatP= 5.00D-07
 IDIUse=1 WtCom= 1.00D+00 WtEn= 0.00D+00
 Coeff-Com:  0.307D-03-0.963D-02-0.926D-02 0.210D-01 0.596D-01 0.459D+00
 Coeff-Com:  0.479D+00
 Coeff:      0.307D-03-0.963D-02-0.926D-02 0.210D-01 0.596D-01 0.459D+00
 Coeff:      0.479D+00
 Gap=     0.176 Goal=   None    Shift=    0.000
 RMSDP=5.87D-06 MaxDP=1.65D-04 DE=-2.09D-07 OVMax= 1.90D-04

 Cycle   8  Pass 1  IDiag  1:
 E= -268.347421972342     Delta-E=       -0.000000247964 Rises=F Damp=F
 DIIS: error= 9.92D-06 at cycle   8 NSaved=   8.
 NSaved= 8 IEnMin= 8 EnMin= -268.347421972342     IErMin= 8 ErrMin= 9.92D-06
 ErrMax= 9.92D-06  0.00D+00 EMaxC= 1.00D-01 BMatC= 1.06D-08 BMatP= 3.02D-07
 IDIUse=1 WtCom= 1.00D+00 WtEn= 0.00D+00
 Coeff-Com:  0.321D-03-0.507D-02-0.514D-02 0.114D-02-0.465D-02 0.143D+00
 Coeff-Com:  0.195D+00 0.676D+00
 Coeff:      0.321D-03-0.507D-02-0.514D-02 0.114D-02-0.465D-02 0.143D+00
 Coeff:      0.195D+00 0.676D+00
 Gap=     0.176 Goal=   None    Shift=    0.000
 RMSDP=1.30D-06 MaxDP=2.29D-05 DE=-2.48D-07 OVMax= 4.23D-05

 Cycle   9  Pass 1  IDiag  1:
 E= -268.347421983028     Delta-E=       -0.000000010686 Rises=F Damp=F
 DIIS: error= 1.70D-06 at cycle   9 NSaved=   9.
 NSaved= 9 IEnMin= 9 EnMin= -268.347421983028     IErMin= 9 ErrMin= 1.70D-06
 ErrMax= 1.70D-06  0.00D+00 EMaxC= 1.00D-01 BMatC= 8.67D-10 BMatP= 1.06D-08
 IDIUse=1 WtCom= 1.00D+00 WtEn= 0.00D+00
 Coeff-Com:  0.113D-03-0.128D-02-0.147D-02-0.982D-03-0.904D-02 0.147D-01
 Coeff-Com:  0.361D-01 0.285D+00 0.677D+00
 Coeff:      0.113D-03-0.128D-02-0.147D-02-0.982D-03-0.904D-02 0.147D-01
 Coeff:      0.361D-01 0.285D+00 0.677D+00
 Gap=     0.176 Goal=   None    Shift=    0.000
 RMSDP=4.05D-07 MaxDP=1.30D-05 DE=-1.07D-08 OVMax= 1.38D-05

 Cycle  10  Pass 1  IDiag  1:
[...]
                                                     13   14   15   16   17
                                                     18   19
 ITU=  0  0  0  0  0  0  0  0  0  0  0  0  0  0  0  0  0  0  0
     Eigenvalues ---   -0.08589   0.00406   0.01188   0.01941   0.02647
     Eigenvalues ---    0.04339   0.04949   0.08478   0.10633   0.11727
     Eigenvalues ---    0.11889   0.13849   0.14275   0.18863   0.20207
     Eigenvalues ---    0.22527   0.31272   0.32220   0.33126   0.35562
     Eigenvalues ---    0.35835   0.39654   0.43794   0.55337   0.77833
     Eigenvalues ---    1.23528   1.89865
 Eigenvectors required to have negative eigenvalues:
                          R10       R4        D8        D5        D9
   1                   -0.55364   0.39301   0.36132   0.28811  -0.26241
                          R9        A4        D3        R3        R2
   1                    0.21953  -0.18076   0.16286   0.15137  -0.14893
 RFO step:  Lambda0=6.116818830D-08 Lambda=-2.21324430D-07.
 Linear search not attempted -- option 19 set.
 Iteration  1 RMS(Cart)=  0.00042344 RMS(Int)=  0.00000053
 Iteration  2 RMS(Cart)=  0.00000286 RMS(Int)=  0.00000000
 Iteration  3 RMS(Cart)=  0.00000000 RMS(Int)=  0.00000000
 ITry= 1 IFail=0 DXMaxC= 9.36D-04 DCOld= 1.00D+10 DXMaxT= 3.00D-01 DXLimC= 3.00D+00 Rises=F
 Variable       Old X    -DE/DX   Delta X   Delta X   Delta X     New X
                                 (Linear)    (Quad)   (Total)
    R1        2.06646   0.00000   0.00000   0.00003   0.00003   2.06649
    R2        2.43585   0.00003   0.00000  -0.00010  -0.00010   2.43575
    R3        2.63205   0.00000   0.00000   0.00008   0.00008   2.63213
    R4        2.08288  -0.00001   0.00000   0.00081   0.00081   2.08369
    R5        2.04779  -0.00000   0.00000   0.00002   0.00002   2.04781
    R6        2.05083  -0.00000   0.00000  -0.00000  -0.00000   2.05083
    R7        2.07299   0.00000   0.00000  -0.00002  -0.00002   2.07298
    R8        2.07921   0.00000   0.00000  -0.00001  -0.00001   2.07920
    R9        2.42384   0.00002   0.00000   0.00014   0.00014   2.42398
   R10        2.60085   0.00003   0.00000  -0.00125  -0.00125   2.59960
    A1        2.02366  -0.00002   0.00000   0.00011   0.00011   2.02377
    A2        2.12476  -0.00000   0.00000  -0.00001  -0.00001   2.12475
    A3        2.12110   0.00002   0.00000  -0.00006  -0.00006   2.12104
    A4        1.84269   0.00011   0.00000   0.00018   0.00018   1.84287
    A5        2.05756  -0.00001   0.00000  -0.00015  -0.00015   2.05741
    A6        2.06025   0.00001   0.00000   0.00014   0.00014   2.06039
    A7        2.01555  -0.00000   0.00000   0.00001   0.00001   2.01556
    A8        1.97437  -0.00000   0.00000   0.00003   0.00003   1.97439
    A9        2.06569   0.00001   0.00000  -0.00006  -0.00006   2.06563
   A10        2.07764  -0.00000   0.00000  -0.00002  -0.00002   2.07762
   A11        1.85118   0.00008   0.00000   0.00025   0.00025   1.85143
   A12        2.66601   0.00001   0.00000  -0.00008  -0.00008   2.66593
    D1       -2.37196   0.00003   0.00000   0.00096   0.00096  -2.37101
    D2        0.59562   0.00006   0.00000   0.00124   0.00124   0.59686
    D3       -2.68575   0.00001   0.00000  -0.00008  -0.00008  -2.68583
    D4       -0.12963   0.00001   0.00000  -0.00008  -0.00008  -0.12971
    D5        0.63993  -0.00002   0.00000  -0.00039  -0.00039   0.63954
    D6       -3.08714  -0.00002   0.00000  -0.00039  -0.00039  -3.08752
    D7        0.29745   0.00004   0.00000  -0.00375  -0.00375   0.29370
    D8       -2.54592  -0.00001   0.00000   0.00010   0.00010  -2.54582
    D9       -2.26780   0.00000   0.00000  -0.00109  -0.00109  -2.26888
   D10        1.50033  -0.00001   0.00000  -0.00101  -0.00101   1.49932
   D11       -0.18549   0.00005   0.00000   0.00385   0.00385  -0.18165
         Item               Value     Threshold  Converged?
 Maximum Force            0.000106     0.000450     YES
 RMS     Force            0.000030     0.000300     YES
 Maximum Displacement     0.000936     0.001800     YES
 RMS     Displacement     0.000423     0.001200     YES
 Predicted change in Energy=-8.007810D-08
 Optimization completed.
    -- Stationary point found.
                           ----------------------------
                           !   Optimized Parameters   !
                           ! (Angstroms and Degrees)  !
 --------------------------                            --------------------------
 ! Name  Definition              Value          Derivative Info.                !
 --------------------------------------------------------------------------------
 ! R1    R(1,2)                  1.0935         -DE/DX =    0.0                 !
 ! R2    R(1,3)                  1.289          -DE/DX =    0.0                 !
 ! R3    R(1,4)                  1.3928         -DE/DX =    0.0                 !
 ! R4    R(3,11)                 1.1022         -DE/DX =    0.0                 !
 ! R5    R(4,5)                  1.0836         -DE/DX =    0.0                 !
 ! R6    R(4,6)                  1.0853         -DE/DX =    0.0                 !
 ! R7    R(7,8)                  1.097          -DE/DX =    0.0                 !
 ! R8    R(7,9)                  1.1003         -DE/DX =    0.0                 !
 ! R9    R(7,10)                 1.2826         -DE/DX =    0.0                 !
 ! R10   R(10,11)                1.3763         -DE/DX =    0.0                 !
 ! A1    A(2,1,3)              115.9472         -DE/DX =    0.0                 !
 ! A2    A(2,1,4)              121.7399         -DE/DX =    0.0                 !
 ! A3    A(3,1,4)              121.5298         -DE/DX =    0.0                 !
 ! A4    A(1,3,11)             105.5785         -DE/DX =    0.0001              !
 ! A5    A(1,4,5)              117.8898         -DE/DX =    0.0                 !
 ! A6    A(1,4,6)              118.0437         -DE/DX =    0.0                 !
 ! A7    A(5,4,6)              115.4824         -DE/DX =    0.0                 !
 ! A8    A(8,7,9)              113.123          -DE/DX =    0.0                 !
 ! A9    A(8,7,10)             118.3553         -DE/DX =    0.0                 !
 ! A10   A(9,7,10)             119.0399         -DE/DX =    0.0                 !
 ! A11   A(7,10,11)            106.0649         -DE/DX =    0.0001              !
 ! A12   A(3,11,10)            152.7514         -DE/DX =    0.0                 !
 ! D1    D(2,1,3,11)          -135.9035         -DE/DX =    0.0                 !
 ! D2    D(4,1,3,11)            34.1268         -DE/DX =    0.0001              !
 ! D3    D(2,1,4,5)           -153.8822         -DE/DX =    0.0                 !
 ! D4    D(2,1,4,6)             -7.4275         -DE/DX =    0.0                 !
 ! D5    D(3,1,4,5)             36.6654         -DE/DX =    0.0                 !
 ! D6    D(3,1,4,6)           -176.8799         -DE/DX =    0.0                 !
 ! D7    D(1,3,11,10)           17.0425         -DE/DX =    0.0                 !
 ! D8    D(8,7,9,10)          -145.8704         -DE/DX =    0.0                 !
 ! D9    D(8,7,10,11)         -129.9352         -DE/DX =    0.0                 !
 ! D10   D(9,7,10,11)           85.9626         -DE/DX =    0.0                 !
 ! D11   D(7,10,11,3)          -10.628          -DE/DX =    0.0                 !
 --------------------------------------------------------------------------------
 Largest change from initial coordinates is atom   11       0.486 Angstoms.
 GradGradGradGradGradGradGradGradGradGradGradGradGradGradGradGradGradGrad

 Leave Link  103 at Tue Oct 15 20:24:46 2019, MaxMem=   280000000 cpu:               6.3 elap:               0.3
 (Enter /home/soft/g16/l202.exe)
                          Input orientation:                          
 ---------------------------------------------------------------------
 Center     Atomic      Atomic             Coordinates (Angstroms)
 Number     Number       Type             X           Y           Z
 ---------------------------------------------------------------------
      1          6           0       -1.215288    0.147180    0.205019
      2          1           0       -1.881499    0.343447    1.049667
      3          8           0       -1.066491   -1.091257   -0.120018
      4          6           0       -0.413544    1.145491   -0.343187
      5          1           0       -0.121404    1.047581   -1.382108
      6          1           0       -0.552951    2.162577    0.008773
      7          6           0        1.304756    0.365077    0.277195
      8          1           0        1.899798    1.127980   -0.239790
      9          1           0        1.245917    0.526165    1.364017
     10          8           0        1.328923   -0.835386   -0.173887
     11          1           0        0.014027   -1.224344   -0.292170
 ---------------------------------------------------------------------
                    Distance matrix (angstroms):
                    1          2          3          4          5
     1  C    0.000000
     2  H    1.093521   0.000000
     3  O    1.288998   2.022567   0.000000
     4  C    1.392820   2.176743   2.340766   0.000000
     5  H    2.127504   3.083386   2.657196   1.083646   0.000000
     6  H    2.130500   2.481479   3.296627   1.085253   1.834120
     7  C    2.530476   3.278629   2.810961   1.986573   2.291949
     8  H    3.295995   4.071412   3.706512   2.315717   2.323061
     9  H    2.746713   3.148481   3.188361   2.460065   3.111694
    10  O    2.753546   3.632292   2.409643   2.643620   2.666236
    11  H    1.907745   2.802056   1.102211   2.408638   2.523480
                    6          7          8          9         10
     6  H    0.000000
     7  C    2.598871   0.000000
     8  H    2.673603   1.096981   0.000000
     9  H    2.783964   1.100270   1.833559   0.000000
    10  O    3.544376   1.282642   2.045739   2.055690   0.000000
    11  H    3.447211   2.125186   3.015344   2.706435   1.376310
                   11
    11  H    0.000000
 Stoichiometry    C3H6O2
 Framework group  C1[X(C3H6O2)]
 Deg. of freedom    27
 Full point group                 C1      NOp   1
 RotChk:  IX=0 Diff= 1.38D-15
 Largest Abelian subgroup         C1      NOp   1
 Largest concise Abelian subgroup C1      NOp   1
                         Standard orientation:                         
 ---------------------------------------------------------------------
 Center     Atomic      Atomic             Coordinates (Angstroms)
 Number     Number       Type             X           Y           Z
 ---------------------------------------------------------------------
      1          6           0       -1.231399    0.200731    0.231782
      2          1           0       -1.892598    0.415195    1.075944
      3          8           0       -1.097210   -1.043364   -0.077634
      4          6           0       -0.420652    1.183024   -0.331899
      5          1           0       -0.133078    1.068486   -1.370393
      6          1           0       -0.547777    2.206046    0.007279
      7          6           0        1.291100    0.391933    0.293044
      8          1           0        1.892694    1.141520   -0.235700
      9          1           0        1.237659    0.567706    1.377868
     10          8           0        1.300659   -0.814459   -0.142498
     11          1           0       -0.018790   -1.190492   -0.251507
 ---------------------------------------------------------------------
 Rotational constants (GHZ):           7.8121082           4.8482839           3.3264498
 Leave Link  202 at Tue Oct 15 20:24:46 2019, MaxMem=   280000000 cpu:               0.2 elap:               0.0
 (Enter /home/soft/g16/l601.exe)
 Copying SCF densities to generalized density rwf, IOpCl= 0 IROHF=0.

 **********************************************************************

            Population analysis using the SCF density.

 **********************************************************************

 Orbital symmetries:
       Occupied  (A) (A) (A) (A) (A) (A) (A) (A) (A) (A) (A) (A)
                 (A) (A) (A) (A) (A) (A) (A) (A)
       Virtual   (A) (A) (A) (A) (A) (A) (A) (A) (A) (A) (A) (A)
                 (A) (A) (A) (A) (A) (A) (A) (A) (A) (A) (A) (A)
                 (A) (A) (A) (A) (A) (A) (A) (A) (A) (A) (A) (A)
                 (A) (A) (A) (A) (A) (A) (A) (A) (A) (A) (A) (A)
                 (A) (A) (A) (A) (A) (A) (A) (A) (A) (A) (A) (A)
                 (A) (A) (A) (A) (A) (A) (A) (A) (A) (A) (A) (A)
                 (A) (A) (A) (A) (A) (A) (A) (A) (A) (A) (A) (A)
                 (A) (A) (A) (A) (A) (A) (A) (A) (A) (A) (A) (A)
                 (A) (A) (A) (A) (A) (A) (A) (A) (A) (A) (A) (A)
 The electronic state is 1-A.
 Alpha  occ. eigenvalues --  -19.16533 -19.10674 -10.28113 -10.26287 -10.19900
 Alpha  occ. eigenvalues --   -1.09559  -1.02067  -0.78577  -0.64466  -0.63879
 Alpha  occ. eigenvalues --   -0.54136  -0.52034  -0.47316  -0.45659  -0.43739
 Alpha  occ. eigenvalues --   -0.42398  -0.36919  -0.35560  -0.27187  -0.25781
 Alpha virt. eigenvalues --   -0.07359   0.00052   0.01590   0.01851   0.03355
 Alpha virt. eigenvalues --    0.04918   0.06028   0.06669   0.07055   0.07883
 Alpha virt. eigenvalues --    0.08480   0.11290   0.12242   0.14157   0.16295
 Alpha virt. eigenvalues --    0.16585   0.19488   0.19801   0.20372   0.21588
 Alpha virt. eigenvalues --    0.23177   0.23635   0.25411   0.27161   0.28425
 Alpha virt. eigenvalues --    0.29246   0.30207   0.31414   0.33278   0.34522
 Alpha virt. eigenvalues --    0.41093   0.42693   0.45017   0.47524   0.48752
 Alpha virt. eigenvalues --    0.50282   0.52971   0.57370   0.60798   0.64040
 Alpha virt. eigenvalues --    0.64402   0.65317   0.66807   0.68581   0.70199
 Alpha virt. eigenvalues --    0.71611   0.79477   0.87629   0.93159   1.02056
 Alpha virt. eigenvalues --    1.04254   1.10722   1.12488   1.13833   1.17361
 Alpha virt. eigenvalues --    1.22222   1.31278   1.32183   1.36166   1.42130
 Alpha virt. eigenvalues --    1.48603   1.52039   1.57584   1.58804   1.61986
 Alpha virt. eigenvalues --    1.68108   1.73796   1.76060   1.88430   1.91192
 Alpha virt. eigenvalues --    1.99907   2.11314   2.37153   2.38106   2.42203
 Alpha virt. eigenvalues --    2.48506   2.50887   2.58486   2.63234   2.68203
 Alpha virt. eigenvalues --    2.80510   2.86023   3.00001   3.02261   3.08577
 Alpha virt. eigenvalues --    3.09328   3.12336   3.17072   3.18116   3.20512
 Alpha virt. eigenvalues --    3.26617   3.28918   3.33178   3.39377   3.61069
 Alpha virt. eigenvalues --    3.91279   4.00540   4.96884   5.04591   5.05677
 Alpha virt. eigenvalues --    5.11737   5.55255   5.58580  23.46885  23.61563
 Alpha virt. eigenvalues --   23.94402  49.86756  49.90686
          Condensed to atoms (all electrons):
               1          2          3          4          5          6
     1  C    5.249660   0.362173   0.344763   0.177939  -0.054371  -0.049865
     2  H    0.362173   0.480058  -0.059949  -0.000365   0.002022  -0.001842
     3  O    0.344763  -0.059949   8.011623  -0.116538  -0.008456   0.011028
     4  C    0.177939  -0.000365  -0.116538   6.072911   0.416120   0.365876
     5  H   -0.054371   0.002022  -0.008456   0.416120   0.391835  -0.022916
     6  H   -0.049865  -0.001842   0.011028   0.365876  -0.022916   0.439456
     7  C    0.043814  -0.012977  -0.036055  -0.091013  -0.023597   0.000605
     8  H    0.032498  -0.000353   0.006012  -0.080117  -0.010943  -0.001028
     9  H   -0.039895  -0.000755  -0.003541  -0.025445   0.004033   0.002460
    10  O   -0.057558  -0.002574   0.014022  -0.114898  -0.002666   0.007400
    11  H   -0.039350   0.004013   0.194702   0.032040   0.000630  -0.001733
               7          8          9         10         11
     1  C    0.043814   0.032498  -0.039895  -0.057558  -0.039350
     2  H   -0.012977  -0.000353  -0.000755  -0.002574   0.004013
     3  O   -0.036055   0.006012  -0.003541   0.014022   0.194702
     4  C   -0.091013  -0.080117  -0.025445  -0.114898   0.032040
     5  H   -0.023597  -0.010943   0.004033  -0.002666   0.000630
     6  H    0.000605  -0.001028   0.002460   0.007400  -0.001733
     7  C    5.441595   0.395781   0.395781   0.290675  -0.022969
     8  H    0.395781   0.567740  -0.081359  -0.061627  -0.005014
     9  H    0.395781  -0.081359   0.580709  -0.064714   0.006859
    10  O    0.290675  -0.061627  -0.064714   8.278450   0.096844
    11  H   -0.022969  -0.005014   0.006859   0.096844   0.258749
 Mulliken charges:
               1
     1  C    0.030192
     2  H    0.230550
     3  O   -0.357611
     4  C   -0.636510
     5  H    0.308309
     6  H    0.250560
     7  C   -0.381640
     8  H    0.238409
     9  H    0.225866
    10  O   -0.383352
    11  H    0.475228
 Sum of Mulliken charges =  -0.00000
 Mulliken charges with hydrogens summed into heavy atoms:
               1
     1  C    0.260741
     3  O    0.117617
     4  C   -0.077641
     7  C    0.082634
    10  O   -0.383352
 Electronic spatial extent (au):  <R**2>=            398.9157
 Charge=             -0.0000 electrons
 Dipole moment (field-independent basis, Debye):
    X=             -1.0165    Y=              3.5126    Z=              0.8175  Tot=              3.7470
 Quadrupole moment (field-independent basis, Debye-Ang):
   XX=            -33.0232   YY=            -32.3034   ZZ=            -29.8043
   XY=              1.1692   XZ=             -0.6832   YZ=              0.0781
 Traceless Quadrupole moment (field-independent basis, Debye-Ang):
   XX=             -1.3129   YY=             -0.5931   ZZ=              1.9060
   XY=              1.1692   XZ=             -0.6832   YZ=              0.0781
 Octapole moment (field-independent basis, Debye-Ang**2):
  XXX=             -3.5127  YYY=             -1.2194  ZZZ=             -0.2896  XYY=              0.8910
  XXY=              7.0609  XXZ=              4.2255  XZZ=             -0.7153  YZZ=             -0.7582
  YYZ=             -0.7641  XYZ=             -1.6935
 Hexadecapole moment (field-independent basis, Debye-Ang**3):
 XXXX=           -270.9873 YYYY=           -173.9121 ZZZZ=            -58.3402 XXXY=              7.4151
 XXXZ=             -5.5703 YYYX=             -0.7198 YYYZ=              3.5878 ZZZX=             -1.5612
 ZZZY=             -0.4141 XXYY=            -84.7792 XXZZ=            -54.4076 YYZZ=            -41.2153
 XXYZ=              0.4401 YYXZ=             -1.7770 ZZXY=              1.2725
 N-N= 1.802958270957D+02 E-N=-9.894010298345D+02  KE= 2.674194133254D+02
 No NMR shielding tensors so no spin-rotation constants.
 Leave Link  601 at Tue Oct 15 20:24:47 2019, MaxMem=   280000000 cpu:               3.1 elap:               0.2
 (Enter /home/soft/g16/l9999.exe)
 1\1\GINC-NODE05\FTS\RB3LYP\6-311+G(d)\C3H6O2\ROOT\15-Oct-2019\0\\#p op
 t=(calcfc,ts,noeigen) b3lyp/6-311+g(d)\\Title Card Required\\0,1\C,-1.
 215287669,0.1471799634,0.205019006\H,-1.8814991481,0.3434469701,1.0496
 66824\O,-1.0664911462,-1.0912573112,-0.1200182275\C,-0.4135435151,1.14
 54908577,-0.3431871576\H,-0.1214042491,1.0475814492,-1.3821077653\H,-0
 .5529506455,2.1625773581,0.0087728549\C,1.3047563825,0.3650771313,0.27
 71945242\H,1.8997978583,1.1279797963,-0.2397896047\H,1.245916506,0.526
 1651031,1.3640170538\O,1.3289228054,-0.8353864009,-0.1738874101\H,0.01
 40273508,-1.2243439871,-0.2921699276\\Version=ES64L-G16RevA.03\State=1
 -A\HF=-268.3725487\RMSD=7.354e-09\RMSF=2.822e-05\Dipole=-0.416073,1.37
 32113,0.3381343\Quadrupole=-0.9918125,-0.4231086,1.4149211,0.8696274,-
 0.5050564,0.0314274\PG=C01 [X(C3H6O2)]\\@


 Happiness is a conscious choice, not an automatic response.
 -- Mildred Barthel
 Job cpu time:       0 days  0 hours 34 minutes 52.6 seconds.
 Elapsed time:       0 days  0 hours  1 minutes 44.1 seconds.
 File lengths (MBytes):  RWF=    332 Int=      0 D2E=      0 Chk=      8 Scr=      8
 Normal termination of Gaussian 16 at Tue Oct 15 20:24:47 2019.
