 Entering Gaussian System, Link 0=g16
 Input=ts3.gjf
 Output=ts3.log
 Initial command:
 /home/soft/g16/l1.exe "/tmp/gaussian/Gau-50830.inp" -scrdir="/tmp/gaussian/"
 Entering Link 1 = /home/soft/g16/l1.exe PID=     50831.
  
 Copyright (c) 1988,1990,1992,1993,1995,1998,2003,2009,2016,
            Gaussian, Inc.  All Rights Reserved.
  
 This is part of the Gaussian(R) 16 program.  It is based on
 the Gaussian(R) 09 system (copyright 2009, Gaussian, Inc.),
 the Gaussian(R) 03 system (copyright 2003, Gaussian, Inc.),
 the Gaussian(R) 98 system (copyright 1998, Gaussian, Inc.),
 the Gaussian(R) 94 system (copyright 1995, Gaussian, Inc.),
 the Gaussian 92(TM) system (copyright 1992, Gaussian, Inc.),
 the Gaussian 90(TM) system (copyright 1990, Gaussian, Inc.),
 the Gaussian 88(TM) system (copyright 1988, Gaussian, Inc.),
 the Gaussian 86(TM) system (copyright 1986, Carnegie Mellon
 University), and the Gaussian 82(TM) system (copyright 1983,
 Carnegie Mellon University). Gaussian is a federally registered
 trademark of Gaussian, Inc.
  
 This software contains proprietary and confidential information,
 including trade secrets, belonging to Gaussian, Inc.
  
 This software is provided under written license and may be
 used, copied, transmitted, or stored only in accord with that
 written license.
  
 The following legend is applicable only to US Government
 contracts under FAR:
  
                    RESTRICTED RIGHTS LEGEND
  
 Use, reproduction and disclosure by the US Government is
 subject to restrictions as set forth in subparagraphs (a)
 and (c) of the Commercial Computer Software - Restricted
 Rights clause in FAR 52.227-19.
  
 Gaussian, Inc.
 340 Quinnipiac St., Bldg. 40, Wallingford CT 06492
  
  
 ---------------------------------------------------------------
 Warning -- This program may not be used in any manner that
 competes with the business of Gaussian, Inc. or will provide
 assistance to any competitor of Gaussian, Inc.  The licensee
 of this program is prohibited from giving any competitor of
 Gaussian, Inc. access to this program.  By using this program,
 the user acknowledges that Gaussian, Inc. is engaged in the
 business of creating and licensing software in the field of
 computational chemistry and represents and warrants to the
 licensee that it is not a competitor of Gaussian, Inc. and that
 it will not use this program in any manner prohibited above.
 ---------------------------------------------------------------
  

 Cite this work as:
 Gaussian 16, Revision A.03,
 M. J. Frisch, G. W. Trucks, H. B. Schlegel, G. E. Scuseria, 
 M. A. Robb, J. R. Cheeseman, G. Scalmani, V. Barone, 
 G. A. Petersson, H. Nakatsuji, X. Li, M. Caricato, A. V. Marenich, 
 J. Bloino, B. G. Janesko, R. Gomperts, B. Mennucci, H. P. Hratchian, 
 J. V. Ortiz, A. F. Izmaylov, J. L. Sonnenberg, D. Williams-Young, 
 F. Ding, F. Lipparini, F. Egidi, J. Goings, B. Peng, A. Petrone, 
 T. Henderson, D. Ranasinghe, V. G. Zakrzewski, J. Gao, N. Rega, 
 G. Zheng, W. Liang, M. Hada, M. Ehara, K. Toyota, R. Fukuda, 
 J. Hasegawa, M. Ishida, T. Nakajima, Y. Honda, O. Kitao, H. Nakai, 
 T. Vreven, K. Throssell, J. A. Montgomery, Jr., J. E. Peralta, 
 F. Ogliaro, M. J. Bearpark, J. J. Heyd, E. N. Brothers, K. N. Kudin, 
 V. N. Staroverov, T. A. Keith, R. Kobayashi, J. Normand, 
 K. Raghavachari, A. P. Rendell, J. C. Burant, S. S. Iyengar, 
 J. Tomasi, M. Cossi, J. M. Millam, M. Klene, C. Adamo, R. Cammi, 
 J. W. Ochterski, R. L. Martin, K. Morokuma, O. Farkas, 
 J. B. Foresman, and D. J. Fox, Gaussian, Inc., Wallingford CT, 2016.
 
 ******************************************
 Gaussian 16:  ES64L-G16RevA.03 25-Dec-2016
                15-Oct-2019 
 ******************************************
 %chk=ts3.chk
 %nprocshared=24
 Will use up to   24 processors via shared memory.
 -------------------------------------------------
 #p opt=(calcall,ts,noeigen) freq b3lyp/6-311+g(d)
 -------------------------------------------------
 1/5=1,10=4,11=1,18=20,26=3,38=1/1,3;
 2/9=110,12=2,17=6,18=5,40=1/2;
 3/5=4,6=6,7=11,11=2,25=1,30=1,71=2,74=-5,140=1/1,2,3;
 4//1;
 5/5=2,38=5/2;
 8/6=4,10=90,11=11/1;
 11/6=1,8=1,9=11,15=111,16=1/1,2,10;
 10/6=1/2;
 6/7=2,8=2,9=2,10=2,18=1,28=1/1;
 7/10=1,25=1/1,2,3,16;
 1/5=1,10=4,11=1,18=20,26=3/3(3);
 2/9=110/2;
 7/8=1,9=1,25=1,44=-1/16;
 99//99;
 2/9=110/2;
 3/5=4,6=6,7=11,11=2,25=1,30=1,71=2,74=-5,140=1/1,2,3;
 4/5=5,16=3,69=1/1;
 5/5=2,38=5/2;
 8/6=4,10=90,11=11/1;
 11/6=1,8=1,9=11,15=111,16=1/1,2,10;
 10/6=1/2;
 7/10=1,25=1/1,2,3,16;
 1/5=1,10=4,11=1,18=20,26=3/3(-8);
 2/9=110/2;
 6/7=2,8=2,9=2,10=2,18=1,19=2,28=1/1;
 7/8=1,9=1,25=1,44=-1/16;
 99//99;
 Leave Link    1 at Tue Oct 15 20:30:08 2019, MaxMem=           0 cpu:               2.6 elap:               0.1
 (Enter /home/soft/g16/l101.exe)
 -------------------
 Title Card Required
 -------------------
 Symbolic Z-matrix:
 Charge =  0 Multiplicity = 1
 C                    -1.2314    0.20073   0.23178 
 H                    -1.8926    0.4152    1.07594 
 O                    -1.09721  -1.04336  -0.07763 
 C                    -0.42065   1.18302  -0.3319 
 H                    -0.13308   1.06849  -1.37039 
 H                    -0.54778   2.20605   0.00728 
 C                     1.2911    0.39193   0.29304 
 H                     1.89269   1.14152  -0.2357 
 H                     1.23766   0.56771   1.37787 
 O                     1.30066  -0.81446  -0.1425 
 H                    -0.01879  -1.19049  -0.25151 
 
 Add virtual bond connecting atoms H11        and O10        Dist= 2.60D+00.
 Add atom      7 valence  3 ND=      2 dihedral       8      7      9     10
 ITRead=  0  0  0  0  0  0  0  0  0  0  0
 MicOpt= -1 -1 -1 -1 -1 -1 -1 -1 -1 -1 -1
 NAtoms=     11 NQM=       11 NQMF=       0 NMMI=      0 NMMIF=      0
                NMic=       0 NMicF=      0.
                    Isotopes and Nuclear Properties:
 (Nuclear quadrupole moments (NQMom) in fm**2, nuclear magnetic moments (NMagM)
  in nuclear magnetons)

  Atom         1           2           3           4           5           6           7           8           9          10
 IAtWgt=          12           1          16          12           1           1          12           1           1          16
 AtmWgt=  12.0000000   1.0078250  15.9949146  12.0000000   1.0078250   1.0078250  12.0000000   1.0078250   1.0078250  15.9949146
 NucSpn=           0           1           0           0           1           1           0           1           1           0
 AtZEff=  -0.0000000  -0.0000000  -0.0000000  -0.0000000  -0.0000000  -0.0000000  -0.0000000  -0.0000000  -0.0000000  -0.0000000
 NQMom=    0.0000000   0.0000000   0.0000000   0.0000000   0.0000000   0.0000000   0.0000000   0.0000000   0.0000000   0.0000000
 NMagM=    0.0000000   2.7928460   0.0000000   0.0000000   2.7928460   2.7928460   0.0000000   2.7928460   2.7928460   0.0000000
 AtZNuc=   6.0000000   1.0000000   8.0000000   6.0000000   1.0000000   1.0000000   6.0000000   1.0000000   1.0000000   8.0000000

  Atom        11
 IAtWgt=           1
 AtmWgt=   1.0078250
 NucSpn=           1
 AtZEff=  -0.0000000
 NQMom=    0.0000000
 NMagM=    2.7928460
 AtZNuc=   1.0000000
 Leave Link  101 at Tue Oct 15 20:30:09 2019, MaxMem=   280000000 cpu:               4.5 elap:               0.2
 (Enter /home/soft/g16/l103.exe)

 GradGradGradGradGradGradGradGradGradGradGradGradGradGradGradGradGradGrad
 Berny optimization.
 Initialization pass.
                           ----------------------------
                           !    Initial Parameters    !
                           ! (Angstroms and Degrees)  !
 --------------------------                            --------------------------
 ! Name  Definition              Value          Derivative Info.                !
 --------------------------------------------------------------------------------
 ! R1    R(1,2)                  1.0935         calculate D2E/DX2 analytically  !
 ! R2    R(1,3)                  1.289          calculate D2E/DX2 analytically  !
 ! R3    R(1,4)                  1.3928         calculate D2E/DX2 analytically  !
 ! R4    R(3,11)                 1.1022         calculate D2E/DX2 analytically  !
 ! R5    R(4,5)                  1.0836         calculate D2E/DX2 analytically  !
 ! R6    R(4,6)                  1.0853         calculate D2E/DX2 analytically  !
 ! R7    R(7,8)                  1.097          calculate D2E/DX2 analytically  !
 ! R8    R(7,9)                  1.1003         calculate D2E/DX2 analytically  !
 ! R9    R(7,10)                 1.2826         calculate D2E/DX2 analytically  !
 ! R10   R(10,11)                1.3763         calculate D2E/DX2 analytically  !
 ! A1    A(2,1,3)              115.9472         calculate D2E/DX2 analytically  !
 ! A2    A(2,1,4)              121.7399         calculate D2E/DX2 analytically  !
 ! A3    A(3,1,4)              121.5298         calculate D2E/DX2 analytically  !
 ! A4    A(1,3,11)             105.5784         calculate D2E/DX2 analytically  !
 ! A5    A(1,4,5)              117.8898         calculate D2E/DX2 analytically  !
 ! A6    A(1,4,6)              118.0437         calculate D2E/DX2 analytically  !
 ! A7    A(5,4,6)              115.4823         calculate D2E/DX2 analytically  !
 ! A8    A(8,7,9)              113.123          calculate D2E/DX2 analytically  !
 ! A9    A(8,7,10)             118.3554         calculate D2E/DX2 analytically  !
 ! A10   A(9,7,10)             119.0399         calculate D2E/DX2 analytically  !
 ! A11   A(7,10,11)            106.0649         calculate D2E/DX2 analytically  !
 ! A12   A(3,11,10)            152.7514         calculate D2E/DX2 analytically  !
 ! D1    D(2,1,3,11)          -135.9034         calculate D2E/DX2 analytically  !
 ! D2    D(4,1,3,11)            34.1268         calculate D2E/DX2 analytically  !
 ! D3    D(2,1,4,5)           -153.8823         calculate D2E/DX2 analytically  !
 ! D4    D(2,1,4,6)             -7.4276         calculate D2E/DX2 analytically  !
 ! D5    D(3,1,4,5)             36.6654         calculate D2E/DX2 analytically  !
 ! D6    D(3,1,4,6)           -176.8799         calculate D2E/DX2 analytically  !
 ! D7    D(1,3,11,10)           17.0424         calculate D2E/DX2 analytically  !
 ! D8    D(8,7,9,10)          -145.8705         calculate D2E/DX2 analytically  !
 ! D9    D(8,7,10,11)         -129.9352         calculate D2E/DX2 analytically  !
 ! D10   D(9,7,10,11)           85.9626         calculate D2E/DX2 analytically  !
 ! D11   D(7,10,11,3)          -10.6279         calculate D2E/DX2 analytically  !
 --------------------------------------------------------------------------------
 Trust Radius=3.00D-01 FncErr=1.00D-07 GrdErr=1.00D-06 EigMax=2.50D+02 EigMin=1.00D-04
 Number of steps in this run=     43 maximum allowed number of steps=    100.
 Search for a saddle point of order  1.
 GradGradGradGradGradGradGradGradGradGradGradGradGradGradGradGradGradGrad

 Leave Link  103 at Tue Oct 15 20:30:09 2019, MaxMem=   280000000 cpu:               0.5 elap:               0.0
 (Enter /home/soft/g16/l202.exe)
                          Input orientation:                          
 ---------------------------------------------------------------------
 Center     Atomic      Atomic             Coordinates (Angstroms)
 Number     Number       Type             X           Y           Z
 ---------------------------------------------------------------------
      1          6           0       -1.231399    0.200731    0.231782
      2          1           0       -1.892598    0.415195    1.075944
      3          8           0       -1.097210   -1.043364   -0.077634
      4          6           0       -0.420652    1.183024   -0.331899
      5          1           0       -0.133078    1.068486   -1.370393
      6          1           0       -0.547777    2.206046    0.007279
      7          6           0        1.291100    0.391933    0.293044
      8          1           0        1.892694    1.141520   -0.235700
      9          1           0        1.237659    0.567706    1.377868
     10          8           0        1.300659   -0.814459   -0.142498
     11          1           0       -0.018790   -1.190492   -0.251507
 ---------------------------------------------------------------------
                    Distance matrix (angstroms):
                    1          2          3          4          5
     1  C    0.000000
     2  H    1.093521   0.000000
     3  O    1.288999   2.022567   0.000000
     4  C    1.392820   2.176743   2.340766   0.000000
     5  H    2.127504   3.083385   2.657195   1.083645   0.000000
     6  H    2.130500   2.481479   3.296627   1.085254   1.834121
     7  C    2.530477   3.278629   2.810961   1.986573   2.291949
     8  H    3.295995   4.071412   3.706512   2.315717   2.323061
     9  H    2.746713   3.148480   3.188361   2.460064   3.111694
    10  O    2.753546   3.632291   2.409643   2.643619   2.666235
    11  H    1.907745   2.802055   1.102211   2.408637   2.523480
                    6          7          8          9         10
     6  H    0.000000
     7  C    2.598872   0.000000
     8  H    2.673603   1.096981   0.000000
     9  H    2.783964   1.100271   1.833558   0.000000
    10  O    3.544376   1.282642   2.045738   2.055690   0.000000
    11  H    3.447212   2.125186   3.015344   2.706434   1.376310
                   11
    11  H    0.000000
 Stoichiometry    C3H6O2
 Framework group  C1[X(C3H6O2)]
 Deg. of freedom    27
 Full point group                 C1      NOp   1
 Largest Abelian subgroup         C1      NOp   1
 Largest concise Abelian subgroup C1      NOp   1
                         Standard orientation:                         
 ---------------------------------------------------------------------
 Center     Atomic      Atomic             Coordinates (Angstroms)
 Number     Number       Type             X           Y           Z
 ---------------------------------------------------------------------
      1          6           0       -1.231399    0.200731    0.231782
      2          1           0       -1.892598    0.415195    1.075944
      3          8           0       -1.097210   -1.043364   -0.077634
      4          6           0       -0.420652    1.183024   -0.331899
      5          1           0       -0.133078    1.068486   -1.370393
      6          1           0       -0.547777    2.206046    0.007279
      7          6           0        1.291100    0.391933    0.293044
      8          1           0        1.892694    1.141520   -0.235700
      9          1           0        1.237659    0.567706    1.377868
     10          8           0        1.300659   -0.814459   -0.142498
     11          1           0       -0.018790   -1.190492   -0.251507
 ---------------------------------------------------------------------
 Rotational constants (GHZ):           7.8121119           4.8482834           3.3264499
 Leave Link  202 at Tue Oct 15 20:30:09 2019, MaxMem=   280000000 cpu:               1.4 elap:               0.1
 (Enter /home/soft/g16/l301.exe)
 Standard basis: 6-311+G(d) (5D, 7F)
 Ernie: Thresh=  0.10000D-02 Tol=  0.10000D-05 Strict=F.
 There are   133 symmetry adapted cartesian basis functions of A   symmetry.
 There are   128 symmetry adapted basis functions of A   symmetry.
   128 basis functions,   210 primitive gaussians,   133 cartesian basis functions
    20 alpha electrons       20 beta electrons
       nuclear repulsion energy       180.2958426922 Hartrees.
 IExCor=  402 DFT=T Ex+Corr=B3LYP ExCW=0 ScaHFX=  0.200000
 ScaDFX=  0.800000  0.720000  1.000000  0.810000 ScalE2=  1.000000  1.000000
 IRadAn=      5 IRanWt=     -1 IRanGd=            0 ICorTp=0 IEmpDi=  4
 NAtoms=   11 NActive=   11 NUniq=   11 SFac= 1.00D+00 NAtFMM=   60 NAOKFM=F Big=F
 Integral buffers will be    131072 words long.
 Raffenetti 2 integral format.
 Two-electron integral symmetry is turned on.
 Leave Link  301 at Tue Oct 15 20:30:09 2019, MaxMem=   280000000 cpu:               1.8 elap:               0.1
 (Enter /home/soft/g16/l302.exe)
 NPDir=0 NMtPBC=     1 NCelOv=     1 NCel=       1 NClECP=     1 NCelD=      1
         NCelK=      1 NCelE2=     1 NClLst=     1 CellRange=     0.0.
 One-electron integrals computed using PRISM.
 One-electron integral symmetry used in STVInt
 NBasis=   128 RedAO= T EigKep=  8.85D-05  NBF=   128
 NBsUse=   128 1.00D-06 EigRej= -1.00D+00 NBFU=   128
 Precomputing XC quadrature grid using
 IXCGrd= 4 IRadAn=           5 IRanWt=          -1 IRanGd=           0 AccXCQ= 0.00D+00.
 Generated NRdTot=       0 NPtTot=           0 NUsed=           0 NTot=          32
 NSgBfM=   133   133   133   133   133 MxSgAt=    11 MxSgA2=    11.
 Leave Link  302 at Tue Oct 15 20:30:09 2019, MaxMem=   280000000 cpu:               4.7 elap:               0.3
 (Enter /home/soft/g16/l303.exe)
 DipDrv:  MaxL=1.
 Leave Link  303 at Tue Oct 15 20:30:09 2019, MaxMem=   280000000 cpu:               0.7 elap:               0.0
 (Enter /home/soft/g16/l401.exe)
 ExpMin= 4.38D-02 ExpMax= 8.59D+03 ExpMxC= 1.30D+03 IAcc=3 IRadAn=         5 AccDes= 0.00D+00
 Harris functional with IExCor=  402 and IRadAn=       5 diagonalized for initial guess.
 HarFok:  IExCor=  402 AccDes= 0.00D+00 IRadAn=         5 IDoV= 1 UseB2=F ITyADJ=14
 ICtDFT=  3500011 ScaDFX=  1.000000  1.000000  1.000000  1.000000
 FoFCou: FMM=F IPFlag=           0 FMFlag=      100000 FMFlg1=           0
         NFxFlg=           0 DoJE=T BraDBF=F KetDBF=T FulRan=T
         wScrn=  0.000000 ICntrl=       500 IOpCl=  0 I1Cent=   200000004 NGrid=           0
         NMat0=    1 NMatS0=      1 NMatT0=    0 NMatD0=    1 NMtDS0=    0 NMtDT0=    0
 Petite list used in FoFCou.
 Harris En= -268.404006294944    
 JPrj=0 DoOrth=F DoCkMO=F.
 Leave Link  401 at Tue Oct 15 20:30:10 2019, MaxMem=   280000000 cpu:               7.9 elap:               0.4
 (Enter /home/soft/g16/l502.exe)
 Keep R1 ints in memory in canonical form, NReq=57089831.
 FoFCou: FMM=F IPFlag=           0 FMFlag=           0 FMFlg1=           0
         NFxFlg=           0 DoJE=F BraDBF=F KetDBF=F FulRan=T
         wScrn=  0.000000 ICntrl=       600 IOpCl=  0 I1Cent=           0 NGrid=           0
         NMat0=    1 NMatS0=   8256 NMatT0=    0 NMatD0=    1 NMtDS0=    0 NMtDT0=    0
 Symmetry not used in FoFCou.
 Two-electron integral symmetry not used.
 Closed shell SCF:
 Using DIIS extrapolation, IDIIS=  1040.
 NGot=   280000000 LenX=   245875069 LenY=   245856939
 Requested convergence on RMS density matrix=1.00D-08 within 128 cycles.
 Requested convergence on MAX density matrix=1.00D-06.
 Requested convergence on             energy=1.00D-06.
 No special actions if energy rises.

 Cycle   1  Pass 1  IDiag  1:
 E= -268.224717032007    
 DIIS: error= 3.15D-02 at cycle   1 NSaved=   1.
 NSaved= 1 IEnMin= 1 EnMin= -268.224717032007     IErMin= 1 ErrMin= 3.15D-02
 ErrMax= 3.15D-02  0.00D+00 EMaxC= 1.00D-01 BMatC= 2.01D-01 BMatP= 2.01D-01
 IDIUse=3 WtCom= 6.85D-01 WtEn= 3.15D-01
 Coeff-Com:  0.100D+01
 Coeff-En:   0.100D+01
 Coeff:      0.100D+01
 Gap=     0.122 Goal=   None    Shift=    0.000
 GapD=    0.122 DampG=1.000 DampE=0.500 DampFc=0.5000 IDamp=-1.
 Damping current iteration by 5.00D-01
 RMSDP=1.57D-02 MaxDP=6.60D-01              OVMax= 3.44D-01

 Cycle   2  Pass 1  IDiag  1:
 E= -268.243194242757     Delta-E=       -0.018477210749 Rises=F Damp=T
 DIIS: error= 2.05D-02 at cycle   2 NSaved=   2.
 NSaved= 2 IEnMin= 2 EnMin= -268.243194242757     IErMin= 2 ErrMin= 2.05D-02
 ErrMax= 2.05D-02  0.00D+00 EMaxC= 1.00D-01 BMatC= 3.99D-02 BMatP= 2.01D-01
 IDIUse=3 WtCom= 7.95D-01 WtEn= 2.05D-01
 Coeff-Com:  0.255D+00 0.745D+00
 Coeff-En:   0.443D+00 0.557D+00
 Coeff:      0.293D+00 0.707D+00
 Gap=     0.217 Goal=   None    Shift=    0.000
 RMSDP=6.42D-03 MaxDP=2.77D-01 DE=-1.85D-02 OVMax= 2.26D-01

 Cycle   3  Pass 1  IDiag  1:
 E= -268.346287629552     Delta-E=       -0.103093386795 Rises=F Damp=F
 DIIS: error= 1.54D-02 at cycle   3 NSaved=   3.
 NSaved= 3 IEnMin= 3 EnMin= -268.346287629552     IErMin= 3 ErrMin= 1.54D-02
 ErrMax= 1.54D-02  0.00D+00 EMaxC= 1.00D-01 BMatC= 2.90D-02 BMatP= 3.99D-02
 IDIUse=3 WtCom= 8.46D-01 WtEn= 1.54D-01
 Coeff-Com:  0.848D-01 0.456D+00 0.459D+00
 Coeff-En:   0.000D+00 0.000D+00 0.100D+01
 Coeff:      0.717D-01 0.386D+00 0.543D+00
 Gap=     0.191 Goal=   None    Shift=    0.000
 RMSDP=1.85D-03 MaxDP=2.51D-02 DE=-1.03D-01 OVMax= 9.47D-02

 Cycle   4  Pass 1  IDiag  1:
 E= -268.367303258236     Delta-E=       -0.021015628685 Rises=F Damp=F
 DIIS: error= 5.83D-03 at cycle   4 NSaved=   4.
 NSaved= 4 IEnMin= 4 EnMin= -268.367303258236     IErMin= 4 ErrMin= 5.83D-03
 ErrMax= 5.83D-03  0.00D+00 EMaxC= 1.00D-01 BMatC= 6.13D-03 BMatP= 2.90D-02
 IDIUse=3 WtCom= 9.42D-01 WtEn= 5.83D-02
 Coeff-Com:  0.116D-01 0.109D+00 0.330D+00 0.549D+00
 Coeff-En:   0.000D+00 0.000D+00 0.199D+00 0.801D+00
 Coeff:      0.109D-01 0.103D+00 0.322D+00 0.564D+00
 Gap=     0.188 Goal=   None    Shift=    0.000
 RMSDP=7.34D-04 MaxDP=1.38D-02 DE=-2.10D-02 OVMax= 2.85D-02

 Cycle   5  Pass 1  IDiag  1:
 E= -268.372284522063     Delta-E=       -0.004981263827 Rises=F Damp=F
 DIIS: error= 1.45D-03 at cycle   5 NSaved=   5.
 NSaved= 5 IEnMin= 5 EnMin= -268.372284522063     IErMin= 5 ErrMin= 1.45D-03
 ErrMax= 1.45D-03  0.00D+00 EMaxC= 1.00D-01 BMatC= 3.28D-04 BMatP= 6.13D-03
 IDIUse=3 WtCom= 9.85D-01 WtEn= 1.45D-02
 Coeff-Com: -0.333D-03 0.234D-01 0.135D+00 0.315D+00 0.526D+00
 Coeff-En:   0.000D+00 0.000D+00 0.000D+00 0.000D+00 0.100D+01
 Coeff:     -0.328D-03 0.231D-01 0.133D+00 0.311D+00 0.533D+00
 Gap=     0.184 Goal=   None    Shift=    0.000
 RMSDP=1.53D-04 MaxDP=2.58D-03 DE=-4.98D-03 OVMax= 5.60D-03

 Cycle   6  Pass 1  IDiag  1:
 E= -268.372507271489     Delta-E=       -0.000222749426 Rises=F Damp=F
 DIIS: error= 5.45D-04 at cycle   6 NSaved=   6.
 NSaved= 6 IEnMin= 6 EnMin= -268.372507271489     IErMin= 6 ErrMin= 5.45D-04
 ErrMax= 5.45D-04  0.00D+00 EMaxC= 1.00D-01 BMatC= 5.24D-05 BMatP= 3.28D-04
 IDIUse=3 WtCom= 9.95D-01 WtEn= 5.45D-03
 Coeff-Com: -0.191D-02 0.156D-02 0.399D-01 0.117D+00 0.336D+00 0.507D+00
 Coeff-En:   0.000D+00 0.000D+00 0.000D+00 0.000D+00 0.119D+00 0.881D+00
 Coeff:     -0.190D-02 0.155D-02 0.396D-01 0.117D+00 0.335D+00 0.509D+00
 Gap=     0.184 Goal=   None    Shift=    0.000
 RMSDP=5.62D-05 MaxDP=8.23D-04 DE=-2.23D-04 OVMax= 2.19D-03

 Cycle   7  Pass 1  IDiag  1:
 E= -268.372545950445     Delta-E=       -0.000038678956 Rises=F Damp=F
 DIIS: error= 1.44D-04 at cycle   7 NSaved=   7.
 NSaved= 7 IEnMin= 7 EnMin= -268.372545950445     IErMin= 7 ErrMin= 1.44D-04
 ErrMax= 1.44D-04  0.00D+00 EMaxC= 1.00D-01 BMatC= 2.98D-06 BMatP= 5.24D-05
 IDIUse=3 WtCom= 9.99D-01 WtEn= 1.44D-03
 Coeff-Com: -0.766D-03-0.947D-03 0.103D-01 0.364D-01 0.141D+00 0.271D+00
 Coeff-Com:  0.543D+00
 Coeff-En:   0.000D+00 0.000D+00 0.000D+00 0.000D+00 0.000D+00 0.000D+00
 Coeff-En:   0.100D+01
 Coeff:     -0.765D-03-0.946D-03 0.103D-01 0.363D-01 0.141D+00 0.271D+00
 Coeff:      0.543D+00
 Gap=     0.184 Goal=   None    Shift=    0.000
 RMSDP=1.62D-05 MaxDP=4.16D-04 DE=-3.87D-05 OVMax= 7.00D-04

 Cycle   8  Pass 1  IDiag  1:
 E= -268.372548484674     Delta-E=       -0.000002534228 Rises=F Damp=F
 DIIS: error= 3.57D-05 at cycle   8 NSaved=   8.
 NSaved= 8 IEnMin= 8 EnMin= -268.372548484674     IErMin= 8 ErrMin= 3.57D-05
 ErrMax= 3.57D-05  0.00D+00 EMaxC= 1.00D-01 BMatC= 1.97D-07 BMatP= 2.98D-06
 IDIUse=1 WtCom= 1.00D+00 WtEn= 0.00D+00
 Coeff-Com: -0.928D-04-0.580D-03 0.540D-03 0.402D-02 0.307D-01 0.642D-01
 Coeff-Com:  0.246D+00 0.656D+00
 Coeff:     -0.928D-04-0.580D-03 0.540D-03 0.402D-02 0.307D-01 0.642D-01
 Coeff:      0.246D+00 0.656D+00
 Gap=     0.184 Goal=   None    Shift=    0.000
 RMSDP=5.11D-06 MaxDP=7.93D-05 DE=-2.53D-06 OVMax= 1.99D-04

 Cycle   9  Pass 1  IDiag  1:
 E= -268.372548672622     Delta-E=       -0.000000187949 Rises=F Damp=F
 DIIS: error= 7.66D-06 at cycle   9 NSaved=   9.
 NSaved= 9 IEnMin= 9 EnMin= -268.372548672622     IErMin= 9 ErrMin= 7.66D-06
 ErrMax= 7.66D-06  0.00D+00 EMaxC= 1.00D-01 BMatC= 1.15D-08 BMatP= 1.97D-07
 IDIUse=1 WtCom= 1.00D+00 WtEn= 0.00D+00
 Coeff-Com:  0.388D-05-0.150D-03-0.292D-03-0.118D-03 0.574D-02 0.123D-01
 Coeff-Com:  0.686D-01 0.281D+00 0.633D+00
 Coeff:      0.388D-05-0.150D-03-0.292D-03-0.118D-03 0.574D-02 0.123D-01
 Coeff:      0.686D-01 0.281D+00 0.633D+00
 Gap=     0.184 Goal=   None    Shift=    0.000
 RMSDP=1.04D-06 MaxDP=2.20D-05 DE=-1.88D-07 OVMax= 5.01D-05

 Cycle  10  Pass 1  IDiag  1:
 E= -268.372548681646     Delta-E=       -0.000000009023 Rises=F Damp=F
 DIIS: error= 4.32D-06 at cycle  10 NSaved=  10.
 NSaved=10 IEnMin=10 EnMin= -268.372548681646     IErMin=10 ErrMin= 4.32D-06
 ErrMax= 4.32D-06  0.00D+00 EMaxC= 1.00D-01 BMatC= 3.00D-09 BMatP= 1.15D-08
 IDIUse=1 WtCom= 1.00D+00 WtEn= 0.00D+00
 Coeff-Com:  0.803D-05-0.222D-04-0.316D-03-0.719D-03-0.676D-03-0.131D-02
 Coeff-Com:  0.878D-02 0.882D-01 0.389D+00 0.517D+00
 Coeff:      0.803D-05-0.222D-04-0.316D-03-0.719D-03-0.676D-03-0.131D-02
 Coeff:      0.878D-02 0.882D-01 0.389D+00 0.517D+00
 Gap=     0.184 Goal=   None    Shift=    0.000
 RMSDP=4.43D-07 MaxDP=1.07D-05 DE=-9.02D-09 OVMax= 1.72D-05

 Cycle  11  Pass 1  IDiag  1:
 E= -268.372548684556     Delta-E=       -0.000000002911 Rises=F Damp=F
 DIIS: error= 7.92D-07 at cycle  11 NSaved=  11.
 NSaved=11 IEnMin=11 EnMin= -268.372548684556     IErMin=11 ErrMin= 7.92D-07
 ErrMax= 7.92D-07  0.00D+00 EMaxC= 1.00D-01 BMatC= 5.07D-11 BMatP= 3.00D-09
 IDIUse=1 WtCom= 1.00D+00 WtEn= 0.00D+00
 Coeff-Com: -0.609D-05 0.158D-04-0.406D-04-0.912D-04-0.387D-03-0.700D-03
 Coeff-Com: -0.237D-02-0.263D-02 0.209D-01 0.547D-01 0.931D+00
 Coeff:     -0.609D-05 0.158D-04-0.406D-04-0.912D-04-0.387D-03-0.700D-03
 Coeff:     -0.237D-02-0.263D-02 0.209D-01 0.547D-01 0.931D+00
 Gap=     0.184 Goal=   None    Shift=    0.000
 RMSDP=8.62D-08 MaxDP=1.58D-06 DE=-2.91D-09 OVMax= 4.82D-06

 Cycle  12  Pass 1  IDiag  1:
 E= -268.372548684610     Delta-E=       -0.000000000054 Rises=F Damp=F
 DIIS: error= 5.18D-08 at cycle  12 NSaved=  12.
 NSaved=12 IEnMin=12 EnMin= -268.372548684610     IErMin=12 ErrMin= 5.18D-08
 ErrMax= 5.18D-08  0.00D+00 EMaxC= 1.00D-01 BMatC= 7.21D-13 BMatP= 5.07D-11
 IDIUse=1 WtCom= 1.00D+00 WtEn= 0.00D+00
 Coeff-Com: -0.148D-05 0.341D-05 0.140D-05 0.314D-05-0.206D-04-0.435D-04
 Coeff-Com: -0.436D-03-0.246D-02-0.809D-02-0.113D-01 0.101D+00 0.922D+00
 Coeff:     -0.148D-05 0.341D-05 0.140D-05 0.314D-05-0.206D-04-0.435D-04
 Coeff:     -0.436D-03-0.246D-02-0.809D-02-0.113D-01 0.101D+00 0.922D+00
 Gap=     0.184 Goal=   None    Shift=    0.000
 RMSDP=1.39D-08 MaxDP=2.57D-07 DE=-5.41D-11 OVMax= 6.96D-07

 Cycle  13  Pass 1  IDiag  1:
 E= -268.372548684612     Delta-E=       -0.000000000001 Rises=F Damp=F
 DIIS: error= 1.10D-08 at cycle  13 NSaved=  13.
 NSaved=13 IEnMin=13 EnMin= -268.372548684612     IErMin=13 ErrMin= 1.10D-08
 ErrMax= 1.10D-08  0.00D+00 EMaxC= 1.00D-01 BMatC= 2.68D-14 BMatP= 7.21D-13
 IDIUse=1 WtCom= 1.00D+00 WtEn= 0.00D+00
 Coeff-Com:  0.471D-08 0.454D-07 0.136D-05 0.287D-05 0.114D-04 0.125D-04
 Coeff-Com:  0.229D-04-0.275D-03-0.197D-02-0.389D-02-0.237D-01 0.128D+00
 Coeff-Com:  0.902D+00
 Coeff:      0.471D-08 0.454D-07 0.136D-05 0.287D-05 0.114D-04 0.125D-04
 Coeff:      0.229D-04-0.275D-03-0.197D-02-0.389D-02-0.237D-01 0.128D+00
 Coeff:      0.902D+00
 Gap=     0.184 Goal=   None    Shift=    0.000
 RMSDP=3.32D-09 MaxDP=3.82D-08 DE=-1.25D-12 OVMax= 1.78D-07

 SCF Done:  E(RB3LYP) =  -268.372548685     A.U. after   13 cycles
            NFock= 13  Conv=0.33D-08     -V/T= 2.0036
 KE= 2.674194160943D+02 PE=-9.894010639507D+02 EE= 2.733132564795D+02
 Leave Link  502 at Tue Oct 15 20:30:13 2019, MaxMem=   280000000 cpu:              63.2 elap:               3.3
 (Enter /home/soft/g16/l801.exe)
 DoSCS=F DFT=T ScalE2(SS,OS)=  1.000000  1.000000
 Range of M.O.s used for correlation:     1   128
 NBasis=   128 NAE=    20 NBE=    20 NFC=     0 NFV=     0
 NROrb=    128 NOA=    20 NOB=    20 NVA=   108 NVB=   108

 **** Warning!!: The largest alpha MO coefficient is  0.38229641D+02

 Leave Link  801 at Tue Oct 15 20:30:13 2019, MaxMem=   280000000 cpu:               0.7 elap:               0.0
 (Enter /home/soft/g16/l1101.exe)
 Using compressed storage, NAtomX=    11.
 Will process     12 centers per pass.
 Leave Link 1101 at Tue Oct 15 20:30:13 2019, MaxMem=   280000000 cpu:               3.4 elap:               0.2
 (Enter /home/soft/g16/l1102.exe)
 Symmetrizing basis deriv contribution to polar:
 IMax=3 JMax=2 DiffMx= 0.00D+00
 Leave Link 1102 at Tue Oct 15 20:30:13 2019, MaxMem=   280000000 cpu:               0.9 elap:               0.1
 (Enter /home/soft/g16/l1110.exe)
 Forming Gx(P) for the SCF density, NAtomX=    11.
 Integral derivatives from FoFJK, PRISM(SPDF).
 Do as many integral derivatives as possible in FoFJK.
 G2DrvN: MDV=     279999094.
 G2DrvN: will do    12 centers at a time, making    1 passes.
 Calling FoFCou, ICntrl=  3107 FMM=F I1Cent=   0 AccDes= 0.00D+00.
 FoFJK:  IHMeth= 1 ICntrl=    3107 DoSepK=F KAlg= 0 I1Cent=           0 FoldK=F
 IRaf=         0 NMat=       1 IRICut=       1 DoRegI=T DoRafI=F ISym2E= 0 IDoP0=0 IntGTp=1.
 FoFCou: FMM=F IPFlag=           0 FMFlag=      100000 FMFlg1=           0
         NFxFlg=           0 DoJE=F BraDBF=F KetDBF=F FulRan=T
         wScrn=  0.000000 ICntrl=      3107 IOpCl=  0 I1Cent=           0 NGrid=           0
         NMat0=    1 NMatS0=      1 NMatT0=    0 NMatD0=    1 NMtDS0=    0 NMtDT0=    0
 Symmetry not used in FoFCou.
 End of G2Drv F.D. properties file   721 does not exist.
 End of G2Drv F.D. properties file   722 does not exist.
 End of G2Drv F.D. properties file   788 does not exist.
 Leave Link 1110 at Tue Oct 15 20:30:17 2019, MaxMem=   280000000 cpu:              91.9 elap:               3.9
 (Enter /home/soft/g16/l1002.exe)
 Minotr:  Closed shell wavefunction.
          IDoAtm=11111111111
          Direct CPHF calculation.
          Differentiating once with respect to electric field.
                with respect to dipole field.
          Differentiating once with respect to nuclear coordinates.
          Requested convergence is 1.0D-08 RMS, and 1.0D-07 maximum.
          Secondary convergence is 1.0D-12 RMS, and 1.0D-12 maximum.
          NewPWx=T KeepS1=F KeepF1=F KeepIn=T MapXYZ=F SortEE=F KeepMc=T.
         3335 words used for storage of precomputed grid.
 Keep R1 ints in memory in canonical form, NReq=57016494.
 FoFCou: FMM=F IPFlag=           0 FMFlag=           0 FMFlg1=           0
         NFxFlg=           0 DoJE=F BraDBF=F KetDBF=F FulRan=T
         wScrn=  0.000000 ICntrl=       600 IOpCl=  0 I1Cent=           0 NGrid=           0
         NMat0=    1 NMatS0=   8256 NMatT0=    0 NMatD0=    1 NMtDS0=    0 NMtDT0=    0
 Symmetry not used in FoFCou.
 Two-electron integral symmetry not used.
          MDV=     280000000 using IRadAn=       1.
          Solving linear equations simultaneously, MaxMat=       0.
          There are    36 degrees of freedom in the 1st order CPHF.  IDoFFX=6 NUNeed=     3.
     33 vectors produced by pass  0 Test12= 6.00D-15 2.78D-09 XBig12= 8.61D+01 5.35D+00.
 AX will form    33 AO Fock derivatives at one time.
     33 vectors produced by pass  1 Test12= 6.00D-15 2.78D-09 XBig12= 1.46D+01 5.43D-01.
     33 vectors produced by pass  2 Test12= 6.00D-15 2.78D-09 XBig12= 1.47D-01 8.12D-02.
     33 vectors produced by pass  3 Test12= 6.00D-15 2.78D-09 XBig12= 6.02D-04 3.15D-03.
     33 vectors produced by pass  4 Test12= 6.00D-15 2.78D-09 XBig12= 9.23D-07 1.15D-04.
     28 vectors produced by pass  5 Test12= 6.00D-15 2.78D-09 XBig12= 9.77D-10 3.48D-06.
      3 vectors produced by pass  6 Test12= 6.00D-15 2.78D-09 XBig12= 8.19D-13 1.11D-07.
      2 vectors produced by pass  7 Test12= 6.00D-15 2.78D-09 XBig12= 7.14D-16 4.08D-09.
 InvSVY:  IOpt=1 It=  1 EMax= 8.88D-15
 Solved reduced A of dimension   198 with    36 vectors.
 FullF1:  Do perturbations      1 to       3.
 Isotropic polarizability for W=    0.000000       50.29 Bohr**3.
 End of Minotr F.D. properties file   721 does not exist.
 End of Minotr F.D. properties file   722 does not exist.
 End of Minotr F.D. properties file   788 does not exist.
 Leave Link 1002 at Tue Oct 15 20:30:23 2019, MaxMem=   280000000 cpu:             147.9 elap:               6.2
 (Enter /home/soft/g16/l601.exe)
 Copying SCF densities to generalized density rwf, IOpCl= 0 IROHF=0.

 **********************************************************************

            Population analysis using the SCF density.

 **********************************************************************

 Orbital symmetries:
       Occupied  (A) (A) (A) (A) (A) (A) (A) (A) (A) (A) (A) (A)
                 (A) (A) (A) (A) (A) (A) (A) (A)
       Virtual   (A) (A) (A) (A) (A) (A) (A) (A) (A) (A) (A) (A)
                 (A) (A) (A) (A) (A) (A) (A) (A) (A) (A) (A) (A)
                 (A) (A) (A) (A) (A) (A) (A) (A) (A) (A) (A) (A)
                 (A) (A) (A) (A) (A) (A) (A) (A) (A) (A) (A) (A)
                 (A) (A) (A) (A) (A) (A) (A) (A) (A) (A) (A) (A)
                 (A) (A) (A) (A) (A) (A) (A) (A) (A) (A) (A) (A)
                 (A) (A) (A) (A) (A) (A) (A) (A) (A) (A) (A) (A)
                 (A) (A) (A) (A) (A) (A) (A) (A) (A) (A) (A) (A)
                 (A) (A) (A) (A) (A) (A) (A) (A) (A) (A) (A) (A)
 The electronic state is 1-A.
 Alpha  occ. eigenvalues --  -19.16533 -19.10674 -10.28113 -10.26287 -10.19900
 Alpha  occ. eigenvalues --   -1.09559  -1.02067  -0.78577  -0.64466  -0.63879
 Alpha  occ. eigenvalues --   -0.54136  -0.52034  -0.47316  -0.45659  -0.43739
 Alpha  occ. eigenvalues --   -0.42398  -0.36919  -0.35560  -0.27187  -0.25781
 Alpha virt. eigenvalues --   -0.07359   0.00052   0.01590   0.01851   0.03355
 Alpha virt. eigenvalues --    0.04918   0.06028   0.06669   0.07055   0.07883
 Alpha virt. eigenvalues --    0.08480   0.11290   0.12242   0.14157   0.16295
 Alpha virt. eigenvalues --    0.16585   0.19488   0.19801   0.20372   0.21588
 Alpha virt. eigenvalues --    0.23177   0.23635   0.25411   0.27161   0.28425
 Alpha virt. eigenvalues --    0.29246   0.30207   0.31414   0.33278   0.34522
 Alpha virt. eigenvalues --    0.41093   0.42693   0.45017   0.47524   0.48752
 Alpha virt. eigenvalues --    0.50282   0.52971   0.57370   0.60798   0.64040
 Alpha virt. eigenvalues --    0.64402   0.65317   0.66807   0.68581   0.70199
 Alpha virt. eigenvalues --    0.71611   0.79477   0.87629   0.93159   1.02056
 Alpha virt. eigenvalues --    1.04254   1.10722   1.12488   1.13833   1.17361
 Alpha virt. eigenvalues --    1.22222   1.31278   1.32183   1.36166   1.42130
 Alpha virt. eigenvalues --    1.48603   1.52039   1.57584   1.58804   1.61986
 Alpha virt. eigenvalues --    1.68108   1.73796   1.76060   1.88430   1.91192
 Alpha virt. eigenvalues --    1.99907   2.11314   2.37153   2.38106   2.42203
 Alpha virt. eigenvalues --    2.48506   2.50887   2.58486   2.63234   2.68203
 Alpha virt. eigenvalues --    2.80510   2.86023   3.00001   3.02261   3.08578
 Alpha virt. eigenvalues --    3.09328   3.12336   3.17072   3.18116   3.20512
 Alpha virt. eigenvalues --    3.26617   3.28918   3.33178   3.39377   3.61069
 Alpha virt. eigenvalues --    3.91279   4.00540   4.96884   5.04591   5.05677
 Alpha virt. eigenvalues --    5.11737   5.55255   5.58580  23.46885  23.61563
 Alpha virt. eigenvalues --   23.94402  49.86756  49.90686
          Condensed to atoms (all electrons):
               1          2          3          4          5          6
     1  C    5.249660   0.362173   0.344763   0.177938  -0.054371  -0.049865
     2  H    0.362173   0.480058  -0.059949  -0.000365   0.002022  -0.001842
     3  O    0.344763  -0.059949   8.011623  -0.116538  -0.008456   0.011028
     4  C    0.177938  -0.000365  -0.116538   6.072913   0.416120   0.365876
     5  H   -0.054371   0.002022  -0.008456   0.416120   0.391835  -0.022917
     6  H   -0.049865  -0.001842   0.011028   0.365876  -0.022917   0.439456
     7  C    0.043815  -0.012977  -0.036055  -0.091013  -0.023597   0.000605
     8  H    0.032498  -0.000353   0.006012  -0.080117  -0.010943  -0.001028
     9  H   -0.039895  -0.000755  -0.003541  -0.025445   0.004033   0.002460
    10  O   -0.057558  -0.002574   0.014022  -0.114899  -0.002666   0.007400
    11  H   -0.039349   0.004013   0.194702   0.032040   0.000630  -0.001733
               7          8          9         10         11
     1  C    0.043815   0.032498  -0.039895  -0.057558  -0.039349
     2  H   -0.012977  -0.000353  -0.000755  -0.002574   0.004013
     3  O   -0.036055   0.006012  -0.003541   0.014022   0.194702
     4  C   -0.091013  -0.080117  -0.025445  -0.114899   0.032040
     5  H   -0.023597  -0.010943   0.004033  -0.002666   0.000630
     6  H    0.000605  -0.001028   0.002460   0.007400  -0.001733
     7  C    5.441595   0.395781   0.395781   0.290675  -0.022969
     8  H    0.395781   0.567740  -0.081359  -0.061627  -0.005014
     9  H    0.395781  -0.081359   0.580710  -0.064714   0.006859
    10  O    0.290675  -0.061627  -0.064714   8.278449   0.096843
    11  H   -0.022969  -0.005014   0.006859   0.096843   0.258749
 Mulliken charges:
               1
     1  C    0.030192
     2  H    0.230550
     3  O   -0.357612
     4  C   -0.636511
     5  H    0.308309
     6  H    0.250560
     7  C   -0.381640
     8  H    0.238409
     9  H    0.225866
    10  O   -0.383351
    11  H    0.475228
 Sum of Mulliken charges =  -0.00000
 Mulliken charges with hydrogens summed into heavy atoms:
               1
     1  C    0.260742
     3  O    0.117616
     4  C   -0.077641
     7  C    0.082634
    10  O   -0.383351
 APT charges:
               1
     1  C    0.604838
     2  H    0.046654
     3  O   -0.636731
     4  C   -0.439153
     5  H    0.075654
     6  H    0.034332
     7  C    0.915242
     8  H   -0.071456
     9  H   -0.118923
    10  O   -0.800819
    11  H    0.390362
 Sum of APT charges =  -0.00000
 APT charges with hydrogens summed into heavy atoms:
               1
     1  C    0.651491
     3  O   -0.246370
     4  C   -0.329166
     7  C    0.724863
    10  O   -0.800819
 Electronic spatial extent (au):  <R**2>=            398.9157
 Charge=              0.0000 electrons
 Dipole moment (field-independent basis, Debye):
    X=             -1.0165    Y=              3.5126    Z=              0.8175  Tot=              3.7469
 Quadrupole moment (field-independent basis, Debye-Ang):
   XX=            -33.0232   YY=            -32.3034   ZZ=            -29.8043
   XY=              1.1692   XZ=             -0.6832   YZ=              0.0781
 Traceless Quadrupole moment (field-independent basis, Debye-Ang):
   XX=             -1.3129   YY=             -0.5931   ZZ=              1.9060
   XY=              1.1692   XZ=             -0.6832   YZ=              0.0781
 Octapole moment (field-independent basis, Debye-Ang**2):
  XXX=             -3.5126  YYY=             -1.2194  ZZZ=             -0.2896  XYY=              0.8910
  XXY=              7.0609  XXZ=              4.2255  XZZ=             -0.7153  YZZ=             -0.7582
  YYZ=             -0.7641  XYZ=             -1.6935
 Hexadecapole moment (field-independent basis, Debye-Ang**3):
 XXXX=           -270.9873 YYYY=           -173.9120 ZZZZ=            -58.3402 XXXY=              7.4151
 XXXZ=             -5.5703 YYYX=             -0.7198 YYYZ=              3.5877 ZZZX=             -1.5612
 ZZZY=             -0.4141 XXYY=            -84.7792 XXZZ=            -54.4076 YYZZ=            -41.2153
 XXYZ=              0.4401 YYXZ=             -1.7770 ZZXY=              1.2725
 N-N= 1.802958426922D+02 E-N=-9.894010634945D+02  KE= 2.674194160943D+02
  Exact polarizability:  61.653  -0.364  50.748  -1.280   0.062  38.460
 Approx polarizability:  99.934  -0.791  79.805  -3.229   1.840  52.860
 No NMR shielding tensors so no spin-rotation constants.
 Leave Link  601 at Tue Oct 15 20:30:24 2019, MaxMem=   280000000 cpu:               3.0 elap:               0.2
 (Enter /home/soft/g16/l701.exe)
 ... and contract with generalized density number  0.
 Compute integral second derivatives.
 Leave Link  701 at Tue Oct 15 20:30:24 2019, MaxMem=   280000000 cpu:               4.5 elap:               0.2
 (Enter /home/soft/g16/l702.exe)
 L702 exits ... SP integral derivatives will be done elsewhere.
 Leave Link  702 at Tue Oct 15 20:30:24 2019, MaxMem=   280000000 cpu:               0.4 elap:               0.0
 (Enter /home/soft/g16/l703.exe)
 Integral derivatives from FoFJK, PRISM(SPDF).
 Compute integral second derivatives, UseDBF=F ICtDFT=           0.
 Calling FoFJK, ICntrl=    100127 FMM=F ISym2X=0 I1Cent= 0 IOpClX= 0 NMat=1 NMatS=1 NMatT=0.
 FoFJK:  IHMeth= 1 ICntrl=  100127 DoSepK=F KAlg= 0 I1Cent=           0 FoldK=F
 IRaf=         0 NMat=       1 IRICut=       1 DoRegI=T DoRafI=F ISym2E= 0 IDoP0=0 IntGTp=1.
 FoFCou: FMM=F IPFlag=           0 FMFlag=      100000 FMFlg1=         800
         NFxFlg=           0 DoJE=F BraDBF=F KetDBF=F FulRan=T
         wScrn=  0.000000 ICntrl=    100127 IOpCl=  0 I1Cent=           0 NGrid=           0
         NMat0=    1 NMatS0=      1 NMatT0=    0 NMatD0=    1 NMtDS0=    0 NMtDT0=    0
 Symmetry not used in FoFCou.
 Leave Link  703 at Tue Oct 15 20:30:30 2019, MaxMem=   280000000 cpu:             152.0 elap:               6.4
 (Enter /home/soft/g16/l716.exe)
 Dipole        =-3.99932291D-01 1.38194512D+00 3.21619918D-01
 Polarizability= 6.16528536D+01-3.63615053D-01 5.07477934D+01
                -1.28033017D+00 6.18117806D-02 3.84600006D+01
 ***** Axes restored to original set *****
 -------------------------------------------------------------------
 Center     Atomic                   Forces (Hartrees/Bohr)
 Number     Number              X              Y              Z
 -------------------------------------------------------------------
      1        6           0.000010629    0.000005593    0.000026690
      2        1           0.000003259   -0.000003955    0.000004729
      3        8           0.000029659    0.000039176   -0.000057417
      4        6          -0.000033888    0.000021335   -0.000012192
      5        1           0.000002136   -0.000004948    0.000002475
      6        1          -0.000001085    0.000001098   -0.000007798
      7        6           0.000053805    0.000002294    0.000022208
      8        1          -0.000004749    0.000008769    0.000001307
      9        1          -0.000006240    0.000002354   -0.000000242
     10        8          -0.000026439    0.000025852   -0.000025122
     11        1          -0.000027087   -0.000097566    0.000045362
 -------------------------------------------------------------------
 Cartesian Forces:  Max     0.000097566 RMS     0.000028239
 Force constants in Cartesian coordinates: 
                1             2             3             4             5 
      1  0.452340D+00
      2  0.279817D-01  0.711047D+00
      3 -0.267089D+00  0.413547D-01  0.475896D+00
      4 -0.152536D+00  0.158265D-01  0.121686D+00  0.142418D+00
      5  0.163856D-01 -0.608688D-01 -0.273565D-01 -0.294567D-01  0.762926D-01
      6  0.129545D+00 -0.286271D-01 -0.209938D+00 -0.147990D+00  0.419591D-01
      7 -0.105338D+00  0.184115D-01  0.366649D-01  0.510627D-02  0.293087D-01
      8  0.280425D-01 -0.399919D+00 -0.912640D-01  0.119315D-01 -0.201481D-01
      9  0.332158D-01 -0.694740D-01 -0.106114D+00  0.563837D-02 -0.297946D-01
     10 -0.145441D+00 -0.609267D-01  0.993040D-01  0.349631D-02 -0.102817D-01
     11 -0.120396D+00 -0.227091D+00  0.799458D-01  0.350909D-02  0.777095D-02
     12  0.103209D+00  0.800758D-01 -0.151831D+00  0.192363D-01  0.183112D-01
     13 -0.112473D-01 -0.514414D-02  0.251406D-01  0.193495D-03 -0.420542D-02
     14 -0.417653D-02  0.754886D-02  0.223343D-01 -0.304422D-02 -0.189298D-02
     15  0.903070D-03 -0.614061D-02 -0.851426D-02  0.126995D-02  0.834949D-03
     16  0.446403D-02 -0.211878D-01 -0.133596D-01 -0.164788D-02  0.113057D-02
     17  0.870429D-02 -0.169388D-01 -0.949250D-02 -0.284268D-03  0.610043D-03
     18 -0.564710D-02  0.130864D-01  0.262922D-02 -0.155687D-02 -0.204039D-04
     19 -0.371702D-01 -0.542675D-01  0.143370D-02  0.171507D-03  0.117950D-03
     20  0.253330D-01  0.713976D-01 -0.478621D-02  0.352775D-02 -0.143515D-02
     21 -0.202994D-02 -0.466676D-03 -0.472660D-02 -0.772363D-03 -0.516165D-03
     22  0.225108D-02  0.826411D-02 -0.359147D-03  0.116150D-02  0.643749D-04
     23 -0.151826D-02 -0.476251D-02 -0.813225D-03 -0.155247D-03  0.156318D-03
     24 -0.661359D-03  0.529415D-02 -0.493922D-03  0.869799D-03 -0.801417D-04
     25  0.131461D-02  0.863060D-02 -0.599736D-02  0.253465D-04 -0.101295D-03
     26 -0.175447D-02 -0.921214D-03  0.279618D-04  0.325505D-03  0.178823D-03
     27  0.961020D-03  0.159668D-02  0.117247D-04 -0.142818D-03  0.897228D-04
     28 -0.131186D-01 -0.318521D-01 -0.147713D-02  0.838142D-03  0.218376D-02
     29 -0.153528D-01 -0.684295D-01  0.345286D-02 -0.247574D-02  0.206939D-02
     30 -0.185700D-03 -0.208071D-01  0.444011D-02 -0.116970D-02  0.102601D-02
     31  0.448212D-02  0.942638D-01  0.405213D-02  0.773937D-03 -0.514588D-02
     32  0.367511D-01 -0.110623D-01 -0.134032D-01  0.295885D-03 -0.273318D-02
     33  0.777870D-02 -0.158923D-01 -0.135846D-02  0.293131D-02 -0.445322D-02
                6             7             8             9            10 
      6  0.208976D+00
      7  0.859638D-02  0.248843D+00
      8 -0.125223D-01 -0.606779D-02  0.530108D+00
      9  0.132691D-02 -0.521470D-01  0.100328D+00  0.957782D-01
     10  0.100029D-01  0.354931D-01 -0.514872D-01 -0.263201D-01  0.205033D+00
     11 -0.384301D-02 -0.178729D-01 -0.617062D-01  0.559512D-02  0.106679D+00
     12 -0.165587D-02 -0.340269D-02 -0.100686D-01  0.194060D-01 -0.211100D+00
     13  0.379650D-02 -0.353257D-02  0.836108D-02 -0.284247D-02 -0.371226D-01
     14 -0.752845D-04  0.693199D-03 -0.449643D-03 -0.226140D-02  0.247434D-02
     15  0.190541D-02 -0.257961D-02  0.190452D-02  0.175269D-02  0.892415D-01
     16 -0.222543D-02  0.571174D-03 -0.408150D-02  0.852430D-02 -0.408544D-01
     17  0.643148D-03 -0.376330D-02 -0.223956D-02  0.191144D-02  0.258969D-01
     18 -0.833331D-03  0.399310D-02  0.315796D-02  0.419284D-02  0.197772D-01
     19  0.962782D-03 -0.304004D-01  0.350885D-01  0.124615D-01  0.582922D-01
     20  0.285892D-02  0.451080D-01 -0.557507D-01 -0.229535D-01 -0.877134D-01
     21 -0.154516D-02  0.826752D-02  0.102400D-02  0.375364D-02  0.820195D-02
     22  0.951389D-03  0.536228D-02 -0.539615D-02 -0.298112D-02 -0.239795D-01
     23 -0.160043D-03 -0.502140D-02  0.546885D-02  0.137371D-02  0.754734D-02
     24  0.106521D-02  0.238774D-02 -0.369108D-02 -0.209886D-02 -0.113657D-01
     25  0.356350D-03  0.111219D-02 -0.501429D-02 -0.704161D-03 -0.146729D-01
     26  0.196506D-03 -0.705207D-03  0.125550D-02  0.538227D-03  0.913218D-03
     27  0.390857D-03 -0.159619D-02 -0.882682D-03 -0.847766D-03 -0.401155D-02
     28  0.142697D-02 -0.905211D-01  0.314671D-01  0.118494D-01  0.917406D-02
     29 -0.728568D-03 -0.592518D-01  0.530230D-01  0.163104D-01  0.712757D-01
     30  0.262038D-03 -0.248366D-01  0.114154D-01  0.123609D-01  0.197562D-01
     31 -0.542219D-02 -0.666953D-01 -0.428438D-01  0.133054D-01 -0.494179D-01
     32  0.298572D-03 -0.839036D-03 -0.496423D-01 -0.157335D-02 -0.437806D-02
     33  0.458328D-04  0.246524D-01  0.598920D-03 -0.295102D-01  0.651387D-02
               11            12            13            14            15 
     11  0.673943D+00
     12  0.365724D-01  0.550612D+00
     13  0.420899D-02  0.779494D-01  0.617501D-01
     14 -0.593174D-01 -0.330144D-01 -0.647941D-02  0.544515D-01
     15 -0.300812D-01 -0.313058D+00 -0.871562D-01  0.316928D-01  0.328100D+00
     16  0.356743D-01  0.234170D-01 -0.146246D-02  0.714745D-02  0.655105D-03
     17 -0.303833D+00 -0.844927D-01 -0.307887D-03  0.127306D-02  0.788214D-03
     18 -0.864392D-01 -0.792622D-01  0.224671D-02 -0.258659D-01 -0.359056D-02
     19 -0.191251D-01 -0.210453D-02 -0.138220D-01  0.425767D-02 -0.526392D-02
     20 -0.195584D-01 -0.120833D-01  0.904213D-02 -0.208908D-02  0.414177D-02
     21 -0.111164D-01 -0.247990D-01 -0.171372D-01  0.462635D-02 -0.846656D-02
     22 -0.383696D-02  0.762044D-03  0.669185D-03 -0.993820D-03  0.429881D-03
     23  0.363850D-02  0.360912D-03  0.120314D-03  0.230841D-03 -0.751968D-03
     24 -0.228160D-02 -0.879513D-03 -0.137779D-02 -0.251802D-03  0.121522D-02
     25  0.537020D-03 -0.128291D-01 -0.149593D-02  0.574792D-03 -0.822031D-03
     26  0.144525D-02  0.536886D-02  0.136746D-02 -0.360040D-03  0.264942D-03
     27  0.138466D-02 -0.187963D-02  0.321724D-03  0.270787D-03  0.419244D-03
     28  0.203204D-01  0.357358D-02  0.114969D-03  0.827019D-03  0.341629D-03
     29 -0.139226D-01  0.729873D-03 -0.793830D-02  0.119360D-02 -0.362365D-02
     30  0.789622D-02  0.212002D-02 -0.332039D-03  0.117241D-02  0.907962D-03
     31 -0.969823D-02  0.128919D-02  0.595505D-02 -0.128049D-02  0.298070D-02
     32 -0.136974D-02 -0.175999D-02  0.975189D-03 -0.588738D-03  0.970181D-03
     33  0.236722D-02  0.122698D-02 -0.609146D-03  0.137215D-02 -0.671147D-03
               16            17            18            19            20 
     16  0.389099D-01
     17 -0.292915D-01  0.321772D+00
     18 -0.203207D-01  0.911072D-01  0.763393D-01
     19  0.455923D-02 -0.158707D-02  0.200627D-02  0.219557D+00
     20  0.862613D-02 -0.137302D-02  0.432305D-02  0.196463D+00  0.598345D+00
     21  0.609071D-02 -0.126166D-02  0.172466D-02 -0.953842D-01  0.782606D-01
     22  0.193704D-03  0.311370D-03  0.380899D-03 -0.113361D+00 -0.102512D+00
     23 -0.571239D-03  0.117702D-03 -0.221610D-03 -0.905177D-01 -0.142837D+00
     24  0.701486D-03 -0.175138D-04  0.105101D-03  0.815129D-01  0.757464D-01
     25  0.477031D-03  0.261364D-03  0.232606D-03 -0.415591D-01 -0.155113D-01
     26 -0.516129D-03  0.147094D-04 -0.312968D-03 -0.363783D-02 -0.573968D-01
     27 -0.689098D-03  0.430777D-03 -0.388998D-03  0.223680D-01 -0.183882D-01
     28 -0.407911D-02  0.108198D-02 -0.193435D-02 -0.885372D-01  0.403457D-02
     29  0.350720D-02 -0.404259D-03  0.141130D-02 -0.546786D-01 -0.370281D+00
     30 -0.229006D-02  0.585352D-03  0.745890D-04 -0.986642D-02 -0.111440D+00
     31 -0.113115D-02 -0.102184D-02  0.822207D-03  0.422703D-01 -0.863987D-01
     32 -0.437450D-03  0.100037D-02 -0.225745D-03 -0.121138D-01 -0.190213D-01
     33 -0.503691D-03 -0.201750D-03 -0.990687D-03 -0.812619D-02  0.432078D-02
               21            22            23            24            25 
     21  0.587698D+00
     22  0.791926D-01  0.119296D+00
     23  0.811432D-01  0.102960D+00  0.178901D+00
     24 -0.127213D+00 -0.779911D-01 -0.855887D-01  0.122569D+00
     25  0.176791D-01  0.514195D-02 -0.471025D-03  0.187723D-01  0.407324D-01
     26 -0.165669D-01 -0.126902D-02  0.480957D-02  0.175410D-01  0.187381D-02
     27 -0.286356D+00  0.783568D-03 -0.515170D-03 -0.130846D-01 -0.198647D-01
     28  0.776161D-02  0.967088D-02 -0.224563D-01 -0.923530D-02  0.127188D-01
     29 -0.133008D+00  0.336224D-02 -0.441121D-01 -0.497293D-02  0.926771D-02
     30 -0.138677D+00 -0.194807D-02  0.342499D-02  0.184852D-01  0.186616D-02
     31 -0.118698D-01 -0.640618D-02  0.100838D-01 -0.361306D-02 -0.379440D-02
     32 -0.211879D-02 -0.954277D-03 -0.161120D-02 -0.169778D-02 -0.474005D-04
     33 -0.139341D-02  0.779068D-03  0.174783D-02  0.329226D-03  0.131084D-02
               26            27            28            29            30 
     26  0.679252D-01
     27  0.381501D-01  0.307290D+00
     28  0.321053D-04 -0.384930D-03  0.125992D+00
     29 -0.167995D-01 -0.219849D-01 -0.181818D-01  0.471974D+00
     30 -0.439491D-01 -0.568951D-02 -0.109170D-01  0.150718D+00  0.123052D+00
     31  0.337056D-02  0.225494D-02  0.377469D-01  0.704663D-01  0.299231D-01
     32 -0.151466D-03 -0.151698D-03  0.125433D-01 -0.143109D-01 -0.417665D-04
     33 -0.125856D-02  0.133856D-03 -0.100454D-02 -0.830464D-02 -0.173364D-01
               31            32            33 
     31  0.362167D-01
     32 -0.317954D-01  0.994907D-01
     33 -0.337227D-01  0.197036D-01  0.495244D-01
 FormGI is forming the generalized inverse of G from B-inverse, IUseBI=4.
 Force constants in internal coordinates: 
                1             2             3             4             5 
      1  0.337386D+00
      2  0.224429D-01  0.570042D+00
      3  0.529659D-02  0.873395D-01  0.465251D+00
      4 -0.343959D-02  0.288005D-01 -0.190502D-01  0.255562D+00
      5 -0.451856D-03 -0.569341D-04  0.404607D-02 -0.487093D-03  0.357401D+00
      6  0.893217D-03  0.271075D-03  0.367160D-02 -0.276898D-03  0.140725D-02
      7 -0.109981D-03  0.421194D-03 -0.231944D-03  0.335285D-02  0.115123D-02
      8  0.385989D-03  0.355971D-02 -0.247865D-03  0.473416D-02 -0.332718D-03
      9 -0.260267D-03  0.427766D-01 -0.470551D-01 -0.587448D-02 -0.370454D-04
     10  0.227344D-02 -0.713005D-01  0.121872D-01  0.135778D+00  0.933115D-03
     11  0.383328D-02  0.216806D-02 -0.444790D-01 -0.115500D-01  0.678754D-03
     12  0.659486D-02 -0.568780D-01 -0.158124D-01 -0.460234D-02  0.425850D-02
     13 -0.101741D-01  0.547065D-01  0.650247D-01  0.187954D-01 -0.481902D-02
     14  0.120036D-02  0.484228D-01  0.560856D-01  0.207900D+00  0.462639D-03
     15  0.370864D-02 -0.674087D-02  0.168036D-01 -0.141063D-02  0.891028D-02
     16 -0.159249D-02 -0.219818D-02  0.121532D-01 -0.349797D-02 -0.912433D-02
     17 -0.113699D-02 -0.855232D-03 -0.195251D-01  0.888015D-03  0.329023D-02
     18 -0.197947D-03 -0.471641D-02  0.432201D-02 -0.957674D-02  0.384022D-03
     19  0.290916D-03 -0.149869D-03  0.421236D-02  0.361503D-02 -0.726801D-03
     20 -0.268191D-03  0.285393D-03 -0.570699D-03 -0.291976D-02  0.679974D-03
     21  0.247346D-02 -0.124079D+00 -0.277472D-01  0.114447D+00  0.271249D-02
     22  0.180150D-03 -0.692893D-01  0.133444D-01  0.183770D+00  0.176497D-02
     23 -0.270731D-02 -0.261506D-01  0.126784D-01  0.231724D-01 -0.167317D-02
     24 -0.350086D-03 -0.323075D-01  0.402972D-01  0.391997D-01 -0.459472D-03
     25 -0.262838D-03  0.654567D-02  0.330001D-02  0.142004D-01 -0.345630D-02
     26  0.108687D-02 -0.109954D-01  0.134266D-01  0.741374D-02  0.306619D-02
     27 -0.234747D-02  0.631989D-02 -0.237468D-01 -0.226033D-02 -0.431293D-02
     28 -0.997758D-03 -0.112212D-01 -0.136202D-01 -0.904700D-02  0.220956D-02
     29  0.113692D-02 -0.748859D-01  0.422281D-01  0.708553D-01  0.905220D-03
     30  0.176890D-03  0.747996D-02 -0.143152D-01  0.130721D-01 -0.278665D-03
     31 -0.128504D-03 -0.557446D-02  0.234834D-01 -0.139352D-01  0.167295D-02
     32  0.235220D-03  0.381255D-02  0.850596D-02  0.439661D-02  0.972755D-03
     33  0.472842D-03 -0.592280D-01  0.343071D-01  0.275356D-01  0.211721D-02
                6             7             8             9            10 
      6  0.355558D+00
      7  0.319619D-03  0.322664D+00
      8  0.343631D-03  0.567576D-02  0.314446D+00
      9 -0.117366D-02  0.244499D-01  0.252579D-01  0.527955D+00
     10 -0.214388D-03 -0.268643D-02  0.788661D-03  0.794305D-01  0.783775D-01
     11 -0.333171D-02 -0.179825D-02 -0.274088D-02 -0.107689D-01  0.202709D-01
     12 -0.397359D-02 -0.219641D-02 -0.265226D-02 -0.250230D-02  0.181191D-01
     13  0.751859D-02  0.424004D-02  0.581689D-02  0.174731D-01 -0.396397D-01
     14  0.312009D-02  0.100932D-01  0.158226D-01  0.125433D+00  0.116914D-01
     15 -0.939075D-02  0.715201D-03  0.782105D-03  0.218181D-02 -0.834526D-02
     16  0.691774D-02 -0.687351D-03 -0.572783D-03  0.638276D-02  0.315321D-02
     17  0.420400D-02  0.100177D-03 -0.275773D-03 -0.127433D-02 -0.393305D-03
     18 -0.573899D-04  0.916497D-02  0.916855D-02 -0.266419D-01 -0.722774D-02
     19 -0.210662D-04  0.471459D-03 -0.856448D-02  0.174091D-01 -0.140756D-02
     20 -0.127027D-03 -0.768048D-02  0.289142D-02  0.217036D-01 -0.734165D-02
     21 -0.123755D-02  0.836371D-03  0.466687D-02  0.183785D+00  0.110005D+00
     22  0.187542D-02  0.542451D-02  0.109655D-01  0.137591D+00  0.874876D-01
     23 -0.100753D-02  0.647420D-05  0.118287D-02  0.411999D-01  0.235207D-01
     24 -0.130810D-03  0.129477D-02  0.353521D-02  0.672846D-01  0.178333D-01
     25 -0.232744D-02  0.283783D-04  0.718788D-03  0.979932D-02  0.111398D-01
     26  0.211125D-02  0.287954D-03  0.510739D-03  0.222165D-01  0.116349D-02
     27 -0.341192D-02 -0.142631D-02 -0.183009D-02 -0.171436D-01  0.174147D-01
     28  0.102677D-02 -0.116673D-02 -0.203814D-02 -0.472638D-02  0.743831D-02
     29 -0.112179D-02  0.139141D-02  0.292445D-02  0.119424D+00  0.373933D-01
     30  0.334773D-03 -0.362621D-02 -0.271122D-02 -0.251083D-01  0.260530D-01
     31 -0.147891D-03  0.270785D-02  0.488922D-02  0.612115D-02 -0.235776D-01
     32  0.219120D-03 -0.381309D-02 -0.418552D-02 -0.565676D-02  0.592841D-02
     33 -0.146730D-02  0.112297D-02  0.634139D-03  0.806494D-01  0.194697D-01
               11            12            13            14            15 
     11  0.138366D+00
     12 -0.128136D-01  0.120417D+00
     13 -0.128049D+00 -0.108270D+00  0.240647D+00
     14 -0.612236D-01 -0.643177D-01  0.133895D+00  0.710835D+00
     15  0.111565D-02  0.119663D-01 -0.144580D-01 -0.139400D-01  0.953853D-01
     16  0.179542D-02 -0.449147D-02  0.207275D-02 -0.286266D-01 -0.410721D-01
     17  0.293150D-02 -0.132962D-02 -0.178910D-02  0.503782D-02 -0.386072D-01
     18  0.357587D-02  0.292482D-02 -0.723056D-02 -0.341150D-01  0.591747D-03
     19  0.920553D-03  0.199449D-02 -0.262312D-02 -0.280058D-02 -0.136437D-02
     20 -0.138046D-02 -0.420548D-02  0.449739D-02 -0.760431D-02  0.171516D-02
     21  0.466956D-01  0.594701D-01 -0.104935D+00  0.101329D+00 -0.226756D-01
     22 -0.130651D-01 -0.481926D-02  0.217340D-01  0.363979D+00 -0.129100D-01
     23  0.411209D-02  0.146783D-01 -0.171206D-01  0.322551D-01 -0.204144D-01
     24 -0.114709D-01  0.233755D-01 -0.299291D-02  0.772491D-01 -0.277763D-01
     25 -0.435010D-02 -0.301902D-02  0.133782D-01  0.531310D-01 -0.181938D-01
     26  0.691691D-02  0.737334D-02 -0.121958D-01 -0.113002D-01 -0.328970D-02
     27 -0.185595D-02  0.279877D-02 -0.245545D-02  0.360973D-02 -0.911843D-02
     28  0.941106D-02  0.131911D-01 -0.280295D-01 -0.608215D-01  0.578570D-02
     29  0.321562D-01  0.644412D-01 -0.871042D-01  0.504739D-01 -0.505329D-01
     30 -0.540573D-02 -0.198211D-02  0.972059D-02  0.727315D-01 -0.100719D-02
     31  0.830296D-02  0.769152D-02 -0.169791D-01 -0.800647D-01  0.144799D-02
     32  0.178459D-02  0.544997D-02 -0.538846D-02  0.705504D-02 -0.343448D-03
     33  0.365577D-01  0.600428D-01 -0.904644D-01 -0.389919D-01 -0.357407D-01
               16            17            18            19            20 
     16  0.966242D-01
     17 -0.404939D-01  0.670042D-01
     18 -0.386762D-03 -0.856933D-04  0.783513D-01
     19  0.504151D-03 -0.823820D-04 -0.358056D-01  0.955934D-01
     20 -0.728404D-03  0.203630D-04 -0.416441D-01 -0.695712D-01  0.135330D+00
     21  0.104118D-01  0.819543D-03 -0.251156D-01 -0.805729D-03 -0.233560D-01
     22 -0.113214D-01  0.274942D-02 -0.297797D-01 -0.303650D-02 -0.153150D-01
     23  0.463569D-02 -0.381451D-03 -0.629262D-02  0.506779D-02 -0.113964D-01
     24  0.241945D-03 -0.167262D-02 -0.105350D-01  0.713331D-02 -0.187258D-01
     25 -0.306676D-02 -0.142104D-02 -0.240418D-02  0.288469D-02 -0.612967D-02
     26  0.992688D-02 -0.454359D-03 -0.222201D-02  0.119578D-02 -0.434741D-02
     27  0.907362D-03 -0.472104D-03  0.210253D-02  0.843097D-03  0.127475D-02
     28  0.139010D-01  0.494576D-03  0.228470D-02 -0.845818D-03  0.305701D-02
     29  0.114362D-01  0.661275D-04 -0.158735D-01  0.214843D-01 -0.476925D-01
     30  0.793962D-03  0.267314D-03  0.875801D-02 -0.185497D-01 -0.106900D-01
     31 -0.127165D-02 -0.886058D-03  0.152727D-01 -0.725823D-02  0.361467D-02
     32 -0.107300D-03 -0.606291D-03 -0.135786D-01  0.213421D-01 -0.221071D-01
     33  0.112386D-01 -0.587401D-03 -0.857594D-02  0.234978D-01 -0.439860D-01
               21            22            23            24            25 
     21  0.587536D+00
     22  0.300401D+00  0.434489D+00
     23  0.850131D-01  0.458865D-01  0.788132D-01
     24  0.997222D-01  0.694757D-01  0.909690D-01  0.149524D+00
     25  0.395117D-01  0.353334D-01  0.403481D-01  0.778350D-01  0.534852D-01
     26  0.196058D-01 -0.159768D-02  0.117393D-01  0.258109D-01  0.130471D-01
     27  0.265499D-01  0.109750D-01  0.287901D-01  0.195418D-01  0.138233D-01
     28  0.664405D-02 -0.259560D-01  0.181275D-03 -0.324822D-01 -0.266148D-01
     29  0.227519D+00  0.119267D+00  0.154276D+00  0.221425D+00  0.106794D+00
     30  0.791560D-01  0.783549D-01  0.183142D-01  0.327379D-01  0.795269D-02
     31 -0.790368D-01 -0.758908D-01 -0.844830D-02 -0.137276D-01 -0.176068D-02
     32  0.129415D-01  0.158021D-01  0.150340D-01  0.272758D-01  0.860191D-02
     33  0.141412D+00  0.354848D-01  0.107782D+00  0.153351D+00  0.727805D-01
               26            27            28            29            30 
     26  0.237814D-01
     27 -0.163582D-02  0.241101D-01
     28  0.909840D-02  0.865096D-02  0.443641D-01
     29  0.380246D-01  0.401744D-01 -0.285952D-01  0.494137D+00
     30  0.813592D-02 -0.706425D-02 -0.688102D-02  0.591627D-01  0.388938D-01
     31 -0.330414D-02  0.396506D-02  0.242160D-02  0.228018D-01 -0.162884D-01
     32  0.653806D-02 -0.389932D-02 -0.596318D-02  0.992801D-01  0.152929D-01
     33  0.283612D-01  0.281141D-01 -0.163052D-01  0.400446D+00  0.375589D-01
               31            32            33 
     31  0.518488D-01
     32  0.268987D-01  0.557638D-01
     33  0.532474D-01  0.105186D+00  0.364176D+00
 Leave Link  716 at Tue Oct 15 20:30:30 2019, MaxMem=   280000000 cpu:               1.1 elap:               0.1
 (Enter /home/soft/g16/l103.exe)

 GradGradGradGradGradGradGradGradGradGradGradGradGradGradGradGradGradGrad
 Berny optimization.
 Red2BG is reusing G-inverse.
 Internal  Forces:  Max     0.000106379 RMS     0.000030233
 Search for a saddle point.
 Step number   1 out of a maximum of   43
 All quantities printed in internal units (Hartrees-Bohrs-Radians)
 Swapping is turned off.
 Second derivative matrix not updated -- analytic derivatives used.
 ITU=  0
     Eigenvalues ---   -0.08917   0.00380   0.01045   0.02022   0.02679
     Eigenvalues ---    0.04383   0.05371   0.08423   0.10541   0.11747
     Eigenvalues ---    0.11840   0.12413   0.14378   0.18584   0.21566
     Eigenvalues ---    0.23121   0.31157   0.32148   0.33445   0.35618
     Eigenvalues ---    0.35833   0.40542   0.41992   0.54691   0.69477
     Eigenvalues ---    1.04474   1.57456
 Eigenvectors required to have negative eigenvalues:
                          R10       R4        D8        D5        R9
   1                   -0.56304   0.40400   0.36015   0.26875   0.23421
                          D9        D3        D10       R3        R2
   1                   -0.22656   0.17319   0.15591   0.15242  -0.15029
 RFO step:  Lambda0=4.451629704D-08 Lambda=-2.59675113D-07.
 Linear search not attempted -- option 19 set.
 Iteration  1 RMS(Cart)=  0.00047718 RMS(Int)=  0.00000073
 Iteration  2 RMS(Cart)=  0.00000392 RMS(Int)=  0.00000001
 Iteration  3 RMS(Cart)=  0.00000000 RMS(Int)=  0.00000001
 ITry= 1 IFail=0 DXMaxC= 1.11D-03 DCOld= 1.00D+10 DXMaxT= 3.00D-01 DXLimC= 3.00D+00 Rises=F
 Variable       Old X    -DE/DX   Delta X   Delta X   Delta X     New X
                                 (Linear)    (Quad)   (Total)
    R1        2.06646   0.00000   0.00000   0.00004   0.00004   2.06649
    R2        2.43585   0.00002   0.00000  -0.00007  -0.00007   2.43579
    R3        2.63205   0.00000   0.00000   0.00002   0.00002   2.63206
    R4        2.08288  -0.00001   0.00000   0.00072   0.00072   2.08360
    R5        2.04779  -0.00000   0.00000  -0.00001  -0.00001   2.04779
    R6        2.05083  -0.00000   0.00000  -0.00001  -0.00001   2.05083
    R7        2.07299   0.00000   0.00000  -0.00004  -0.00004   2.07296
    R8        2.07921   0.00000   0.00000  -0.00002  -0.00002   2.07919
    R9        2.42384   0.00002   0.00000   0.00008   0.00008   2.42392
   R10        2.60085   0.00003   0.00000  -0.00118  -0.00118   2.59966
    A1        2.02366  -0.00002   0.00000   0.00010   0.00010   2.02376
    A2        2.12476  -0.00001   0.00000  -0.00009  -0.00009   2.12467
    A3        2.12110   0.00002   0.00000  -0.00000  -0.00000   2.12109
    A4        1.84269   0.00011   0.00000   0.00020   0.00020   1.84289
    A5        2.05756  -0.00001   0.00000  -0.00002  -0.00002   2.05754
    A6        2.06025   0.00001   0.00000   0.00015   0.00015   2.06040
    A7        2.01555  -0.00000   0.00000   0.00007   0.00007   2.01562
    A8        1.97437  -0.00000   0.00000   0.00008   0.00008   1.97444
    A9        2.06569   0.00001   0.00000  -0.00002  -0.00002   2.06567
   A10        2.07764  -0.00000   0.00000   0.00003   0.00003   2.07767
   A11        1.85118   0.00008   0.00000   0.00036   0.00036   1.85154
   A12        2.66602   0.00001   0.00000  -0.00011  -0.00011   2.66590
    D1       -2.37196   0.00003   0.00000   0.00154   0.00154  -2.37042
    D2        0.59563   0.00006   0.00000   0.00161   0.00161   0.59724
    D3       -2.68575   0.00001   0.00000  -0.00061  -0.00061  -2.68636
    D4       -0.12964   0.00001   0.00000  -0.00023  -0.00023  -0.12987
    D5        0.63993  -0.00002   0.00000  -0.00070  -0.00070   0.63923
    D6       -3.08714  -0.00002   0.00000  -0.00033  -0.00033  -3.08746
    D7        0.29745   0.00004   0.00000  -0.00436  -0.00436   0.29308
    D8       -2.54592  -0.00001   0.00000  -0.00013  -0.00013  -2.54605
    D9       -2.26780   0.00000   0.00000  -0.00096  -0.00096  -2.26876
   D10        1.50033  -0.00001   0.00000  -0.00113  -0.00113   1.49920
   D11       -0.18549   0.00005   0.00000   0.00434   0.00434  -0.18115
         Item               Value     Threshold  Converged?
 Maximum Force            0.000106     0.000450     YES
 RMS     Force            0.000030     0.000300     YES
 Maximum Displacement     0.001107     0.001800     YES
 RMS     Displacement     0.000476     0.001200     YES
 Predicted change in Energy=-1.075794D-07
 Optimization completed.
    -- Stationary point found.
                           ----------------------------
                           !   Optimized Parameters   !
                           ! (Angstroms and Degrees)  !
 --------------------------                            --------------------------
 ! Name  Definition              Value          Derivative Info.                !
 --------------------------------------------------------------------------------
 ! R1    R(1,2)                  1.0935         -DE/DX =    0.0                 !
 ! R2    R(1,3)                  1.289          -DE/DX =    0.0                 !
 ! R3    R(1,4)                  1.3928         -DE/DX =    0.0                 !
 ! R4    R(3,11)                 1.1022         -DE/DX =    0.0                 !
 ! R5    R(4,5)                  1.0836         -DE/DX =    0.0                 !
 ! R6    R(4,6)                  1.0853         -DE/DX =    0.0                 !
 ! R7    R(7,8)                  1.097          -DE/DX =    0.0                 !
 ! R8    R(7,9)                  1.1003         -DE/DX =    0.0                 !
 ! R9    R(7,10)                 1.2826         -DE/DX =    0.0                 !
 ! R10   R(10,11)                1.3763         -DE/DX =    0.0                 !
 ! A1    A(2,1,3)              115.9472         -DE/DX =    0.0                 !
 ! A2    A(2,1,4)              121.7399         -DE/DX =    0.0                 !
 ! A3    A(3,1,4)              121.5298         -DE/DX =    0.0                 !
 ! A4    A(1,3,11)             105.5784         -DE/DX =    0.0001              !
 ! A5    A(1,4,5)              117.8898         -DE/DX =    0.0                 !
 ! A6    A(1,4,6)              118.0437         -DE/DX =    0.0                 !
 ! A7    A(5,4,6)              115.4823         -DE/DX =    0.0                 !
 ! A8    A(8,7,9)              113.123          -DE/DX =    0.0                 !
 ! A9    A(8,7,10)             118.3554         -DE/DX =    0.0                 !
 ! A10   A(9,7,10)             119.0399         -DE/DX =    0.0                 !
 ! A11   A(7,10,11)            106.0649         -DE/DX =    0.0001              !
 ! A12   A(3,11,10)            152.7514         -DE/DX =    0.0                 !
 ! D1    D(2,1,3,11)          -135.9034         -DE/DX =    0.0                 !
 ! D2    D(4,1,3,11)            34.1268         -DE/DX =    0.0001              !
 ! D3    D(2,1,4,5)           -153.8823         -DE/DX =    0.0                 !
 ! D4    D(2,1,4,6)             -7.4276         -DE/DX =    0.0                 !
 ! D5    D(3,1,4,5)             36.6654         -DE/DX =    0.0                 !
 ! D6    D(3,1,4,6)           -176.8799         -DE/DX =    0.0                 !
 ! D7    D(1,3,11,10)           17.0424         -DE/DX =    0.0                 !
 ! D8    D(8,7,9,10)          -145.8705         -DE/DX =    0.0                 !
 ! D9    D(8,7,10,11)         -129.9352         -DE/DX =    0.0                 !
 ! D10   D(9,7,10,11)           85.9626         -DE/DX =    0.0                 !
 ! D11   D(7,10,11,3)          -10.6279         -DE/DX =    0.0001              !
 --------------------------------------------------------------------------------
 Lowest energy point so far.  Saving SCF results.
 Largest change from initial coordinates is atom    6       0.000 Angstoms.
 GradGradGradGradGradGradGradGradGradGradGradGradGradGradGradGradGradGrad

 Leave Link  103 at Tue Oct 15 20:30:30 2019, MaxMem=   280000000 cpu:               2.6 elap:               0.1
 (Enter /home/soft/g16/l202.exe)
                          Input orientation:                          
 ---------------------------------------------------------------------
 Center     Atomic      Atomic             Coordinates (Angstroms)
 Number     Number       Type             X           Y           Z
 ---------------------------------------------------------------------
      1          6           0       -1.231399    0.200731    0.231782
      2          1           0       -1.892598    0.415195    1.075944
      3          8           0       -1.097210   -1.043364   -0.077634
      4          6           0       -0.420652    1.183024   -0.331899
      5          1           0       -0.133078    1.068486   -1.370393
      6          1           0       -0.547777    2.206046    0.007279
      7          6           0        1.291100    0.391933    0.293044
      8          1           0        1.892694    1.141520   -0.235700
      9          1           0        1.237659    0.567706    1.377868
     10          8           0        1.300659   -0.814459   -0.142498
     11          1           0       -0.018790   -1.190492   -0.251507
 ---------------------------------------------------------------------
                    Distance matrix (angstroms):
                    1          2          3          4          5
     1  C    0.000000
     2  H    1.093521   0.000000
     3  O    1.288999   2.022567   0.000000
     4  C    1.392820   2.176743   2.340766   0.000000
     5  H    2.127504   3.083385   2.657195   1.083645   0.000000
     6  H    2.130500   2.481479   3.296627   1.085254   1.834121
     7  C    2.530477   3.278629   2.810961   1.986573   2.291949
     8  H    3.295995   4.071412   3.706512   2.315717   2.323061
     9  H    2.746713   3.148480   3.188361   2.460064   3.111694
    10  O    2.753546   3.632291   2.409643   2.643619   2.666235
    11  H    1.907745   2.802055   1.102211   2.408637   2.523480
                    6          7          8          9         10
     6  H    0.000000
     7  C    2.598872   0.000000
     8  H    2.673603   1.096981   0.000000
     9  H    2.783964   1.100271   1.833558   0.000000
    10  O    3.544376   1.282642   2.045738   2.055690   0.000000
    11  H    3.447212   2.125186   3.015344   2.706434   1.376310
                   11
    11  H    0.000000
 Stoichiometry    C3H6O2
 Framework group  C1[X(C3H6O2)]
 Deg. of freedom    27
 Full point group                 C1      NOp   1
 RotChk:  IX=0 Diff= 2.22D-16
 Largest Abelian subgroup         C1      NOp   1
 Largest concise Abelian subgroup C1      NOp   1
                         Standard orientation:                         
 ---------------------------------------------------------------------
 Center     Atomic      Atomic             Coordinates (Angstroms)
 Number     Number       Type             X           Y           Z
 ---------------------------------------------------------------------
      1          6           0       -1.231399    0.200731    0.231782
      2          1           0       -1.892598    0.415195    1.075944
      3          8           0       -1.097210   -1.043364   -0.077634
      4          6           0       -0.420652    1.183024   -0.331899
      5          1           0       -0.133078    1.068486   -1.370393
      6          1           0       -0.547777    2.206046    0.007279
      7          6           0        1.291100    0.391933    0.293044
      8          1           0        1.892694    1.141520   -0.235700
      9          1           0        1.237659    0.567706    1.377868
     10          8           0        1.300659   -0.814459   -0.142498
     11          1           0       -0.018790   -1.190492   -0.251507
 ---------------------------------------------------------------------
 Rotational constants (GHZ):           7.8121119           4.8482834           3.3264499
 Leave Link  202 at Tue Oct 15 20:30:30 2019, MaxMem=   280000000 cpu:               0.8 elap:               0.1
 (Enter /home/soft/g16/l716.exe)
 Rotating derivatives to standard orientation.
 Dipole        =-3.99932291D-01 1.38194512D+00 3.21619918D-01
 Polarizability= 6.16528536D+01-3.63615053D-01 5.07477934D+01
                -1.28033017D+00 6.18117806D-02 3.84600006D+01
 Full mass-weighted force constant matrix:
 Low frequencies --- -892.4055   -0.0008   -0.0007   -0.0001    0.9923    3.2710
 Low frequencies ---    5.7762  166.6363  299.7822
 ******    1 imaginary frequencies (negative Signs) ****** 
 Diagonal vibrational polarizability:
       57.8314927       7.6866924       8.6029679
 Harmonic frequencies (cm**-1), IR intensities (KM/Mole), Raman scattering
 activities (A**4/AMU), depolarization ratios for plane and unpolarized
 incident light, reduced masses (AMU), force constants (mDyne/A),
 and normal coordinates:
                      1                      2                      3
                      A                      A                      A
 Frequencies --   -892.4055               166.6362               299.7822
 Red. masses --      1.8380                 2.8325                 2.7893
 Frc consts  --      0.8624                 0.0463                 0.1477
 IR Inten    --     20.0706                 4.6566                76.7498
  Atom  AN      X      Y      Z        X      Y      Z        X      Y      Z
     1   6    -0.01  -0.08   0.00    -0.02  -0.03   0.04    -0.17  -0.00  -0.12
     2   1    -0.03   0.02  -0.00     0.04  -0.16   0.12    -0.60   0.07  -0.48
     3   8     0.03   0.04  -0.00    -0.01   0.01  -0.16    -0.10  -0.05   0.08
     4   6     0.14  -0.03   0.03    -0.06   0.03   0.10     0.18  -0.10   0.16
     5   1    -0.13   0.03  -0.05    -0.20   0.13   0.05     0.23  -0.05   0.17
     6   1     0.06  -0.03   0.02    -0.01  -0.01   0.22     0.06  -0.09   0.09
     7   6    -0.13   0.11  -0.03     0.11   0.06  -0.17     0.08   0.08  -0.07
     8   1     0.14  -0.10   0.03    -0.02  -0.11  -0.58     0.10   0.06  -0.10
     9   1     0.04   0.01  -0.01     0.39   0.40  -0.22     0.23   0.10  -0.05
    10   8    -0.09  -0.05  -0.02    -0.02  -0.07   0.21     0.05   0.06  -0.03
    11   1     0.87   0.20   0.25     0.01   0.02  -0.03    -0.24  -0.02  -0.01
                      4                      5                      6
                      A                      A                      A
 Frequencies --    364.2984               506.2166               535.1576
 Red. masses --      2.8835                 4.3821                 2.5006
 Frc consts  --      0.2255                 0.6616                 0.4219
 IR Inten    --     55.4914                98.3404                11.1331
  Atom  AN      X      Y      Z        X      Y      Z        X      Y      Z
     1   6    -0.11   0.01  -0.12    -0.09   0.08  -0.03     0.17  -0.03  -0.13
     2   1    -0.40   0.02  -0.34    -0.21   0.02  -0.11     0.25   0.03  -0.09
     3   8     0.15   0.01   0.09     0.06   0.07   0.05    -0.00  -0.14   0.08
     4   6    -0.17   0.16   0.02    -0.01   0.07   0.06     0.08   0.13   0.02
     5   1     0.07   0.27   0.07    -0.26   0.32  -0.03     0.20   0.63  -0.00
     6   1    -0.38   0.12   0.07     0.19   0.01   0.34    -0.08  -0.03   0.47
     7   6     0.15  -0.09   0.02    -0.29  -0.07  -0.14    -0.09   0.02  -0.04
     8   1     0.20  -0.17  -0.01    -0.31   0.04  -0.02    -0.08  -0.01  -0.08
     9   1     0.12  -0.12   0.01    -0.48  -0.02  -0.16    -0.06   0.10  -0.05
    10   8    -0.05  -0.08  -0.03     0.30  -0.16   0.03    -0.11   0.02   0.03
    11   1     0.37   0.10   0.28    -0.09  -0.06  -0.04    -0.24  -0.21  -0.13
                      7                      8                      9
                      A                      A                      A
 Frequencies --    705.1160               863.5595               873.5363
 Red. masses --      2.1170                 1.1387                 1.4508
 Frc consts  --      0.6201                 0.5003                 0.6523
 IR Inten    --     70.6380                88.8178                14.1835
  Atom  AN      X      Y      Z        X      Y      Z        X      Y      Z
     1   6     0.01   0.04   0.02    -0.03   0.01  -0.05    -0.11   0.02  -0.03
     2   1    -0.27  -0.11  -0.18     0.17   0.09   0.10     0.12  -0.07   0.17
     3   8     0.20   0.04  -0.00    -0.02   0.00   0.00     0.07   0.01   0.03
     4   6     0.04  -0.04   0.06    -0.02  -0.01  -0.03    -0.01  -0.08  -0.05
     5   1     0.20  -0.36   0.14     0.18   0.05   0.03    -0.19   0.18  -0.13
     6   1     0.07   0.07  -0.26     0.22  -0.04   0.14     0.70  -0.17   0.47
     7   6    -0.10  -0.04  -0.02    -0.02  -0.02   0.07     0.05  -0.01   0.00
     8   1    -0.39   0.07  -0.21    -0.56   0.16  -0.27     0.14  -0.02   0.08
     9   1     0.18   0.01  -0.01     0.56  -0.08   0.11    -0.18   0.03  -0.01
    10   8    -0.13   0.01   0.02     0.03   0.00  -0.02    -0.05   0.04   0.01
    11   1    -0.29   0.01  -0.47     0.15  -0.02   0.28    -0.06   0.11  -0.15
                     10                     11                     12
                      A                      A                      A
 Frequencies --    953.7735              1011.0818              1046.2696
 Red. masses --      1.2014                 1.3207                 1.5866
 Frc consts  --      0.6439                 0.7955                 1.0233
 IR Inten    --    154.5331                32.0115                17.1928
  Atom  AN      X      Y      Z        X      Y      Z        X      Y      Z
     1   6     0.05   0.01   0.05    -0.12   0.01  -0.08    -0.04  -0.00  -0.01
     2   1    -0.19   0.02  -0.15     0.56  -0.09   0.48    -0.05  -0.28   0.05
     3   8    -0.00  -0.04  -0.04     0.02  -0.02   0.02    -0.02  -0.11   0.01
     4   6    -0.06   0.04   0.02     0.01   0.02   0.07     0.05   0.17   0.01
     5   1     0.41  -0.24   0.19     0.46  -0.16   0.21    -0.53  -0.20  -0.13
     6   1     0.50   0.10   0.03    -0.08   0.11  -0.24     0.45   0.35  -0.36
     7   6    -0.01  -0.01  -0.05    -0.01   0.01  -0.04    -0.00   0.01   0.03
     8   1     0.04  -0.03  -0.02     0.13  -0.06   0.01     0.01  -0.01   0.02
     9   1    -0.31   0.10  -0.09    -0.15   0.03  -0.05     0.21  -0.07   0.06
    10   8    -0.02   0.02  -0.01     0.01  -0.01   0.00     0.01  -0.01  -0.00
[...]
 Second derivative matrix not updated -- analytic derivatives used.
 ITU=  0
     Eigenvalues ---   -0.08917   0.00380   0.01045   0.02022   0.02679
     Eigenvalues ---    0.04383   0.05371   0.08423   0.10541   0.11747
     Eigenvalues ---    0.11840   0.12413   0.14378   0.18584   0.21566
     Eigenvalues ---    0.23121   0.31157   0.32148   0.33445   0.35618
     Eigenvalues ---    0.35833   0.40542   0.41992   0.54691   0.69477
     Eigenvalues ---    1.04474   1.57457
 Eigenvectors required to have negative eigenvalues:
                          R10       R4        D8        D5        R9
   1                   -0.56304   0.40400   0.36015   0.26875   0.23421
                          D9        D3        D10       R3        R2
   1                   -0.22656   0.17319   0.15591   0.15242  -0.15029
 Angle between quadratic step and forces=  79.73 degrees.
 Linear search not attempted -- option 19 set.
 Iteration  1 RMS(Cart)=  0.00047724 RMS(Int)=  0.00000073
 Iteration  2 RMS(Cart)=  0.00000393 RMS(Int)=  0.00000001
 Iteration  3 RMS(Cart)=  0.00000000 RMS(Int)=  0.00000001
 ITry= 1 IFail=0 DXMaxC= 1.11D-03 DCOld= 1.00D+10 DXMaxT= 3.00D-01 DXLimC= 3.00D+00 Rises=F
 Variable       Old X    -DE/DX   Delta X   Delta X   Delta X     New X
                                 (Linear)    (Quad)   (Total)
    R1        2.06646   0.00000   0.00000   0.00004   0.00004   2.06649
    R2        2.43585   0.00002   0.00000  -0.00007  -0.00007   2.43579
    R3        2.63205   0.00000   0.00000   0.00002   0.00002   2.63206
    R4        2.08288  -0.00001   0.00000   0.00072   0.00072   2.08360
    R5        2.04779  -0.00000   0.00000  -0.00001  -0.00001   2.04779
    R6        2.05083  -0.00000   0.00000  -0.00001  -0.00001   2.05083
    R7        2.07299   0.00000   0.00000  -0.00004  -0.00004   2.07296
    R8        2.07921   0.00000   0.00000  -0.00002  -0.00002   2.07919
    R9        2.42384   0.00002   0.00000   0.00008   0.00008   2.42392
   R10        2.60085   0.00003   0.00000  -0.00119  -0.00119   2.59966
    A1        2.02366  -0.00002   0.00000   0.00010   0.00010   2.02376
    A2        2.12476  -0.00001   0.00000  -0.00009  -0.00009   2.12467
    A3        2.12110   0.00002   0.00000  -0.00000  -0.00000   2.12109
    A4        1.84269   0.00011   0.00000   0.00020   0.00020   1.84289
    A5        2.05756  -0.00001   0.00000  -0.00002  -0.00002   2.05754
    A6        2.06025   0.00001   0.00000   0.00015   0.00015   2.06040
    A7        2.01555  -0.00000   0.00000   0.00007   0.00007   2.01562
    A8        1.97437  -0.00000   0.00000   0.00008   0.00008   1.97444
    A9        2.06569   0.00001   0.00000  -0.00002  -0.00002   2.06567
   A10        2.07764  -0.00000   0.00000   0.00003   0.00003   2.07767
   A11        1.85118   0.00008   0.00000   0.00036   0.00036   1.85154
   A12        2.66602   0.00001   0.00000  -0.00011  -0.00011   2.66590
    D1       -2.37196   0.00003   0.00000   0.00154   0.00154  -2.37042
    D2        0.59563   0.00006   0.00000   0.00161   0.00161   0.59724
    D3       -2.68575   0.00001   0.00000  -0.00061  -0.00061  -2.68636
    D4       -0.12964   0.00001   0.00000  -0.00023  -0.00023  -0.12987
    D5        0.63993  -0.00002   0.00000  -0.00070  -0.00070   0.63923
    D6       -3.08714  -0.00002   0.00000  -0.00033  -0.00033  -3.08746
    D7        0.29745   0.00004   0.00000  -0.00437  -0.00437   0.29308
    D8       -2.54592  -0.00001   0.00000  -0.00013  -0.00013  -2.54605
    D9       -2.26780   0.00000   0.00000  -0.00096  -0.00096  -2.26876
   D10        1.50033  -0.00001   0.00000  -0.00113  -0.00113   1.49920
   D11       -0.18549   0.00005   0.00000   0.00434   0.00434  -0.18115
         Item               Value     Threshold  Converged?
 Maximum Force            0.000106     0.000450     YES
 RMS     Force            0.000030     0.000300     YES
 Maximum Displacement     0.001107     0.001800     YES
 RMS     Displacement     0.000476     0.001200     YES
 Predicted change in Energy=-1.075795D-07
 Optimization completed.
    -- Stationary point found.
                           ----------------------------
                           !   Optimized Parameters   !
                           ! (Angstroms and Degrees)  !
 --------------------------                            --------------------------
 ! Name  Definition              Value          Derivative Info.                !
 --------------------------------------------------------------------------------
 ! R1    R(1,2)                  1.0935         -DE/DX =    0.0                 !
 ! R2    R(1,3)                  1.289          -DE/DX =    0.0                 !
 ! R3    R(1,4)                  1.3928         -DE/DX =    0.0                 !
 ! R4    R(3,11)                 1.1022         -DE/DX =    0.0                 !
 ! R5    R(4,5)                  1.0836         -DE/DX =    0.0                 !
 ! R6    R(4,6)                  1.0853         -DE/DX =    0.0                 !
 ! R7    R(7,8)                  1.097          -DE/DX =    0.0                 !
 ! R8    R(7,9)                  1.1003         -DE/DX =    0.0                 !
 ! R9    R(7,10)                 1.2826         -DE/DX =    0.0                 !
 ! R10   R(10,11)                1.3763         -DE/DX =    0.0                 !
 ! A1    A(2,1,3)              115.9472         -DE/DX =    0.0                 !
 ! A2    A(2,1,4)              121.7399         -DE/DX =    0.0                 !
 ! A3    A(3,1,4)              121.5298         -DE/DX =    0.0                 !
 ! A4    A(1,3,11)             105.5784         -DE/DX =    0.0001              !
 ! A5    A(1,4,5)              117.8898         -DE/DX =    0.0                 !
 ! A6    A(1,4,6)              118.0437         -DE/DX =    0.0                 !
 ! A7    A(5,4,6)              115.4823         -DE/DX =    0.0                 !
 ! A8    A(8,7,9)              113.123          -DE/DX =    0.0                 !
 ! A9    A(8,7,10)             118.3554         -DE/DX =    0.0                 !
 ! A10   A(9,7,10)             119.0399         -DE/DX =    0.0                 !
 ! A11   A(7,10,11)            106.0649         -DE/DX =    0.0001              !
 ! A12   A(3,11,10)            152.7514         -DE/DX =    0.0                 !
 ! D1    D(2,1,3,11)          -135.9034         -DE/DX =    0.0                 !
 ! D2    D(4,1,3,11)            34.1268         -DE/DX =    0.0001              !
 ! D3    D(2,1,4,5)           -153.8823         -DE/DX =    0.0                 !
 ! D4    D(2,1,4,6)             -7.4276         -DE/DX =    0.0                 !
 ! D5    D(3,1,4,5)             36.6654         -DE/DX =    0.0                 !
 ! D6    D(3,1,4,6)           -176.8799         -DE/DX =    0.0                 !
 ! D7    D(1,3,11,10)           17.0424         -DE/DX =    0.0                 !
 ! D8    D(8,7,9,10)          -145.8705         -DE/DX =    0.0                 !
 ! D9    D(8,7,10,11)         -129.9352         -DE/DX =    0.0                 !
 ! D10   D(9,7,10,11)           85.9626         -DE/DX =    0.0                 !
 ! D11   D(7,10,11,3)          -10.6279         -DE/DX =    0.0001              !
 --------------------------------------------------------------------------------
 GradGradGradGradGradGradGradGradGradGradGradGradGradGradGradGradGradGrad

 Leave Link  103 at Tue Oct 15 20:30:50 2019, MaxMem=   280000000 cpu:               4.6 elap:               0.2
 (Enter /home/soft/g16/l9999.exe)

 ----------------------------------------------------------------------

 Electric dipole moment (input orientation):
 (Debye = 10**-18 statcoulomb cm , SI units = C m)
                  (au)            (Debye)         (10**-30 SI)
   Tot        0.147416D+01      0.374695D+01      0.124985D+02
   x         -0.399932D+00     -0.101653D+01     -0.339077D+01
   y          0.138195D+01      0.351255D+01      0.117166D+02
   z          0.321620D+00      0.817475D+00      0.272680D+01

 Dipole polarizability, Alpha (input orientation).
 (esu units = cm**3 , SI units = C**2 m**2 J**-1)
 Alpha(0;0):
               (au)            (10**-24 esu)      (10**-40 SI)
   iso        0.502869D+02      0.745175D+01      0.829119D+01
   aniso      0.202296D+02      0.299771D+01      0.333540D+01
   xx         0.616529D+02      0.913601D+01      0.101652D+02
   yx        -0.363614D+00     -0.538820D-01     -0.599519D-01
   yy         0.507478D+02      0.752005D+01      0.836718D+01
   zx        -0.128033D+01     -0.189725D+00     -0.211098D+00
   zy         0.618117D-01      0.915954D-02      0.101914D-01
   zz         0.384600D+02      0.569918D+01      0.634120D+01

 ----------------------------------------------------------------------

 Dipole orientation:
     6         -1.98838938         -0.79074819          1.08246132
     1         -2.64499146         -2.43414567          2.14939917
     8         -2.39958813         -0.84463757         -1.31782982
     6         -0.45030941          1.04481777          2.17456127
     1         -0.51730258          2.93767844          1.39607084
     1         -0.09852929          0.93238454          4.19186783
     6          2.59727724          0.19657950          0.15321999
     1          3.69009788          1.76522752          0.95470938
     1          3.12789641         -1.65374582          0.93925654
     8          1.91500516          0.33680299         -2.16838515
     1         -0.63198456         -0.18861045         -2.20302978

 Electric dipole moment (dipole orientation):
 (Debye = 10**-18 statcoulomb cm , SI units = C m)
                  (au)            (Debye)         (10**-30 SI)
   Tot        0.147416D+01      0.374695D+01      0.124985D+02
   x          0.000000D+00      0.000000D+00      0.000000D+00
   y          0.000000D+00      0.000000D+00      0.000000D+00
   z          0.147416D+01      0.374695D+01      0.124985D+02

 Dipole polarizability, Alpha (dipole orientation).
 (esu units = cm**3 , SI units = C**2 m**2 J**-1)
 Alpha(0;0):
               (au)            (10**-24 esu)      (10**-40 SI)
   iso        0.502869D+02      0.745175D+01      0.829119D+01
   aniso      0.202296D+02      0.299771D+01      0.333540D+01
   xx         0.586822D+02      0.869580D+01      0.967538D+01
   yx         0.620097D+01      0.918888D+00      0.102240D+01
   yy         0.408512D+02      0.605352D+01      0.673545D+01
   zx        -0.395639D+01     -0.586277D+00     -0.652321D+00
   zy         0.141730D+01      0.210022D+00      0.233681D+00
   zz         0.513273D+02      0.760593D+01      0.846273D+01

 ----------------------------------------------------------------------
 1\1\GINC-NODE05\Freq\RB3LYP\6-311+G(d)\C3H6O2\ROOT\15-Oct-2019\0\\#P G
 eom=AllCheck Guess=TCheck SCRF=Check GenChk RB3LYP/6-311+G(d) Freq\\Ti
 tle Card Required\\0,1\C,-1.231399,0.200731,0.231782\H,-1.892598,0.415
 195,1.075944\O,-1.09721,-1.043364,-0.077634\C,-0.420652,1.183024,-0.33
 1899\H,-0.133078,1.068486,-1.370393\H,-0.547777,2.206046,0.007279\C,1.
 2911,0.391933,0.293044\H,1.892694,1.14152,-0.2357\H,1.237659,0.567706,
 1.377868\O,1.300659,-0.814459,-0.142498\H,-0.01879,-1.190492,-0.251507
 \\Version=ES64L-G16RevA.03\State=1-A\HF=-268.3725487\RMSD=1.166e-09\RM
 SF=2.824e-05\ZeroPoint=0.0843467\Thermal=0.0894149\Dipole=-0.3999323,1
 .3819451,0.3216196\DipoleDeriv=0.3845872,0.1879189,-0.2250953,0.867356
 3,1.0566627,0.0700249,-0.3237616,0.1547425,0.3732627,0.1296237,0.06227
 8,0.0946941,0.0177282,0.0414972,-0.0291622,0.211041,-0.0196565,-0.0311
 6,-0.419005,-0.0306075,0.0113326,-0.4928483,-1.0785462,-0.0980332,-0.1
 963303,-0.2695653,-0.4126429,-1.1239042,-0.1244278,-0.0502526,-0.07149
 97,-0.1016962,0.1121417,-0.0923244,0.1399992,-0.091859,0.1949322,0.022
 1402,0.0389618,-0.0144393,0.0232829,-0.0394518,0.0604931,-0.0036745,0.
 0087479,0.1153268,0.0563537,0.0194685,0.0197151,-0.0689788,-0.0278036,
 0.0356712,-0.0427359,0.0566494,1.1005406,-0.2012988,0.0898525,-0.83671
 89,1.0270057,0.0924675,0.1303161,0.2162106,0.6181808,-0.1350626,-0.117
 7446,0.0315692,-0.0627601,-0.0649737,0.0395572,-0.0290827,0.0636704,-0
 .0143307,-0.1022668,0.0304927,-0.0119244,-0.0182542,-0.0135872,-0.0386
 045,-0.0551774,-0.0828917,-0.2409162,-0.7002285,0.0515443,-0.0081147,0
 .659813,-1.1455416,-0.0989979,0.0797328,-0.2240501,-0.5566856,0.555456
 6,0.0633507,0.0095084,-0.0680921,0.3248753,0.017862,0.1794223,0.067951
 3,0.2907535\Polar=61.652853,-0.3636141,50.7477933,-1.2803301,0.0618117
 ,38.4600004\Quadrupole=-0.9761213,-0.4409581,1.4170794,0.8692375,-0.50
 79712,0.0580626\PG=C01 [X(C3H6O2)]\NImag=1\\0.45234000,0.02798172,0.71
 104682,-0.26708852,0.04135472,0.47589579,-0.15253614,0.01582649,0.1216
 8650,0.14241751,0.01638563,-0.06086879,-0.02735647,-0.02945672,0.07629
 264,0.12954485,-0.02862708,-0.20993815,-0.14799048,0.04195911,0.208976
 26,-0.10533818,0.01841154,0.03666485,0.00510626,0.02930873,0.00859638,
 0.24884251,0.02804254,-0.39991905,-0.09126404,0.01193149,-0.02014808,-
 0.01252227,-0.00606779,0.53010824,0.03321585,-0.06947399,-0.10611442,0
 .00563837,-0.02979458,0.00132691,-0.05214699,0.10032792,0.09577823,-0.
 14544145,-0.06092668,0.09930396,0.00349631,-0.01028170,0.01000287,0.03
 549312,-0.05148717,-0.02632012,0.20503294,-0.12039619,-0.22709115,0.07
 994583,0.00350909,0.00777095,-0.00384301,-0.01787287,-0.06170622,0.005
 59512,0.10667949,0.67394349,0.10320913,0.08007581,-0.15183104,0.019236
 30,0.01831119,-0.00165587,-0.00340269,-0.01006865,0.01940604,-0.211100
 22,0.03657238,0.55061234,-0.01124726,-0.00514414,0.02514058,0.00019349
 ,-0.00420542,0.00379650,-0.00353257,0.00836108,-0.00284247,-0.03712256
 ,0.00420899,0.07794937,0.06175011,-0.00417653,0.00754886,0.02233426,-0
 .00304422,-0.00189298,-0.00007528,0.00069320,-0.00044964,-0.00226140,0
 .00247434,-0.05931736,-0.03301436,-0.00647941,0.05445147,0.00090307,-0
 .00614061,-0.00851426,0.00126995,0.00083495,0.00190541,-0.00257961,0.0
 0190452,0.00175269,0.08924145,-0.03008119,-0.31305816,-0.08715622,0.03
 169284,0.32810015,0.00446403,-0.02118782,-0.01335957,-0.00164788,0.001
 13057,-0.00222543,0.00057117,-0.00408151,0.00852430,-0.04085442,0.0356
 7432,0.02341696,-0.00146246,0.00714745,0.00065510,0.03890985,0.0087043
 0,-0.01693876,-0.00949250,-0.00028427,0.00061004,0.00064315,-0.0037633
 0,-0.00223956,0.00191144,0.02589688,-0.30383274,-0.08449268,-0.0003078
 9,0.00127306,0.00078821,-0.02929153,0.32177247,-0.00564710,0.01308643,
 0.00262922,-0.00155687,-0.00002040,-0.00083333,0.00399310,0.00315796,0
 .00419284,0.01977724,-0.08643924,-0.07926218,0.00224671,-0.02586594,-0
 .00359056,-0.02032072,0.09110718,0.07633935,-0.03717019,-0.05426748,0.
 00143370,0.00017151,0.00011795,0.00096278,-0.03040036,0.03508850,0.012
 46153,0.05829222,-0.01912510,-0.00210453,-0.01382204,0.00425768,-0.005
 26392,0.00455923,-0.00158707,0.00200627,0.21955693,0.02533298,0.071397
 57,-0.00478621,0.00352775,-0.00143515,0.00285892,0.04510796,-0.0557507
 4,-0.02295349,-0.08771336,-0.01955837,-0.01208334,0.00904213,-0.002089
 08,0.00414177,0.00862613,-0.00137303,0.00432304,0.19646350,0.59834541,
 -0.00202994,-0.00046667,-0.00472659,-0.00077236,-0.00051617,-0.0015451
 6,0.00826752,0.00102400,0.00375364,0.00820195,-0.01111639,-0.02479899,
 -0.01713722,0.00462635,-0.00846656,0.00609071,-0.00126166,0.00172466,-
 0.09538421,0.07826061,0.58769799,0.00225108,0.00826411,-0.00035915,0.0
 0116150,0.00006437,0.00095139,0.00536228,-0.00539615,-0.00298112,-0.02
 397947,-0.00383696,0.00076204,0.00066918,-0.00099382,0.00042988,0.0001
 9370,0.00031137,0.00038090,-0.11336121,-0.10251165,0.07919261,0.119296
 28,-0.00151826,-0.00476250,-0.00081322,-0.00015525,0.00015632,-0.00016
 004,-0.00502140,0.00546884,0.00137371,0.00754734,0.00363850,0.00036091
 ,0.00012031,0.00023084,-0.00075197,-0.00057124,0.00011770,-0.00022161,
 -0.09051772,-0.14283713,0.08114324,0.10295977,0.17890113,-0.00066136,0
 .00529415,-0.00049392,0.00086980,-0.00008014,0.00106521,0.00238774,-0.
 00369108,-0.00209886,-0.01136566,-0.00228160,-0.00087951,-0.00137779,-
 0.00025180,0.00121522,0.00070149,-0.00001751,0.00010510,0.08151294,0.0
 7574642,-0.12721251,-0.07799112,-0.08558867,0.12256944,0.00131461,0.00
 863060,-0.00599737,0.00002535,-0.00010130,0.00035635,0.00111220,-0.005
 01429,-0.00070416,-0.01467287,0.00053702,-0.01282913,-0.00149592,0.000
 57479,-0.00082203,0.00047703,0.00026136,0.00023261,-0.04155914,-0.0155
 1128,0.01767909,0.00514195,-0.00047102,0.01877234,0.04073238,-0.001754
 47,-0.00092121,0.00002796,0.00032550,0.00017882,0.00019651,-0.00070521
 ,0.00125550,0.00053823,0.00091322,0.00144525,0.00536886,0.00136746,-0.
 00036004,0.00026494,-0.00051613,0.00001471,-0.00031297,-0.00363783,-0.
 05739677,-0.01656687,-0.00126902,0.00480957,0.01754096,0.00187381,0.06
 792516,0.00096102,0.00159668,0.00001172,-0.00014282,0.00008972,0.00039
 086,-0.00159619,-0.00088268,-0.00084777,-0.00401155,0.00138466,-0.0018
 7963,0.00032172,0.00027079,0.00041924,-0.00068910,0.00043078,-0.000389
 00,0.02236804,-0.01838821,-0.28635568,0.00078357,-0.00051517,-0.013084
 57,-0.01986470,0.03815006,0.30729046,-0.01311862,-0.03185214,-0.001477
 13,0.00083814,0.00218375,0.00142697,-0.09052108,0.03146713,0.01184941,
 0.00917406,0.02032044,0.00357358,0.00011497,0.00082702,0.00034163,-0.0
 0407911,0.00108198,-0.00193435,-0.08853724,0.00403456,0.00776161,0.009
 67088,-0.02245632,-0.00923530,0.01271882,0.00003211,-0.00038493,0.1259
 9227,-0.01535282,-0.06842945,0.00345286,-0.00247574,0.00206939,-0.0007
 2857,-0.05925182,0.05302302,0.01631040,0.07127570,-0.01392259,0.000729
 88,-0.00793830,0.00119360,-0.00362365,0.00350720,-0.00040426,0.0014113
 0,-0.05467859,-0.37028146,-0.13300765,0.00336224,-0.04411207,-0.004972
 94,0.00926771,-0.01679951,-0.02198492,-0.01818184,0.47197420,-0.000185
 70,-0.02080715,0.00444010,-0.00116970,0.00102601,0.00026204,-0.0248365
 6,0.01141541,0.01236089,0.01975621,0.00789622,0.00212002,-0.00033204,0
 .00117241,0.00090796,-0.00229006,0.00058535,0.00007459,-0.00986642,-0.
 11144030,-0.13867739,-0.00194807,0.00342499,0.01848518,0.00186616,-0.0
 4394912,-0.00568951,-0.01091695,0.15071794,0.12305249,0.00448212,0.094
 26380,0.00405213,0.00077394,-0.00514587,-0.00542219,-0.06669534,-0.042
 84384,0.01330541,-0.04941788,-0.00969823,0.00128918,0.00595505,-0.0012
 8049,0.00298070,-0.00113115,-0.00102184,0.00082221,0.04227028,-0.08639
 872,-0.01186975,-0.00640618,0.01008379,-0.00361306,-0.00379440,0.00337
 056,0.00225494,0.03774690,0.07046627,0.02992311,0.03621667,0.03675112,
 -0.01106232,-0.01340317,0.00029589,-0.00273318,0.00029857,-0.00083904,
 -0.04964231,-0.00157335,-0.00437806,-0.00136974,-0.00175999,0.00097519
 ,-0.00058874,0.00097018,-0.00043745,0.00100037,-0.00022574,-0.01211385
 ,-0.01902125,-0.00211879,-0.00095428,-0.00161120,-0.00169778,-0.000047
 40,-0.00015147,-0.00015170,0.01254330,-0.01431087,-0.00004177,-0.03179
 543,0.09949071,0.00777869,-0.01589229,-0.00135846,0.00293131,-0.004453
 22,0.00004583,0.02465245,0.00059892,-0.02951018,0.00651387,0.00236722,
 0.00122698,-0.00060915,0.00137215,-0.00067115,-0.00050369,-0.00020175,
 -0.00099069,-0.00812619,0.00432078,-0.00139341,0.00077907,0.00174783,0
 .00032923,0.00131084,-0.00125856,0.00013386,-0.00100454,-0.00830464,-0
 .01733637,-0.03372267,0.01970355,0.04952436\\-0.00001063,-0.00000559,-
 0.00002668,-0.00000325,0.00000395,-0.00000474,-0.00002966,-0.00003918,
 0.00005741,0.00003388,-0.00002133,0.00001221,-0.00000213,0.00000495,-0
 .00000249,0.00000109,-0.00000110,0.00000779,-0.00005381,-0.00000230,-0
 .00002219,0.00000475,-0.00000877,-0.00000131,0.00000624,-0.00000235,0.
 00000023,0.00002644,-0.00002585,0.00002512,0.00002709,0.00009757,-0.00
 004536\\\@


 HERE WE GO......
 SLIDING DOWN THE RAZOR BLADE OF LIFE......
                                 TOM LEHRER
 Job cpu time:       0 days  0 hours  7 minutes 15.0 seconds.
 Elapsed time:       0 days  0 hours  0 minutes 18.8 seconds.
 File lengths (MBytes):  RWF=    332 Int=      0 D2E=      0 Chk=      8 Scr=      8
 Normal termination of Gaussian 16 at Tue Oct 15 20:30:50 2019.
