 Entering Gaussian System, Link 0=g16
 Input=irc2_cpcm_benzene.gjf
 Output=irc2_cpcm_benzene.log
 Initial command:
 /share/home/wli/program/opt/Chem_soft/g16/l1.exe "/scratch/wli/Gau-2856.inp" -scrdir="/scratch/wli/"
 Entering Link 1 = /share/home/wli/program/opt/Chem_soft/g16/l1.exe PID=      2857.
  
 Copyright (c) 1988,1990,1992,1993,1995,1998,2003,2009,2016,
            Gaussian, Inc.  All Rights Reserved.
  
 This is part of the Gaussian(R) 16 program.  It is based on
 the Gaussian(R) 09 system (copyright 2009, Gaussian, Inc.),
 the Gaussian(R) 03 system (copyright 2003, Gaussian, Inc.),
 the Gaussian(R) 98 system (copyright 1998, Gaussian, Inc.),
 the Gaussian(R) 94 system (copyright 1995, Gaussian, Inc.),
 the Gaussian 92(TM) system (copyright 1992, Gaussian, Inc.),
 the Gaussian 90(TM) system (copyright 1990, Gaussian, Inc.),
 the Gaussian 88(TM) system (copyright 1988, Gaussian, Inc.),
 the Gaussian 86(TM) system (copyright 1986, Carnegie Mellon
 University), and the Gaussian 82(TM) system (copyright 1983,
 Carnegie Mellon University). Gaussian is a federally registered
 trademark of Gaussian, Inc.
  
 This software contains proprietary and confidential information,
 including trade secrets, belonging to Gaussian, Inc.
  
 This software is provided under written license and may be
 used, copied, transmitted, or stored only in accord with that
 written license.
  
 The following legend is applicable only to US Government
 contracts under FAR:
  
                    RESTRICTED RIGHTS LEGEND
  
 Use, reproduction and disclosure by the US Government is
 subject to restrictions as set forth in subparagraphs (a)
 and (c) of the Commercial Computer Software - Restricted
 Rights clause in FAR 52.227-19.
  
 Gaussian, Inc.
 340 Quinnipiac St., Bldg. 40, Wallingford CT 06492
  
  
 ---------------------------------------------------------------
 Warning -- This program may not be used in any manner that
 competes with the business of Gaussian, Inc. or will provide
 assistance to any competitor of Gaussian, Inc.  The licensee
 of this program is prohibited from giving any competitor of
 Gaussian, Inc. access to this program.  By using this program,
 the user acknowledges that Gaussian, Inc. is engaged in the
 business of creating and licensing software in the field of
 computational chemistry and represents and warrants to the
 licensee that it is not a competitor of Gaussian, Inc. and that
 it will not use this program in any manner prohibited above.
 ---------------------------------------------------------------
  

 Cite this work as:
 Gaussian 16, Revision A.03,
 M. J. Frisch, G. W. Trucks, H. B. Schlegel, G. E. Scuseria, 
 M. A. Robb, J. R. Cheeseman, G. Scalmani, V. Barone, 
 G. A. Petersson, H. Nakatsuji, X. Li, M. Caricato, A. V. Marenich, 
 J. Bloino, B. G. Janesko, R. Gomperts, B. Mennucci, H. P. Hratchian, 
 J. V. Ortiz, A. F. Izmaylov, J. L. Sonnenberg, D. Williams-Young, 
 F. Ding, F. Lipparini, F. Egidi, J. Goings, B. Peng, A. Petrone, 
 T. Henderson, D. Ranasinghe, V. G. Zakrzewski, J. Gao, N. Rega, 
 G. Zheng, W. Liang, M. Hada, M. Ehara, K. Toyota, R. Fukuda, 
 J. Hasegawa, M. Ishida, T. Nakajima, Y. Honda, O. Kitao, H. Nakai, 
 T. Vreven, K. Throssell, J. A. Montgomery, Jr., J. E. Peralta, 
 F. Ogliaro, M. J. Bearpark, J. J. Heyd, E. N. Brothers, K. N. Kudin, 
 V. N. Staroverov, T. A. Keith, R. Kobayashi, J. Normand, 
 K. Raghavachari, A. P. Rendell, J. C. Burant, S. S. Iyengar, 
 J. Tomasi, M. Cossi, J. M. Millam, M. Klene, C. Adamo, R. Cammi, 
 J. W. Ochterski, R. L. Martin, K. Morokuma, O. Farkas, 
 J. B. Foresman, and D. J. Fox, Gaussian, Inc., Wallingford CT, 2016.
 
 ******************************************
 Gaussian 16:  ES64L-G16RevA.03 25-Dec-2016
                18-Oct-2019 
 ******************************************
 %chk=irc2_cpcm_benzene.chk
 %nprocshared=24
 Will use up to   24 processors via shared memory.
 ----------------------------------------------------------------------
 #p irc=(lqa,calcfc,recalc=5,maxpoint=30) b3lyp scrf=(cpcm,solvent=benz
 ene) def2tzvp em=gd3bj
 ----------------------------------------------------------------------
 1/10=4,18=10,26=3,38=1,42=30,44=3,45=2,71=5,172=1/1,23;
 2/12=2,17=6,18=5,29=1,40=1/2;
 3/5=44,7=101,11=2,25=1,30=1,70=2101,71=2,72=12,74=-5,124=41,140=1/1,2,3;
 4//1;
 5/5=2,38=5,53=12/2;
 8/6=4,10=90,11=11/1;
 11/6=1,8=1,9=11,15=111,16=1/1,2,10;
 10/6=1,13=1/2;
 6/7=2,8=2,9=2,10=2,28=1/1;
 7/10=1,18=20,25=1/1,2,3,16;
 1/10=4,18=10,26=3,42=30,44=3,45=2,71=5/23(2);
 2/29=1/2;
 99/5=20/99;
 2/29=1/2;
 3/5=44,7=101,11=2,25=1,30=1,70=2105,71=2,72=12,74=-5,124=41,140=1/1,2,3;
 4/5=5,16=3,69=1/1;
 5/5=2,38=5,53=12/2;
 8/6=4,10=90,11=11/1;
 11/6=1,8=1,9=11,15=111,16=1/1,2,10;
 10/6=1,13=1/2;
 7/10=1,18=20,25=1/1,2,3,16;
 1/18=10,26=3,42=30,44=3,45=2,71=5/23(-8);
 2/29=1/2;
 6/7=2,8=2,9=2,10=2,19=2,28=1/1;
 99/5=20,9=1/99;
 Leave Link    1 at Fri Oct 18 03:22:41 2019, MaxMem=           0 cpu:               9.9 elap:               0.4
 (Enter /share/home/wli/program/opt/Chem_soft/g16/l101.exe)
 -------------------
 Title Card Required
 -------------------
 Symbolic Z-matrix:
 Charge = -1 Multiplicity = 1
 C                    -0.73224  0.         0.00096 
 H                    -0.76134   0.89894  -0.57907 
 H                    -0.76132  -0.95186  -0.4874 
 H                    -0.76127   0.05293   1.06951 
 Cl                   -3.13896   0.       -0.00026 
 Br                    1.71542   0.       -0.00012 
 
 ITRead=  0  0  0  0  0  0
 MicOpt= -1 -1 -1 -1 -1 -1
 NAtoms=      6 NQM=        6 NQMF=       0 NMMI=      0 NMMIF=      0
                NMic=       0 NMicF=      0.
                    Isotopes and Nuclear Properties:
 (Nuclear quadrupole moments (NQMom) in fm**2, nuclear magnetic moments (NMagM)
  in nuclear magnetons)

  Atom         1           2           3           4           5           6
 IAtWgt=          12           1           1           1          35          79
 AtmWgt=  12.0000000   1.0078250   1.0078250   1.0078250  34.9688527  78.9183361
 NucSpn=           0           1           1           1           3           3
 AtZEff=  -0.0000000  -0.0000000  -0.0000000  -0.0000000  -0.0000000  -0.0000000
 NQMom=    0.0000000   0.0000000   0.0000000   0.0000000  -8.1650000  31.3000000
 NMagM=    0.0000000   2.7928460   2.7928460   2.7928460   0.8218740   2.1063990
 AtZNuc=   6.0000000   1.0000000   1.0000000   1.0000000  17.0000000  35.0000000
 Leave Link  101 at Fri Oct 18 03:22:42 2019, MaxMem=   104857600 cpu:               3.6 elap:               0.2
 (Enter /share/home/wli/program/opt/Chem_soft/g16/l123.exe)
 IRC-IRC-IRC-IRC-IRC-IRC-IRC-IRC-IRC-IRC-IRC-IRC-IRC-IRC-IRC-IRC-IRC-IRC
 ------------------------------------------------------------------------
 INPUT DATA FOR L123
 ------------------------------------------------------------------------
 GENERAL PARAMETERS:
 Follow reaction path in both directions.
 Maximum points per path      =  30
 Step size                    =   0.100 bohr
 Integration scheme           = LQA                                 
 Initial Hessian              = CalcFC
 Hessian evaluation           = Analytic every   5 predictor steps
                              = Update at all corrector steps
 Hessian updating method      = Bofill                              
 ------------------------------------------------------------------------
 IRC-IRC-IRC-IRC-IRC-IRC-IRC-IRC-IRC-IRC-IRC-IRC-IRC-IRC-IRC-IRC-IRC-IRC
 Leave Link  123 at Fri Oct 18 03:22:42 2019, MaxMem=   104857600 cpu:               0.3 elap:               0.0
 (Enter /share/home/wli/program/opt/Chem_soft/g16/l202.exe)
                          Input orientation:                          
 ---------------------------------------------------------------------
 Center     Atomic      Atomic             Coordinates (Angstroms)
 Number     Number       Type             X           Y           Z
 ---------------------------------------------------------------------
      1          6           0       -0.732240   -0.000001    0.000955
      2          1           0       -0.761342    0.898939   -0.579068
      3          1           0       -0.761315   -0.951857   -0.487404
      4          1           0       -0.761272    0.052929    1.069507
      5         17           0       -3.138959    0.000000   -0.000260
      6         35           0        1.715419    0.000000   -0.000124
 ---------------------------------------------------------------------
                    Distance matrix (angstroms):
                    1          2          3          4          5
     1  C    0.000000
     2  H    1.070218   0.000000
     3  H    1.070219   1.853065   0.000000
     4  H    1.070256   1.852979   1.852989   0.000000
     5  Cl   2.406719   2.606947   2.607016   2.607796   0.000000
     6  Br   2.447659   2.697705   2.697718   2.698316   4.854378
                    6
     6  Br   0.000000
 Symmetry turned off by external request.
 This structure is nearly, but not quite of a higher symmetry.
 Consider Symm=Loose if the higher symmetry is desired.
 Stoichiometry    CH3BrCl(1-)
 Framework group  C1[X(CH3BrCl)]
 Deg. of freedom    12
 Full point group                 C1      NOp   1
 Rotational constants (GHZ):         146.0407156           0.8638061           0.8638058
 Leave Link  202 at Fri Oct 18 03:22:42 2019, MaxMem=   104857600 cpu:               1.0 elap:               0.1
 (Enter /share/home/wli/program/opt/Chem_soft/g16/l301.exe)
 Standard basis: def2TZVP (5D, 7F)
 Ernie: Thresh=  0.10000D-02 Tol=  0.10000D-05 Strict=F.
   134 basis functions,   258 primitive gaussians,   151 cartesian basis functions
    31 alpha electrons       31 beta electrons
       nuclear repulsion energy       173.3928205928 Hartrees.
 IExCor=  402 DFT=T Ex+Corr=B3LYP ExCW=0 ScaHFX=  0.200000
 ScaDFX=  0.800000  0.720000  1.000000  0.810000 ScalE2=  1.000000  1.000000
 IRadAn=      5 IRanWt=     -1 IRanGd=            0 ICorTp=0 IEmpDi=141
 NAtoms=    6 NActive=    6 NUniq=    6 SFac= 1.00D+00 NAtFMM=   60 NAOKFM=F Big=F
 Integral buffers will be    131072 words long.
 Raffenetti 2 integral format.
 Two-electron integral symmetry is turned off.
 R6Disp:  Grimme-D3(BJ) Dispersion energy=       -0.0069983940 Hartrees.
 Nuclear repulsion after empirical dispersion term =      173.3858221988 Hartrees.
 Force inversion solution in PCM.
 ------------------------------------------------------------------------------
 Polarizable Continuum Model (PCM)
 =================================
 Model                : C-PCM.
 Atomic radii         : UFF (Universal Force Field).
 Polarization charges : Total charges.
 Charge compensation  : None.
 Solution method      : Matrix inversion.
 Cavity type          : Scaled VdW (van der Waals Surface) (Alpha=1.100).
 Cavity algorithm     : GePol (No added spheres)
                        Default sphere list used, NSphG=    6.
                        Lebedev-Laikov grids with approx.  5.0 points / Ang**2.
                        Smoothing algorithm: York/Karplus (Gamma=1.0000).
                        Polarization charges: spherical gaussians, with
                                              point-specific exponents (IZeta= 3).
                        Self-potential: point-specific (ISelfS= 7).
                        Self-field    : sphere-specific E.n sum rule (ISelfD= 2).
 1st derivatives      : Analytical E(r).r(x)/FMM algorithm (CHGder, D1EAlg=3).
                        Cavity 1st derivative terms included.
 2nd derivatives      : Analytical E(r).r(xy)/FMM algorithm (CHGder, D2EAlg=3).
                        Cavity 2nd derivative terms included.
 Solvent              : Benzene, Eps=   2.270600 Eps(inf)=   2.253301
 ------------------------------------------------------------------------------
 Spheres list:
 ISph  on   Nord     Re0    Alpha      Xe            Ye            Ze
    1   C      1    1.9255  1.100     -0.732240     -0.000001      0.000955
    2   H      2    1.4430  1.100     -0.761342      0.898939     -0.579068
    3   H      3    1.4430  1.100     -0.761315     -0.951857     -0.487404
    4   H      4    1.4430  1.100     -0.761272      0.052929      1.069507
    5  Cl      5    1.9735  1.100     -3.138959      0.000000     -0.000260
    6  Br      6    2.0945  1.100      1.715419      0.000000     -0.000124
 ------------------------------------------------------------------------------
 GePol: Number of generator spheres                  =       6
 GePol: Total number of spheres                      =       6
 GePol: Number of exposed spheres                    =       6 (100.00%)
 GePol: Number of points                             =     874
 GePol: Average weight of points                     =       0.16
 GePol: Minimum weight of points                     =   0.35D-06
 GePol: Maximum weight of points                     =    0.21616
 GePol: Number of points with low weight             =      22
 GePol: Fraction of low-weight points (<1% of avg)   =       2.52%
 GePol: Cavity surface area                          =    136.426 Ang**2
 GePol: Cavity volume                                =    119.822 Ang**3
 Leave Link  301 at Fri Oct 18 03:22:42 2019, MaxMem=   104857600 cpu:               3.1 elap:               0.2
 (Enter /share/home/wli/program/opt/Chem_soft/g16/l302.exe)
 NPDir=0 NMtPBC=     1 NCelOv=     1 NCel=       1 NClECP=     1 NCelD=      1
         NCelK=      1 NCelE2=     1 NClLst=     1 CellRange=     0.0.
 One-electron integrals computed using PRISM.
 PrsmSu:  requested number of processors reduced to:  13 ShMem   1 Linda.
   1 Symmetry operations used in ECPInt.
 ECPInt:  NShTT=    1378 NPrTT=    5593 LenC2=    1324 LenP2D=    4260.
 LDataN:  DoStor=T MaxTD1= 6 Len=  172
 NBasis=   134 RedAO= T EigKep=  1.43D-03  NBF=   134
 NBsUse=   134 1.00D-06 EigRej= -1.00D+00 NBFU=   134
 Precomputing XC quadrature grid using
 IXCGrd= 4 IRadAn=           5 IRanWt=          -1 IRanGd=           0 AccXCQ= 0.00D+00.
 Generated NRdTot=       0 NPtTot=           0 NUsed=           0 NTot=          32
 NSgBfM=   150   150   150   150   150 MxSgAt=     6 MxSgA2=     6.
 Leave Link  302 at Fri Oct 18 03:22:42 2019, MaxMem=   104857600 cpu:               7.2 elap:               0.3
 (Enter /share/home/wli/program/opt/Chem_soft/g16/l303.exe)
 DipDrv:  MaxL=1.
 Leave Link  303 at Fri Oct 18 03:22:42 2019, MaxMem=   104857600 cpu:               1.4 elap:               0.1
 (Enter /share/home/wli/program/opt/Chem_soft/g16/l401.exe)
 ExpMin= 9.52D-02 ExpMax= 5.65D+05 ExpMxC= 5.46D+03 IAcc=3 IRadAn=         5 AccDes= 0.00D+00
 Harris functional with IExCor=  402 and IRadAn=       5 diagonalized for initial guess.
 HarFok:  IExCor=  402 AccDes= 0.00D+00 IRadAn=         5 IDoV= 1 UseB2=F ITyADJ=14
 ICtDFT=  3500011 ScaDFX=  1.000000  1.000000  1.000000  1.000000
 FoFCou: FMM=F IPFlag=           0 FMFlag=      100000 FMFlg1=           0
         NFxFlg=           0 DoJE=T BraDBF=F KetDBF=T FulRan=T
         wScrn=  0.000000 ICntrl=       500 IOpCl=  0 I1Cent=   200000004 NGrid=           0
         NMat0=    1 NMatS0=      1 NMatT0=    0 NMatD0=    1 NMtDS0=    0 NMtDT0=    0
 Symmetry not used in FoFCou.
 Harris En= -3074.56820497613    
 JPrj=0 DoOrth=F DoCkMO=F.
 Leave Link  401 at Fri Oct 18 03:22:43 2019, MaxMem=   104857600 cpu:               9.0 elap:               0.4
 (Enter /share/home/wli/program/opt/Chem_soft/g16/l502.exe)
 Keep R1 ints in memory in canonical form, NReq=64314760.
 FoFCou: FMM=F IPFlag=           0 FMFlag=           0 FMFlg1=           0
         NFxFlg=           0 DoJE=F BraDBF=F KetDBF=F FulRan=T
         wScrn=  0.000000 ICntrl=       600 IOpCl=  0 I1Cent=           0 NGrid=           0
         NMat0=    1 NMatS0=   9045 NMatT0=    0 NMatD0=    1 NMtDS0=    0 NMtDT0=    0
 Symmetry not used in FoFCou.
 Two-electron integral symmetry not used.
 Closed shell SCF:
 Using DIIS extrapolation, IDIIS=  1040.
 NGot=   104857600 LenX=    63896738 LenY=    63873496
 Requested convergence on RMS density matrix=1.00D-08 within 128 cycles.
 Requested convergence on MAX density matrix=1.00D-06.
 Requested convergence on             energy=1.00D-06.
 No special actions if energy rises.

 Cycle   1  Pass 1  IDiag  1:
 Inv3:  Mode=1 IEnd=     2291628.
 Iteration    1 A*A^-1 deviation from unit magnitude is 3.77D-15 for    252.
 Iteration    1 A*A^-1 deviation from orthogonality  is 1.32D-15 for    223    115.
 Iteration    1 A^-1*A deviation from unit magnitude is 3.55D-15 for    252.
 Iteration    1 A^-1*A deviation from orthogonality  is 2.99D-15 for    447    252.
 E= -3074.37456199737    
 DIIS: error= 4.92D-02 at cycle   1 NSaved=   1.
 NSaved= 1 IEnMin= 1 EnMin= -3074.37456199737     IErMin= 1 ErrMin= 4.92D-02
 ErrMax= 4.92D-02  0.00D+00 EMaxC= 1.00D-01 BMatC= 2.15D-01 BMatP= 2.15D-01
 IDIUse=3 WtCom= 5.08D-01 WtEn= 4.92D-01
 Coeff-Com:  0.100D+01
 Coeff-En:   0.100D+01
 Coeff:      0.100D+01
 Gap=     0.317 Goal=   None    Shift=    0.000
 GapD=    0.317 DampG=1.000 DampE=0.500 DampFc=0.5000 IDamp=-1.
 Damping current iteration by 5.00D-01
 RMSDP=4.61D-03 MaxDP=1.36D-01              OVMax= 2.87D-01

 Cycle   2  Pass 1  IDiag  1:
 E= -3074.42048885844     Delta-E=       -0.045926861067 Rises=F Damp=T
 DIIS: error= 2.01D-02 at cycle   2 NSaved=   2.
 NSaved= 2 IEnMin= 2 EnMin= -3074.42048885844     IErMin= 2 ErrMin= 2.01D-02
 ErrMax= 2.01D-02  0.00D+00 EMaxC= 1.00D-01 BMatC= 2.62D-02 BMatP= 2.15D-01
 IDIUse=3 WtCom= 7.99D-01 WtEn= 2.01D-01
 Coeff-Com: -0.190D+00 0.119D+01
 Coeff-En:   0.180D-01 0.982D+00
 Coeff:     -0.148D+00 0.115D+01
 Gap=     0.188 Goal=   None    Shift=    0.000
 RMSDP=1.48D-03 MaxDP=4.33D-02 DE=-4.59D-02 OVMax= 2.01D-01

 Cycle   3  Pass 1  IDiag  1:
 E= -3074.45057254867     Delta-E=       -0.030083690232 Rises=F Damp=F
 DIIS: error= 1.35D-02 at cycle   3 NSaved=   3.
 NSaved= 3 IEnMin= 3 EnMin= -3074.45057254867     IErMin= 3 ErrMin= 1.35D-02
 ErrMax= 1.35D-02  0.00D+00 EMaxC= 1.00D-01 BMatC= 2.03D-02 BMatP= 2.62D-02
 IDIUse=3 WtCom= 8.65D-01 WtEn= 1.35D-01
 Coeff-Com: -0.192D+00 0.645D+00 0.547D+00
 Coeff-En:   0.000D+00 0.000D+00 0.100D+01
 Coeff:     -0.166D+00 0.558D+00 0.608D+00
 Gap=     0.208 Goal=   None    Shift=    0.000
 RMSDP=1.02D-03 MaxDP=2.59D-02 DE=-3.01D-02 OVMax= 1.16D-01

 Cycle   4  Pass 1  IDiag  1:
 E= -3074.46946159341     Delta-E=       -0.018889044737 Rises=F Damp=F
 DIIS: error= 5.13D-03 at cycle   4 NSaved=   4.
 NSaved= 4 IEnMin= 4 EnMin= -3074.46946159341     IErMin= 4 ErrMin= 5.13D-03
 ErrMax= 5.13D-03  0.00D+00 EMaxC= 1.00D-01 BMatC= 3.15D-03 BMatP= 2.03D-02
 IDIUse=3 WtCom= 9.49D-01 WtEn= 5.13D-02
 Coeff-Com: -0.178D-01 0.659D-01 0.298D+00 0.654D+00
 Coeff-En:   0.000D+00 0.000D+00 0.158D+00 0.842D+00
 Coeff:     -0.169D-01 0.626D-01 0.290D+00 0.664D+00
 Gap=     0.197 Goal=   None    Shift=    0.000
 RMSDP=3.67D-04 MaxDP=9.88D-03 DE=-1.89D-02 OVMax= 3.34D-02

 Cycle   5  Pass 1  IDiag  1:
 E= -3074.47295389499     Delta-E=       -0.003492301586 Rises=F Damp=F
 DIIS: error= 8.74D-04 at cycle   5 NSaved=   5.
 NSaved= 5 IEnMin= 5 EnMin= -3074.47295389499     IErMin= 5 ErrMin= 8.74D-04
 ErrMax= 8.74D-04  0.00D+00 EMaxC= 1.00D-01 BMatC= 1.15D-04 BMatP= 3.15D-03
 IDIUse=3 WtCom= 9.91D-01 WtEn= 8.74D-03
 Coeff-Com: -0.956D-02 0.189D-01 0.142D+00 0.336D+00 0.512D+00
 Coeff-En:   0.000D+00 0.000D+00 0.000D+00 0.000D+00 0.100D+01
 Coeff:     -0.948D-02 0.187D-01 0.141D+00 0.333D+00 0.517D+00
 Gap=     0.198 Goal=   None    Shift=    0.000
 RMSDP=9.66D-05 MaxDP=3.89D-03 DE=-3.49D-03 OVMax= 5.71D-03

 Cycle   6  Pass 1  IDiag  1:
 E= -3074.47303978087     Delta-E=       -0.000085885877 Rises=F Damp=F
 DIIS: error= 1.35D-04 at cycle   6 NSaved=   6.
 NSaved= 6 IEnMin= 6 EnMin= -3074.47303978087     IErMin= 6 ErrMin= 1.35D-04
 ErrMax= 1.35D-04  0.00D+00 EMaxC= 1.00D-01 BMatC= 5.79D-06 BMatP= 1.15D-04
 IDIUse=3 WtCom= 9.99D-01 WtEn= 1.35D-03
 Coeff-Com: -0.102D-02 0.595D-03 0.270D-01 0.660D-01 0.211D+00 0.696D+00
 Coeff-En:   0.000D+00 0.000D+00 0.000D+00 0.000D+00 0.000D+00 0.100D+01
 Coeff:     -0.102D-02 0.594D-03 0.270D-01 0.659D-01 0.211D+00 0.697D+00
 Gap=     0.198 Goal=   None    Shift=    0.000
 RMSDP=2.50D-05 MaxDP=6.73D-04 DE=-8.59D-05 OVMax= 2.10D-03

 Cycle   7  Pass 1  IDiag  1:
 E= -3074.47304496833     Delta-E=       -0.000005187458 Rises=F Damp=F
 DIIS: error= 1.01D-04 at cycle   7 NSaved=   7.
 NSaved= 7 IEnMin= 7 EnMin= -3074.47304496833     IErMin= 7 ErrMin= 1.01D-04
 ErrMax= 1.01D-04  0.00D+00 EMaxC= 1.00D-01 BMatC= 8.81D-07 BMatP= 5.79D-06
 IDIUse=3 WtCom= 9.99D-01 WtEn= 1.01D-03
 Coeff-Com:  0.552D-03-0.146D-02-0.494D-02-0.127D-01 0.355D-01 0.350D+00
 Coeff-Com:  0.633D+00
 Coeff-En:   0.000D+00 0.000D+00 0.000D+00 0.000D+00 0.000D+00 0.795D-01
 Coeff-En:   0.921D+00
 Coeff:      0.551D-03-0.146D-02-0.493D-02-0.127D-01 0.354D-01 0.350D+00
 Coeff:      0.633D+00
 Gap=     0.198 Goal=   None    Shift=    0.000
 RMSDP=8.07D-06 MaxDP=3.34D-04 DE=-5.19D-06 OVMax= 5.18D-04

 Cycle   8  Pass 1  IDiag  1:
 E= -3074.47304583586     Delta-E=       -0.000000867528 Rises=F Damp=F
 DIIS: error= 7.25D-06 at cycle   8 NSaved=   8.
 NSaved= 8 IEnMin= 8 EnMin= -3074.47304583586     IErMin= 8 ErrMin= 7.25D-06
 ErrMax= 7.25D-06  0.00D+00 EMaxC= 1.00D-01 BMatC= 7.01D-09 BMatP= 8.81D-07
 IDIUse=1 WtCom= 1.00D+00 WtEn= 0.00D+00
 Coeff-Com:  0.117D-03-0.222D-03-0.126D-02-0.346D-02-0.943D-03 0.294D-01
 Coeff-Com:  0.127D+00 0.849D+00
 Coeff:      0.117D-03-0.222D-03-0.126D-02-0.346D-02-0.943D-03 0.294D-01
 Coeff:      0.127D+00 0.849D+00
 Gap=     0.198 Goal=   None    Shift=    0.000
 RMSDP=8.69D-07 MaxDP=2.94D-05 DE=-8.68D-07 OVMax= 5.94D-05

 Cycle   9  Pass 1  IDiag  1:
 E= -3074.47304584433     Delta-E=       -0.000000008469 Rises=F Damp=F
 DIIS: error= 2.07D-06 at cycle   9 NSaved=   9.
 NSaved= 9 IEnMin= 9 EnMin= -3074.47304584433     IErMin= 9 ErrMin= 2.07D-06
 ErrMax= 2.07D-06  0.00D+00 EMaxC= 1.00D-01 BMatC= 4.33D-10 BMatP= 7.01D-09
 IDIUse=1 WtCom= 1.00D+00 WtEn= 0.00D+00
 Coeff-Com:  0.444D-04-0.787D-04-0.346D-03-0.982D-03-0.148D-02 0.243D-03
 Coeff-Com:  0.232D-01 0.309D+00 0.670D+00
 Coeff:      0.444D-04-0.787D-04-0.346D-03-0.982D-03-0.148D-02 0.243D-03
 Coeff:      0.232D-01 0.309D+00 0.670D+00
 Gap=     0.198 Goal=   None    Shift=    0.000
 RMSDP=1.26D-07 MaxDP=3.20D-06 DE=-8.47D-09 OVMax= 4.97D-06

 Cycle  10  Pass 1  IDiag  1:
 E= -3074.47304584471     Delta-E=       -0.000000000383 Rises=F Damp=F
 DIIS: error= 4.82D-07 at cycle  10 NSaved=  10.
 NSaved=10 IEnMin=10 EnMin= -3074.47304584471     IErMin=10 ErrMin= 4.82D-07
 ErrMax= 4.82D-07  0.00D+00 EMaxC= 1.00D-01 BMatC= 2.20D-11 BMatP= 4.33D-10
 IDIUse=1 WtCom= 1.00D+00 WtEn= 0.00D+00
 Coeff-Com:  0.510D-05-0.105D-04 0.578D-05-0.154D-04-0.409D-03-0.221D-02
 Coeff-Com: -0.509D-02 0.250D-01 0.164D+00 0.819D+00
 Coeff:      0.510D-05-0.105D-04 0.578D-05-0.154D-04-0.409D-03-0.221D-02
 Coeff:     -0.509D-02 0.250D-01 0.164D+00 0.819D+00
 Gap=     0.198 Goal=   None    Shift=    0.000
 RMSDP=4.38D-08 MaxDP=1.26D-06 DE=-3.83D-10 OVMax= 2.85D-06

 Cycle  11  Pass 1  IDiag  1:
 E= -3074.47304584474     Delta-E=       -0.000000000033 Rises=F Damp=F
 DIIS: error= 4.32D-08 at cycle  11 NSaved=  11.
 NSaved=11 IEnMin=11 EnMin= -3074.47304584474     IErMin=11 ErrMin= 4.32D-08
 ErrMax= 4.32D-08  0.00D+00 EMaxC= 1.00D-01 BMatC= 2.89D-13 BMatP= 2.20D-11
 IDIUse=1 WtCom= 1.00D+00 WtEn= 0.00D+00
 Coeff-Com:  0.197D-06-0.502D-06 0.517D-05 0.977D-05-0.521D-04-0.381D-03
 Coeff-Com: -0.117D-02 0.275D-04 0.197D-01 0.189D+00 0.793D+00
 Coeff:      0.197D-06-0.502D-06 0.517D-05 0.977D-05-0.521D-04-0.381D-03
 Coeff:     -0.117D-02 0.275D-04 0.197D-01 0.189D+00 0.793D+00
 Gap=     0.198 Goal=   None    Shift=    0.000
 RMSDP=3.84D-09 MaxDP=9.92D-08 DE=-3.27D-11 OVMax= 2.52D-07

 Error on total polarization charges =  0.01262
 SCF Done:  E(RB3LYP) =  -3074.47304584     A.U. after   11 cycles
            NFock= 11  Conv=0.38D-08     -V/T= 2.0015
 KE= 3.069819392978D+03 PE=-7.699883021692D+03 EE= 1.382204760671D+03
 Leave Link  502 at Fri Oct 18 03:22:48 2019, MaxMem=   104857600 cpu:             108.1 elap:               5.2
 (Enter /share/home/wli/program/opt/Chem_soft/g16/l801.exe)
 DoSCS=F DFT=T ScalE2(SS,OS)=  1.000000  1.000000
 Range of M.O.s used for correlation:     1   134
 NBasis=   134 NAE=    31 NBE=    31 NFC=     0 NFV=     0
 NROrb=    134 NOA=    31 NOB=    31 NVA=   103 NVB=   103
 Leave Link  801 at Fri Oct 18 03:22:48 2019, MaxMem=   104857600 cpu:               1.0 elap:               0.1
 (Enter /share/home/wli/program/opt/Chem_soft/g16/l1101.exe)
 Using compressed storage, NAtomX=     6.
 Will process      7 centers per pass.
 PrsmSu:  requested number of processors reduced to:  11 ShMem   1 Linda.
   1 Symmetry operations used in ECPInt.
 ECPInt:  NShTT=    1378 NPrTT=    5593 LenC2=    1324 LenP2D=    4260.
 LDataN:  DoStor=T MaxTD1= 7 Len=  274
 Number of processors reduced to  18 by ecpmxn.
 R6Disp: Adding Grimme-D3(BJ) dispersion energy 1st derivatives to the gradient.
 Leave Link 1101 at Fri Oct 18 03:22:48 2019, MaxMem=   104857600 cpu:               9.0 elap:               0.4
 (Enter /share/home/wli/program/opt/Chem_soft/g16/l1102.exe)
 Symmetrizing basis deriv contribution to polar:
 IMax=3 JMax=2 DiffMx= 0.00D+00
 Leave Link 1102 at Fri Oct 18 03:22:49 2019, MaxMem=   104857600 cpu:               2.5 elap:               0.1
 (Enter /share/home/wli/program/opt/Chem_soft/g16/l1110.exe)
 Forming Gx(P) for the SCF density, NAtomX=     6.
 Integral derivatives from FoFJK, PRISM(SPDF).
 Do as many integral derivatives as possible in FoFJK.
 G2DrvN: MDV=     104857044.
 G2DrvN: will do     7 centers at a time, making    1 passes.
 Calling FoFCou, ICntrl=  3107 FMM=F I1Cent=   0 AccDes= 0.00D+00.
 FoFJK:  IHMeth= 1 ICntrl=    3107 DoSepK=F KAlg= 0 I1Cent=           0 FoldK=F
 IRaf=         0 NMat=       1 IRICut=       1 DoRegI=T DoRafI=F ISym2E= 0 IDoP0=0 IntGTp=1.
 FoFCou: FMM=F IPFlag=           0 FMFlag=      100000 FMFlg1=           0
         NFxFlg=           0 DoJE=F BraDBF=F KetDBF=F FulRan=T
         wScrn=  0.000000 ICntrl=      3107 IOpCl=  0 I1Cent=           0 NGrid=           0
         NMat0=    1 NMatS0=      1 NMatT0=    0 NMatD0=    1 NMtDS0=    0 NMtDT0=    0
 Symmetry not used in FoFCou.
 NEqPCM:  Using equilibrium solvation (IEInf=0, Eps=   2.2706, EpsInf=   2.2533)
 G2PCM: DoFxE=T DoFxN=T DoGrad=T DoDP/DQ/DG/TGxP=FFFF NFrqRd=   0 IEInf=0 SqF1=F DoCFld=F IF1Alg=4.
 GePol: Maximum number of non-zero 1st derivatives   =     378
 CoulSu:  requested number of processors reduced to:  17 ShMem   1 Linda.
 CoulSu:  requested number of processors reduced to:  23 ShMem   1 Linda.
 End of G2Drv F.D. properties file   721 does not exist.
 End of G2Drv F.D. properties file   722 does not exist.
 End of G2Drv F.D. properties file   788 does not exist.
 Leave Link 1110 at Fri Oct 18 03:22:53 2019, MaxMem=   104857600 cpu:              97.2 elap:               4.1
 (Enter /share/home/wli/program/opt/Chem_soft/g16/l1002.exe)
 Minotr:  Closed shell wavefunction.
          IDoAtm=111111
 NEqPCM:  Using equilibrium solvation (IEInf=0, Eps=   2.2706, EpsInf=   2.2533)
          Direct CPHF calculation.
          Differentiating once with respect to nuclear coordinates.
          Requested convergence is 1.0D-08 RMS, and 1.0D-07 maximum.
          Secondary convergence is 1.0D-12 RMS, and 1.0D-12 maximum.
          NewPWx=T KeepS1=F KeepF1=F KeepIn=T MapXYZ=F SortEE=F KeepMc=T.
         1761 words used for storage of precomputed grid.
 Keep R1 ints in memory in canonical form, NReq=64236277.
 FoFCou: FMM=F IPFlag=           0 FMFlag=           0 FMFlg1=           0
         NFxFlg=           0 DoJE=F BraDBF=F KetDBF=F FulRan=T
         wScrn=  0.000000 ICntrl=       600 IOpCl=  0 I1Cent=           0 NGrid=           0
         NMat0=    1 NMatS0=   9045 NMatT0=    0 NMatD0=    1 NMtDS0=    0 NMtDT0=    0
 Symmetry not used in FoFCou.
 Two-electron integral symmetry not used.
          MDV=     104857600 using IRadAn=       1.
          Solving linear equations simultaneously, MaxMat=       0.
 CoulSu:  requested number of processors reduced to:  13 ShMem   1 Linda.
 CoulSu:  requested number of processors reduced to:  13 ShMem   1 Linda.
          There are    21 degrees of freedom in the 1st order CPHF.  IDoFFX=6 NUNeed=     0.
     15 vectors produced by pass  0 Test12= 1.52D-14 4.76D-09 XBig12= 1.57D-01 3.33D-01.
 AX will form    15 AO Fock derivatives at one time.
 CoulSu:  requested number of processors reduced to:  16 ShMem   1 Linda.
 CoulSu:  requested number of processors reduced to:  15 ShMem   1 Linda.
     15 vectors produced by pass  1 Test12= 1.52D-14 4.76D-09 XBig12= 2.27D-02 5.23D-02.
 CoulSu:  requested number of processors reduced to:  16 ShMem   1 Linda.
 CoulSu:  requested number of processors reduced to:  15 ShMem   1 Linda.
     15 vectors produced by pass  2 Test12= 1.52D-14 4.76D-09 XBig12= 1.08D-03 9.03D-03.
 CoulSu:  requested number of processors reduced to:  16 ShMem   1 Linda.
 CoulSu:  requested number of processors reduced to:  15 ShMem   1 Linda.
     15 vectors produced by pass  3 Test12= 1.52D-14 4.76D-09 XBig12= 4.41D-05 1.59D-03.
 CoulSu:  requested number of processors reduced to:  16 ShMem   1 Linda.
 CoulSu:  requested number of processors reduced to:  15 ShMem   1 Linda.
     15 vectors produced by pass  4 Test12= 1.52D-14 4.76D-09 XBig12= 9.63D-07 2.70D-04.
 CoulSu:  requested number of processors reduced to:  16 ShMem   1 Linda.
 CoulSu:  requested number of processors reduced to:  15 ShMem   1 Linda.
     14 vectors produced by pass  5 Test12= 1.52D-14 4.76D-09 XBig12= 5.79D-09 2.45D-05.
 CoulSu:  requested number of processors reduced to:  17 ShMem   1 Linda.
 CoulSu:  requested number of processors reduced to:  16 ShMem   1 Linda.
      8 vectors produced by pass  6 Test12= 1.52D-14 4.76D-09 XBig12= 5.31D-11 2.14D-06.
 CoulSu:  requested number of processors reduced to:  21 ShMem   1 Linda.
 CoulSu:  requested number of processors reduced to:  20 ShMem   1 Linda.
      2 vectors produced by pass  7 Test12= 1.52D-14 4.76D-09 XBig12= 7.27D-14 5.38D-08.
 InvSVY:  IOpt=1 It=  1 EMax= 9.99D-16
 Solved reduced A of dimension    99 with    15 vectors.
 End of Minotr F.D. properties file   721 does not exist.
 End of Minotr F.D. properties file   722 does not exist.
 End of Minotr F.D. properties file   788 does not exist.
 Leave Link 1002 at Fri Oct 18 03:23:01 2019, MaxMem=   104857600 cpu:             189.2 elap:               8.6
 (Enter /share/home/wli/program/opt/Chem_soft/g16/l601.exe)
 Copying SCF densities to generalized density rwf, IOpCl= 0 IROHF=0.

 **********************************************************************

            Population analysis using the SCF density.

 **********************************************************************

 Alpha  occ. eigenvalues -- -482.72497-101.36422 -62.37351 -56.18829 -56.18672
 Alpha  occ. eigenvalues --  -56.18672 -10.16549  -9.29625  -8.56436  -7.05425
 Alpha  occ. eigenvalues --   -7.05102  -7.05102  -6.38976  -6.38492  -6.38492
 Alpha  occ. eigenvalues --   -2.50489  -2.50359  -2.50359  -2.49974  -2.49974
 Alpha  occ. eigenvalues --   -0.67663  -0.64388  -0.59877  -0.38213  -0.38212
 Alpha  occ. eigenvalues --   -0.25262  -0.19068  -0.19068  -0.18382  -0.18381
 Alpha  occ. eigenvalues --   -0.17269
 Alpha virt. eigenvalues --    0.02537   0.11624   0.17813   0.17815   0.25893
 Alpha virt. eigenvalues --    0.26516   0.26517   0.32941   0.33687   0.33688
 Alpha virt. eigenvalues --    0.38970   0.38971   0.40427   0.41541   0.41541
 Alpha virt. eigenvalues --    0.46453   0.46800   0.46802   0.49837   0.52992
 Alpha virt. eigenvalues --    0.52998   0.55186   0.57623   0.57630   0.57991
 Alpha virt. eigenvalues --    0.57993   0.61108   0.84138   0.84140   0.84528
 Alpha virt. eigenvalues --    1.02459   1.02463   1.03515   1.17143   1.41789
 Alpha virt. eigenvalues --    1.44094   1.44095   1.45728   1.45731   1.50913
 Alpha virt. eigenvalues --    1.51911   1.51917   1.52153   1.53267   1.62917
 Alpha virt. eigenvalues --    1.62917   1.64110   1.64154   1.69005   1.69006
 Alpha virt. eigenvalues --    1.70399   1.73460   1.73471   1.85332   1.85332
 Alpha virt. eigenvalues --    1.87976   1.89171   1.89174   1.99074   1.99086
 Alpha virt. eigenvalues --    2.02109   2.09680   2.11995   2.11999   2.20777
 Alpha virt. eigenvalues --    2.20778   2.22412   2.22520   2.31792   2.31799
 Alpha virt. eigenvalues --    2.34515   2.34523   2.35542   2.38405   2.51995
 Alpha virt. eigenvalues --    2.52028   2.68959   2.72582   2.72592   2.85008
 Alpha virt. eigenvalues --    3.12962   3.12965   3.26541   3.26548   3.31141
 Alpha virt. eigenvalues --    3.35020   3.35028   3.68153   3.90848   4.09603
 Alpha virt. eigenvalues --    4.09606   4.12834   4.12835   4.21575   4.21585
 Alpha virt. eigenvalues --    4.31901   4.75766   7.47504  10.81539  10.81540
 Alpha virt. eigenvalues --   10.93746  22.15878  24.64729
          Condensed to atoms (all electrons):
               1          2          3          4          5          6
     1  C    4.856808   0.410064   0.410060   0.409977   0.029486   0.034376
     2  H    0.410064   0.496917  -0.021866  -0.021888  -0.006451  -0.014398
     3  H    0.410060  -0.021866   0.496891  -0.021886  -0.006452  -0.014397
     4  H    0.409977  -0.021888  -0.021886   0.497006  -0.006401  -0.014344
     5  Cl   0.029486  -0.006451  -0.006452  -0.006401  17.662507   0.009957
     6  Br   0.034376  -0.014398  -0.014397  -0.014344   0.009957  35.638197
 Mulliken charges:
               1
     1  C   -0.150771
     2  H    0.157622
     3  H    0.157650
     4  H    0.157536
     5  Cl  -0.682647
     6  Br  -0.639391
 Sum of Mulliken charges =  -1.00000
 Mulliken charges with hydrogens summed into heavy atoms:
               1
     1  C    0.322038
     5  Cl  -0.682647
     6  Br  -0.639391
 APT charges:
               1
     1  C   -0.804434
     2  H    0.340427
     3  H    0.340464
     4  H    0.340554
     5  Cl  -0.638700
     6  Br  -0.578311
 Sum of APT charges =  -1.00000
 APT charges with hydrogens summed into heavy atoms:
               1
     1  C    0.217012
     5  Cl  -0.638700
     6  Br  -0.578311
 Electronic spatial extent (au):  <R**2>=           1122.0887
 Charge=             -1.0000 electrons
 Dipole moment (field-independent basis, Debye):
    X=              3.8531    Y=             -0.0001    Z=              0.0023  Tot=              3.8531
 Quadrupole moment (field-independent basis, Debye-Ang):
   XX=            -84.7475   YY=            -42.4793   ZZ=            -42.4804
   XY=             -0.0000   XZ=             -0.0032   YZ=              0.0000
 Traceless Quadrupole moment (field-independent basis, Debye-Ang):
   XX=            -28.1784   YY=             14.0897   ZZ=             14.0887
   XY=             -0.0000   XZ=             -0.0032   YZ=              0.0000
 Octapole moment (field-independent basis, Debye-Ang**2):
  XXX=            137.0385  YYY=             -0.1601  ZZZ=              1.0695  XYY=             14.9106
  XXY=             -0.0001  XXZ=              0.0024  XZZ=             14.9118  YZZ=              0.1597
  YYZ=             -1.0685  XYZ=              0.0000
 Hexadecapole moment (field-independent basis, Debye-Ang**3):
 XXXX=          -1655.7806 YYYY=            -61.2816 ZZZZ=            -61.2799 XXXY=             -0.0003
 XXXZ=             -0.0225 YYYX=              0.1194 YYYZ=             -0.0001 ZZZX=             -0.8083
 ZZZY=              0.0005 XXYY=           -234.8197 XXZZ=           -234.8215 YYZZ=            -20.4297
 XXYZ=              0.0000 YYXZ=              0.7953 ZZXY=             -0.1194
 N-N= 1.733858221988D+02 E-N=-7.699883020714D+03  KE= 3.069819392978D+03
  Exact polarizability:   0.000   0.000   0.000   0.000   0.000   0.000
 Approx polarizability: 205.310  -0.000  60.598  -0.000  -0.000  60.599
 No NMR shielding tensors so no spin-rotation constants.
 Leave Link  601 at Fri Oct 18 03:23:02 2019, MaxMem=   104857600 cpu:              11.4 elap:               0.5
 (Enter /share/home/wli/program/opt/Chem_soft/g16/l701.exe)
 ... and contract with generalized density number  0.
 Compute integral second derivatives.
 R6Disp: Adding Grimme-D3(BJ) dispersion energy 2nd derivatives to the Hessian.
 PrsmSu:  requested number of processors reduced to:   9 ShMem   1 Linda.
 PrsmSu:  requested number of processors reduced to:  13 ShMem   1 Linda.
   1 Symmetry operations used in ECPInt.
 ECPInt:  NShTT=    1378 NPrTT=    5593 LenC2=    1324 LenP2D=    4260.
 LDataN:  DoStor=T MaxTD1= 8 Len=  415
 D2PCM: C-PCM CHGder 2nd derivatives, FixD1E=F FixD2E=F DoIter=F DoCFld=F I1PDM=0
 GePol: Maximum number of non-zero 2nd derivatives   =     378
 CoulSu:  requested number of processors reduced to:  13 ShMem   1 Linda.
 CoulSu:  requested number of processors reduced to:  13 ShMem   1 Linda.
 CoulSu:  requested number of processors reduced to:  13 ShMem   1 Linda.
 CoulSu:  requested number of processors reduced to:  13 ShMem   1 Linda.
 Leave Link  701 at Fri Oct 18 03:23:04 2019, MaxMem=   104857600 cpu:              30.8 elap:               1.9
 (Enter /share/home/wli/program/opt/Chem_soft/g16/l702.exe)
 L702 exits ... SP integral derivatives will be done elsewhere.
 Leave Link  702 at Fri Oct 18 03:23:04 2019, MaxMem=   104857600 cpu:               1.1 elap:               0.1
 (Enter /share/home/wli/program/opt/Chem_soft/g16/l703.exe)
 Integral derivatives from FoFJK, PRISM(SPDF).
 Compute integral second derivatives, UseDBF=F ICtDFT=           0.
 Calling FoFJK, ICntrl=    100147 FMM=F ISym2X=0 I1Cent= 0 IOpClX= 0 NMat=1 NMatS=1 NMatT=0.
 FoFJK:  IHMeth= 1 ICntrl=  100147 DoSepK=F KAlg= 0 I1Cent=           0 FoldK=F
 IRaf=         0 NMat=       1 IRICut=       1 DoRegI=T DoRafI=F ISym2E= 0 IDoP0=0 IntGTp=1.
 FoFCou: FMM=F IPFlag=           0 FMFlag=      100000 FMFlg1=         800
         NFxFlg=           0 DoJE=F BraDBF=F KetDBF=F FulRan=T
         wScrn=  0.000000 ICntrl=    100147 IOpCl=  0 I1Cent=           0 NGrid=           0
         NMat0=    1 NMatS0=      1 NMatT0=    0 NMatD0=    1 NMtDS0=    0 NMtDT0=    0
 Symmetry not used in FoFCou.
 CoulSu:  requested number of processors reduced to:  13 ShMem   1 Linda.
 Leave Link  703 at Fri Oct 18 03:23:10 2019, MaxMem=   104857600 cpu:             105.6 elap:               5.6
 (Enter /share/home/wli/program/opt/Chem_soft/g16/l716.exe)
 Dipole        = 1.51591511D+00-5.10305004D-05 9.18597729D-04
 Polarizability= 0.00000000D+00 0.00000000D+00 0.00000000D+00
                 0.00000000D+00 0.00000000D+00 0.00000000D+00
 -------------------------------------------------------------------
 Center     Atomic                   Forces (Hartrees/Bohr)
 Number     Number              X              Y              Z
 -------------------------------------------------------------------
      1        6          -0.000048623    0.000002404    0.000000825
      2        1           0.000019811    0.000032696   -0.000020445
      3        1           0.000013134   -0.000035596   -0.000021825
      4        1           0.000008668   -0.000000416    0.000041502
      5       17           0.000040384    0.000000347   -0.000005491
      6       35          -0.000033374    0.000000565    0.000005435
 -------------------------------------------------------------------
 Cartesian Forces:  Max     0.000048623 RMS     0.000024459
 Z-matrix is all fixed cartesians, so copy forces.
 Force constants in Cartesian coordinates: 
                1             2             3             4             5 
      1 -0.478085D-01
      2 -0.164965D-04  0.678381D+00
      3  0.436906D-04 -0.524802D-05  0.678155D+00
      4 -0.893321D-02  0.831794D-02 -0.538408D-02  0.329132D-01
      5  0.739852D-02 -0.286208D+00  0.149465D+00 -0.759236D-02  0.288539D+00
      6 -0.477883D-02  0.149461D+00 -0.151014D+00  0.498791D-02 -0.157187D+00
      7 -0.891530D-02 -0.879257D-02 -0.452031D-02  0.265943D-02  0.837982D-03
      8 -0.782096D-02 -0.314287D+00 -0.133247D+00 -0.793469D-03 -0.118336D-01
      9 -0.403021D-02 -0.133241D+00 -0.122941D+00  0.504458D-03  0.145769D-01
     10 -0.899673D-02  0.497146D-03  0.987616D-02  0.266837D-02 -0.378573D-04
     11  0.453117D-03 -0.554037D-01 -0.162244D-01 -0.785814D-03  0.580052D-02
     12  0.877583D-02 -0.162093D-01 -0.381751D+00  0.517512D-03 -0.440087D-02
     13  0.384979D-01 -0.133293D-04 -0.217506D-04 -0.141807D-01  0.167684D-02
     14 -0.176957D-04 -0.106138D-01  0.107956D-04 -0.512659D-02  0.175456D-02
     15  0.298156D-04 -0.694355D-05 -0.105893D-01  0.321677D-02 -0.117800D-02
     16  0.361558D-01  0.731014D-05  0.628857D-05 -0.151271D-01 -0.228312D-02
     17  0.351579D-05 -0.118675D-01  0.000000D+00  0.598030D-02  0.194797D-02
     18 -0.403033D-04  0.116695D-05 -0.118589D-01 -0.384257D-02 -0.127612D-02
                6             7             8             9            10 
      6  0.146445D+00
      7  0.422630D-03  0.328495D-01
      8 -0.123692D-01  0.806107D-02  0.318111D+00
      9  0.104014D-01  0.412696D-02  0.140163D+00  0.116884D+00
     10 -0.934645D-03  0.266624D-02 -0.553767D-04 -0.934502D-03  0.329289D-01
     11  0.225576D-01  0.831919D-03  0.388690D-02 -0.236633D-01 -0.446474D-03
     12 -0.724754D-02  0.435721D-03  0.329420D-02 -0.533151D-02 -0.902174D-02
     13 -0.117534D-02 -0.141352D-01 -0.179654D-02 -0.911444D-03 -0.141709D-01
     14 -0.118727D-02  0.540105D-02  0.195306D-02  0.103741D-02 -0.303863D-03
     15  0.651047D-03  0.276817D-02  0.103219D-02  0.457348D-03 -0.608745D-02
     16  0.147827D-02 -0.151247D-01  0.240527D-02  0.124474D-02 -0.150958D-01
     17 -0.127550D-02 -0.633946D-02  0.217005D-02  0.112690D-02  0.346425D-03
     18  0.764801D-03 -0.323316D-02  0.112675D-02  0.529518D-03  0.710217D-02
               11            12            13            14            15 
     11  0.458121D-01
     12  0.170492D-01  0.389202D+00
     13  0.908488D-04  0.200028D-02  0.278268D-01
     14 -0.739293D-04  0.134612D-03  0.429313D-04  0.545012D-02
     15  0.148078D-03  0.236875D-02  0.969104D-04  0.441470D-05  0.558157D-02
     16 -0.143596D-03 -0.270760D-02 -0.238379D-01  0.416947D-05 -0.242117D-04
     17 -0.218155D-04  0.132103D-03  0.000000D+00  0.153002D-02  0.000000D+00
     18  0.132781D-03  0.275936D-02  0.113452D-04  0.000000D+00  0.153062D-02
               16            17            18 
     16  0.330298D-01
     17  0.997111D-05  0.624124D-02
     18  0.251467D-05  0.153887D-04  0.627456D-02
 Leave Link  716 at Fri Oct 18 03:23:10 2019, MaxMem=   104857600 cpu:               1.4 elap:               0.1
 (Enter /share/home/wli/program/opt/Chem_soft/g16/l123.exe)
 IRC-IRC-IRC-IRC-IRC-IRC-IRC-IRC-IRC-IRC-IRC-IRC-IRC-IRC-IRC-IRC-IRC-IRC
          ******** Start new reaction path calculation ********
 Current Structure is TS -> form Hessian eigenvectors.
                            Diagonalizing Hessian.
 Supplied step size of   0.1000 bohr.
    Integration on MW PES will use step size of   0.3548 sqrt(amu)*bohr.
 Point Number:   0          Path Number:   1
 Calculating another point on the path.
 Point Number  1 in FORWARD path direction.
 Using LQA Reaction Path Following.
 IRC-IRC-IRC-IRC-IRC-IRC-IRC-IRC-IRC-IRC-IRC-IRC-IRC-IRC-IRC-IRC-IRC-IRC
 Leave Link  123 at Fri Oct 18 03:23:10 2019, MaxMem=   104857600 cpu:               3.6 elap:               0.2
 (Enter /share/home/wli/program/opt/Chem_soft/g16/l202.exe)
                          Input orientation:                          
 ---------------------------------------------------------------------
 Center     Atomic      Atomic             Coordinates (Angstroms)
 Number     Number       Type             X           Y           Z
 ---------------------------------------------------------------------
      1          6           0       -0.895841    0.000014    0.001008
      2          1           0       -0.880017    0.899795   -0.579550
      3          1           0       -0.879990   -0.952722   -0.487815
      4          1           0       -0.880042    0.053010    1.070550
      5         17           0       -3.242889   -0.000004   -0.000225
      6         35           0        1.606862   -0.000002   -0.000094
 ---------------------------------------------------------------------
                    Distance matrix (angstroms):
                    1          2          3          4          5
     1  C    0.000000
     2  H    1.070935   0.000000
     3  H    1.070937   1.854787   0.000000
     4  H    1.070971   1.854689   1.854723   0.000000
     5  Cl   2.347049   2.593919   2.593975   2.594690   0.000000
     6  Br   2.502704   2.707392   2.707394   2.708096   4.849752
                    6
     6  Br   0.000000
 Symmetry turned off by external request.
 Stoichiometry    CH3BrCl(1-)
 Framework group  C1[X(CH3BrCl)]
 Deg. of freedom    12
 Full point group                 C1      NOp   1
 Rotational constants (GHZ):         145.7695981           0.8635756           0.8635753
 Leave Link  202 at Fri Oct 18 03:23:10 2019, MaxMem=   104857600 cpu:               1.8 elap:               0.1
 (Enter /share/home/wli/program/opt/Chem_soft/g16/l301.exe)
 Standard basis: def2TZVP (5D, 7F)
 Ernie: Thresh=  0.10000D-02 Tol=  0.10000D-05 Strict=F.
   134 basis functions,   258 primitive gaussians,   151 cartesian basis functions
    31 alpha electrons       31 beta electrons
       nuclear repulsion energy       172.9977896369 Hartrees.
 IExCor=  402 DFT=T Ex+Corr=B3LYP ExCW=0 ScaHFX=  0.200000
 ScaDFX=  0.800000  0.720000  1.000000  0.810000 ScalE2=  1.000000  1.000000
 IRadAn=      5 IRanWt=     -1 IRanGd=            0 ICorTp=0 IEmpDi=141
 NAtoms=    6 NActive=    6 NUniq=    6 SFac= 1.00D+00 NAtFMM=   60 NAOKFM=F Big=F
 Integral buffers will be    131072 words long.
 Raffenetti 2 integral format.
 Two-electron integral symmetry is turned off.
 R6Disp:  Grimme-D3(BJ) Dispersion energy=       -0.0069922032 Hartrees.
 Nuclear repulsion after empirical dispersion term =      172.9907974337 Hartrees.
 Force inversion solution in PCM.
 ------------------------------------------------------------------------------
 Polarizable Continuum Model (PCM)
 =================================
 Model                : C-PCM.
 Atomic radii         : UFF (Universal Force Field).
 Polarization charges : Total charges.
 Charge compensation  : None.
 Solution method      : Matrix inversion.
 Cavity type          : Scaled VdW (van der Waals Surface) (Alpha=1.100).
 Cavity algorithm     : GePol (No added spheres)
                        Default sphere list used, NSphG=    6.
                        Lebedev-Laikov grids with approx.  5.0 points / Ang**2.
                        Smoothing algorithm: York/Karplus (Gamma=1.0000).
                        Polarization charges: spherical gaussians, with
                                              point-specific exponents (IZeta= 3).
                        Self-potential: point-specific (ISelfS= 7).
                        Self-field    : sphere-specific E.n sum rule (ISelfD= 2).
 1st derivatives      : Analytical E(r).r(x)/FMM algorithm (CHGder, D1EAlg=3).
                        Cavity 1st derivative terms included.
 Solvent              : Benzene, Eps=   2.270600 Eps(inf)=   2.253301
 ------------------------------------------------------------------------------
 Spheres list:
 ISph  on   Nord     Re0    Alpha      Xe            Ye            Ze
    1   C      1    1.9255  1.100     -0.895841      0.000014      0.001008
    2   H      2    1.4430  1.100     -0.880017      0.899795     -0.579550
    3   H      3    1.4430  1.100     -0.879990     -0.952722     -0.487815
    4   H      4    1.4430  1.100     -0.880042      0.053010      1.070550
    5  Cl      5    1.9735  1.100     -3.242889     -0.000004     -0.000225
    6  Br      6    2.0945  1.100      1.606862     -0.000002     -0.000094
 ------------------------------------------------------------------------------
 GePol: Number of generator spheres                  =       6
 GePol: Total number of spheres                      =       6
 GePol: Number of exposed spheres                    =       6 (100.00%)
 GePol: Number of points                             =     875
 GePol: Average weight of points                     =       0.16
 GePol: Minimum weight of points                     =   0.48D-05
 GePol: Maximum weight of points                     =    0.21616
 GePol: Number of points with low weight             =      24
 GePol: Fraction of low-weight points (<1% of avg)   =       2.74%
 GePol: Cavity surface area                          =    136.185 Ang**2
 GePol: Cavity volume                                =    119.695 Ang**3
 Leave Link  301 at Fri Oct 18 03:23:10 2019, MaxMem=   104857600 cpu:               2.9 elap:               0.1
 (Enter /share/home/wli/program/opt/Chem_soft/g16/l302.exe)
 NPDir=0 NMtPBC=     1 NCelOv=     1 NCel=       1 NClECP=     1 NCelD=      1
         NCelK=      1 NCelE2=     1 NClLst=     1 CellRange=     0.0.
 One-electron integrals computed using PRISM.
 PrsmSu:  requested number of processors reduced to:  13 ShMem   1 Linda.
   1 Symmetry operations used in ECPInt.
 ECPInt:  NShTT=    1378 NPrTT=    5593 LenC2=    1324 LenP2D=    4258.
 LDataN:  DoStor=T MaxTD1= 6 Len=  172
 NBasis=   134 RedAO= T EigKep=  1.43D-03  NBF=   134
 NBsUse=   134 1.00D-06 EigRej= -1.00D+00 NBFU=   134
 Precomputing XC quadrature grid using
 IXCGrd= 4 IRadAn=           5 IRanWt=          -1 IRanGd=           0 AccXCQ= 0.00D+00.
 Generated NRdTot=       0 NPtTot=           0 NUsed=           0 NTot=          32
 NSgBfM=   150   150   150   150   150 MxSgAt=     6 MxSgA2=     6.
 Leave Link  302 at Fri Oct 18 03:23:10 2019, MaxMem=   104857600 cpu:               6.7 elap:               0.3
 (Enter /share/home/wli/program/opt/Chem_soft/g16/l303.exe)
 DipDrv:  MaxL=1.
 Leave Link  303 at Fri Oct 18 03:23:11 2019, MaxMem=   104857600 cpu:               3.0 elap:               0.2
 (Enter /share/home/wli/program/opt/Chem_soft/g16/l401.exe)
 Initial guess from the checkpoint file:  "irc2_cpcm_benzene.chk"
 B after Tr=    -0.213880    0.000001    0.000065
         Rot=    1.000000   -0.000000    0.000000    0.000000 Ang=  -0.00 deg.
 Guess basis will be translated and rotated to current coordinates.
 JPrj=2 DoOrth=T DoCkMO=T.
 Generating alternative initial guess.
 ExpMin= 9.52D-02 ExpMax= 5.65D+05 ExpMxC= 5.46D+03 IAcc=2 IRadAn=         4 AccDes= 0.00D+00
 Harris functional with IExCor=  402 and IRadAn=       4 diagonalized for initial guess.
 HarFok:  IExCor=  402 AccDes= 0.00D+00 IRadAn=         4 IDoV= 1 UseB2=F ITyADJ=14
 ICtDFT=  3500011 ScaDFX=  1.000000  1.000000  1.000000  1.000000
 FoFCou: FMM=F IPFlag=           0 FMFlag=      100000 FMFlg1=           0
         NFxFlg=           0 DoJE=T BraDBF=F KetDBF=T FulRan=T
         wScrn=  0.000000 ICntrl=       500 IOpCl=  0 I1Cent=   200000004 NGrid=           0
         NMat0=    1 NMatS0=      1 NMatT0=    0 NMatD0=    1 NMtDS0=    0 NMtDT0=    0
 Symmetry not used in FoFCou.
 Harris En= -3074.57526934516    
 Leave Link  401 at Fri Oct 18 03:23:11 2019, MaxMem=   104857600 cpu:              10.4 elap:               0.5
 (Enter /share/home/wli/program/opt/Chem_soft/g16/l502.exe)
 Keep R1 ints in memory in canonical form, NReq=64314760.
 FoFCou: FMM=F IPFlag=           0 FMFlag=           0 FMFlg1=           0
         NFxFlg=           0 DoJE=F BraDBF=F KetDBF=F FulRan=T
         wScrn=  0.000000 ICntrl=       600 IOpCl=  0 I1Cent=           0 NGrid=           0
         NMat0=    1 NMatS0=   9045 NMatT0=    0 NMatD0=    1 NMtDS0=    0 NMtDT0=    0
 Symmetry not used in FoFCou.
 Two-electron integral symmetry not used.
 Closed shell SCF:
 Using DIIS extrapolation, IDIIS=  1040.
 NGot=   104857600 LenX=    63896738 LenY=    63873496
 Requested convergence on RMS density matrix=1.00D-08 within 128 cycles.
 Requested convergence on MAX density matrix=1.00D-06.
 Requested convergence on             energy=1.00D-06.
 No special actions if energy rises.

 Cycle   1  Pass 1  IDiag  1:
 Inv3:  Mode=1 IEnd=     2296875.
 Iteration    1 A*A^-1 deviation from unit magnitude is 3.66D-15 for    863.
 Iteration    1 A*A^-1 deviation from orthogonality  is 1.76D-15 for    584     97.
 Iteration    1 A^-1*A deviation from unit magnitude is 3.55D-15 for    849.
 Iteration    1 A^-1*A deviation from orthogonality  is 1.47D-15 for    449    253.
 E= -3074.47227059563    
 DIIS: error= 2.65D-03 at cycle   1 NSaved=   1.
 NSaved= 1 IEnMin= 1 EnMin= -3074.47227059563     IErMin= 1 ErrMin= 2.65D-03
 ErrMax= 2.65D-03  0.00D+00 EMaxC= 1.00D-01 BMatC= 5.70D-04 BMatP= 5.70D-04
 IDIUse=3 WtCom= 9.74D-01 WtEn= 2.65D-02
 Coeff-Com:  0.100D+01
 Coeff-En:   0.100D+01
 Coeff:      0.100D+01
 Gap=     0.632 Goal=   None    Shift=    0.000
 GapD=    0.632 DampG=2.000 DampE=1.000 DampFc=2.0000 IDamp=-1.
 RMSDP=3.54D-04 MaxDP=7.11D-03              OVMax= 3.51D-02

 Cycle   2  Pass 1  IDiag  1:
 E= -3074.47326073306     Delta-E=       -0.000990137429 Rises=F Damp=F
 DIIS: error= 6.16D-04 at cycle   2 NSaved=   2.
 NSaved= 2 IEnMin= 2 EnMin= -3074.47326073306     IErMin= 2 ErrMin= 6.16D-04
 ErrMax= 6.16D-04  0.00D+00 EMaxC= 1.00D-01 BMatC= 7.90D-05 BMatP= 5.70D-04
 IDIUse=3 WtCom= 9.94D-01 WtEn= 6.16D-03
 Coeff-Com:  0.928D-01 0.907D+00
 Coeff-En:   0.000D+00 0.100D+01
 Coeff:      0.922D-01 0.908D+00
 Gap=     0.198 Goal=   None    Shift=    0.000
 RMSDP=1.96D-04 MaxDP=4.76D-03 DE=-9.90D-04 OVMax= 1.27D-02

 Cycle   3  Pass 1  IDiag  1:
 E= -3074.47322860107     Delta-E=        0.000032131981 Rises=F Damp=F
 DIIS: error= 7.93D-04 at cycle   3 NSaved=   3.
 NSaved= 3 IEnMin= 2 EnMin= -3074.47326073306     IErMin= 2 ErrMin= 6.16D-04
 ErrMax= 7.93D-04  0.00D+00 EMaxC= 1.00D-01 BMatC= 1.30D-04 BMatP= 7.90D-05
 IDIUse=3 WtCom= 2.62D-01 WtEn= 7.38D-01
 Coeff-Com: -0.202D-01 0.578D+00 0.442D+00
 Coeff-En:   0.000D+00 0.557D+00 0.443D+00
 Coeff:     -0.530D-02 0.562D+00 0.443D+00
 Gap=     0.199 Goal=   None    Shift=    0.000
 RMSDP=9.57D-05 MaxDP=2.65D-03 DE= 3.21D-05 OVMax= 8.25D-03

 Cycle   4  Pass 1  IDiag  1:
 E= -3074.47337617996     Delta-E=       -0.000147578882 Rises=F Damp=F
 DIIS: error= 8.24D-05 at cycle   4 NSaved=   4.
 NSaved= 4 IEnMin= 4 EnMin= -3074.47337617996     IErMin= 4 ErrMin= 8.24D-05
 ErrMax= 8.24D-05  0.00D+00 EMaxC= 1.00D-01 BMatC= 1.12D-06 BMatP= 7.90D-05
 IDIUse=1 WtCom= 1.00D+00 WtEn= 0.00D+00
 Coeff-Com: -0.124D-01 0.148D+00 0.132D+00 0.732D+00
 Coeff:     -0.124D-01 0.148D+00 0.132D+00 0.732D+00
 Gap=     0.199 Goal=   None    Shift=    0.000
 RMSDP=6.26D-06 MaxDP=1.21D-04 DE=-1.48D-04 OVMax= 6.14D-04

 Cycle   5  Pass 1  IDiag  1:
 E= -3074.47337670358     Delta-E=       -0.000000523620 Rises=F Damp=F
 DIIS: error= 2.22D-05 at cycle   5 NSaved=   5.
 NSaved= 5 IEnMin= 5 EnMin= -3074.47337670358     IErMin= 5 ErrMin= 2.22D-05
 ErrMax= 2.22D-05  0.00D+00 EMaxC= 1.00D-01 BMatC= 6.77D-08 BMatP= 1.12D-06
 IDIUse=1 WtCom= 1.00D+00 WtEn= 0.00D+00
 Coeff-Com: -0.213D-02 0.301D-02 0.178D-01 0.157D+00 0.825D+00
 Coeff:     -0.213D-02 0.301D-02 0.178D-01 0.157D+00 0.825D+00
 Gap=     0.199 Goal=   None    Shift=    0.000
 RMSDP=2.52D-06 MaxDP=7.55D-05 DE=-5.24D-07 OVMax= 1.20D-04

 Cycle   6  Pass 1  IDiag  1:
 E= -3074.47337675300     Delta-E=       -0.000000049426 Rises=F Damp=F
 DIIS: error= 1.21D-05 at cycle   6 NSaved=   6.
 NSaved= 6 IEnMin= 6 EnMin= -3074.47337675300     IErMin= 6 ErrMin= 1.21D-05
 ErrMax= 1.21D-05  0.00D+00 EMaxC= 1.00D-01 BMatC= 1.76D-08 BMatP= 6.77D-08
 IDIUse=1 WtCom= 1.00D+00 WtEn= 0.00D+00
 Coeff-Com: -0.185D-03-0.924D-02 0.151D-02 0.308D-01 0.414D+00 0.563D+00
 Coeff:     -0.185D-03-0.924D-02 0.151D-02 0.308D-01 0.414D+00 0.563D+00
 Gap=     0.199 Goal=   None    Shift=    0.000
 RMSDP=9.69D-07 MaxDP=2.15D-05 DE=-4.94D-08 OVMax= 8.94D-05

 Cycle   7  Pass 1  IDiag  1:
 E= -3074.47337676773     Delta-E=       -0.000000014732 Rises=F Damp=F
 DIIS: error= 4.46D-06 at cycle   7 NSaved=   7.
 NSaved= 7 IEnMin= 7 EnMin= -3074.47337676773     IErMin= 7 ErrMin= 4.46D-06
 ErrMax= 4.46D-06  0.00D+00 EMaxC= 1.00D-01 BMatC= 2.10D-09 BMatP= 1.76D-08
 IDIUse=1 WtCom= 1.00D+00 WtEn= 0.00D+00
 Coeff-Com:  0.982D-04-0.559D-02-0.481D-03 0.425D-02 0.145D+00 0.328D+00
 Coeff-Com:  0.528D+00
 Coeff:      0.982D-04-0.559D-02-0.481D-03 0.425D-02 0.145D+00 0.328D+00
 Coeff:      0.528D+00
 Gap=     0.199 Goal=   None    Shift=    0.000
 RMSDP=2.58D-07 MaxDP=6.55D-06 DE=-1.47D-08 OVMax= 2.71D-05

 Cycle   8  Pass 1  IDiag  1:
 E= -3074.47337677019     Delta-E=       -0.000000002452 Rises=F Damp=F
 DIIS: error= 4.28D-07 at cycle   8 NSaved=   8.
 NSaved= 8 IEnMin= 8 EnMin= -3074.47337677019     IErMin= 8 ErrMin= 4.28D-07
 ErrMax= 4.28D-07  0.00D+00 EMaxC= 1.00D-01 BMatC= 3.21D-11 BMatP= 2.10D-09
 IDIUse=1 WtCom= 1.00D+00 WtEn= 0.00D+00
 Coeff-Com:  0.366D-04-0.124D-02-0.772D-04 0.742D-03 0.180D-01 0.683D-01
 Coeff-Com:  0.156D+00 0.758D+00
 Coeff:      0.366D-04-0.124D-02-0.772D-04 0.742D-03 0.180D-01 0.683D-01
 Coeff:      0.156D+00 0.758D+00
 Gap=     0.199 Goal=   None    Shift=    0.000
 RMSDP=4.96D-08 MaxDP=1.58D-06 DE=-2.45D-09 OVMax= 1.58D-06

 Cycle   9  Pass 1  IDiag  1:
 E= -3074.47337677020     Delta-E=       -0.000000000011 Rises=F Damp=F
 DIIS: error= 1.01D-07 at cycle   9 NSaved=   9.
 NSaved= 9 IEnMin= 9 EnMin= -3074.47337677020     IErMin= 9 ErrMin= 1.01D-07
 ErrMax= 1.01D-07  0.00D+00 EMaxC= 1.00D-01 BMatC= 2.25D-12 BMatP= 3.21D-11
 IDIUse=1 WtCom= 1.00D+00 WtEn= 0.00D+00
 Coeff-Com:  0.475D-05-0.605D-04 0.408D-04-0.325D-05-0.257D-02-0.300D-02
 Coeff-Com:  0.863D-02 0.235D+00 0.762D+00
 Coeff:      0.475D-05-0.605D-04 0.408D-04-0.325D-05-0.257D-02-0.300D-02
 Coeff:      0.863D-02 0.235D+00 0.762D+00
 Gap=     0.199 Goal=   None    Shift=    0.000
 RMSDP=1.73D-08 MaxDP=6.61D-07 DE=-1.14D-11 OVMax= 6.87D-07

 Cycle  10  Pass 1  IDiag  1:
 E= -3074.47337677019     Delta-E=        0.000000000005 Rises=F Damp=F
 DIIS: error= 3.41D-08 at cycle  10 NSaved=  10.
 NSaved=10 IEnMin= 9 EnMin= -3074.47337677020     IErMin=10 ErrMin= 3.41D-08
 ErrMax= 3.41D-08  0.00D+00 EMaxC= 1.00D-01 BMatC= 7.22D-14 BMatP= 2.25D-12
 IDIUse=1 WtCom= 1.00D+00 WtEn= 0.00D+00
 Coeff-Com:  0.168D-05 0.338D-05 0.143D-04-0.346D-04-0.168D-02-0.315D-02
 Coeff-Com:  0.364D-03 0.855D-01 0.313D+00 0.606D+00
 Coeff:      0.168D-05 0.338D-05 0.143D-04-0.346D-04-0.168D-02-0.315D-02
 Coeff:      0.364D-03 0.855D-01 0.313D+00 0.606D+00
 Gap=     0.199 Goal=   None    Shift=    0.000
 RMSDP=1.37D-09 MaxDP=2.76D-08 DE= 4.55D-12 OVMax= 7.38D-08

 Error on total polarization charges =  0.01273
 SCF Done:  E(RB3LYP) =  -3074.47337677     A.U. after   10 cycles
            NFock= 10  Conv=0.14D-08     -V/T= 2.0015
 KE= 3.069820155629D+03 PE=-7.699259043644D+03 EE= 1.381974713811D+03
 Leave Link  502 at Fri Oct 18 03:23:16 2019, MaxMem=   104857600 cpu:              97.1 elap:               4.6
 (Enter /share/home/wli/program/opt/Chem_soft/g16/l801.exe)
 DoSCS=F DFT=T ScalE2(SS,OS)=  1.000000  1.000000
 Range of M.O.s used for correlation:     1   134
 NBasis=   134 NAE=    31 NBE=    31 NFC=     0 NFV=     0
 NROrb=    134 NOA=    31 NOB=    31 NVA=   103 NVB=   103
 Leave Link  801 at Fri Oct 18 03:23:16 2019, MaxMem=   104857600 cpu:               1.2 elap:               0.1
 (Enter /share/home/wli/program/opt/Chem_soft/g16/l1101.exe)
 Leave Link 1101 at Fri Oct 18 03:23:16 2019, MaxMem=   104857600 cpu:               0.8 elap:               0.1
 (Enter /share/home/wli/program/opt/Chem_soft/g16/l1102.exe)
 Symmetrizing basis deriv contribution to polar:
 IMax=3 JMax=2 DiffMx= 0.00D+00
 Leave Link 1102 at Fri Oct 18 03:23:16 2019, MaxMem=   104857600 cpu:               2.0 elap:               0.1
 (Enter /share/home/wli/program/opt/Chem_soft/g16/l1110.exe)
 Leave Link 1110 at Fri Oct 18 03:23:16 2019, MaxMem=   104857600 cpu:               1.1 elap:               0.1
 (Enter /share/home/wli/program/opt/Chem_soft/g16/l1002.exe)
 Minotr:  Closed shell wavefunction.
 Leave Link 1002 at Fri Oct 18 03:23:16 2019, MaxMem=   104857600 cpu:               1.4 elap:               0.1
 (Enter /share/home/wli/program/opt/Chem_soft/g16/l701.exe)
 ... and contract with generalized density number  0.
 Compute integral first derivatives.
 R6Disp: Adding Grimme-D3(BJ) dispersion energy 1st derivatives to the gradient.
 PrsmSu:  requested number of processors reduced to:  11 ShMem   1 Linda.
   1 Symmetry operations used in ECPInt.
 ECPInt:  NShTT=    1378 NPrTT=    5593 LenC2=    1324 LenP2D=    4258.
 LDataN:  DoStor=T MaxTD1= 7 Len=  274
 D1PCM: C-PCM CHGder 1st derivatives, ID1Alg=3 FixD1E=F DoIter=F DoCFld=F I1PDM=0.
 GePol: Maximum number of non-zero 1st derivatives   =     378
 Leave Link  701 at Fri Oct 18 03:23:17 2019, MaxMem=   104857600 cpu:              13.7 elap:               0.6
 (Enter /share/home/wli/program/opt/Chem_soft/g16/l702.exe)
 L702 exits ... SP integral derivatives will be done elsewhere.
 Leave Link  702 at Fri Oct 18 03:23:17 2019, MaxMem=   104857600 cpu:               1.1 elap:               0.1
 (Enter /share/home/wli/program/opt/Chem_soft/g16/l703.exe)
 Integral derivatives from FoFJK, PRISM(SPDF).
 Compute integral first derivatives, UseDBF=F ICtDFT=           0.
 Calling FoFJK, ICntrl=      2147 FMM=F ISym2X=0 I1Cent= 0 IOpClX= 0 NMat=1 NMatS=1 NMatT=0.
 FoFJK:  IHMeth= 1 ICntrl=    2147 DoSepK=F KAlg= 0 I1Cent=           0 FoldK=F
 IRaf=         0 NMat=       1 IRICut=       1 DoRegI=T DoRafI=F ISym2E= 0 IDoP0=0 IntGTp=1.
 FoFCou: FMM=F IPFlag=           0 FMFlag=      100000 FMFlg1=         800
         NFxFlg=           0 DoJE=F BraDBF=F KetDBF=F FulRan=T
         wScrn=  0.000000 ICntrl=      2147 IOpCl=  0 I1Cent=           0 NGrid=           0
         NMat0=    1 NMatS0=      1 NMatT0=    0 NMatD0=    1 NMtDS0=    0 NMtDT0=    0
 Symmetry not used in FoFCou.
 Leave Link  703 at Fri Oct 18 03:23:18 2019, MaxMem=   104857600 cpu:              22.5 elap:               1.0
 (Enter /share/home/wli/program/opt/Chem_soft/g16/l716.exe)
 Dipole        = 1.30367953D+00-3.91549920D-05 8.44261480D-04
 Polarizability= 0.00000000D+00 0.00000000D+00 0.00000000D+00
                 0.00000000D+00 0.00000000D+00 0.00000000D+00
 -------------------------------------------------------------------
 Center     Atomic                   Forces (Hartrees/Bohr)
 Number     Number              X              Y              Z
 -------------------------------------------------------------------
      1        6          -0.006088650    0.000003723   -0.000005196
      2        1          -0.000025551   -0.000431461    0.000278957
      3        1          -0.000032125    0.000456291    0.000230191
      4        1          -0.000036693   -0.000028174   -0.000506959
      5       17           0.003156363   -0.000000957   -0.000000485
      6       35           0.003026656    0.000000578    0.000003493
 -------------------------------------------------------------------
 Cartesian Forces:  Max     0.006088650 RMS     0.001779216
 Z-matrix is all fixed cartesians, so copy forces.
 Leave Link  716 at Fri Oct 18 03:23:18 2019, MaxMem=   104857600 cpu:               1.2 elap:               0.1
 (Enter /share/home/wli/program/opt/Chem_soft/g16/l123.exe)
 IRC-IRC-IRC-IRC-IRC-IRC-IRC-IRC-IRC-IRC-IRC-IRC-IRC-IRC-IRC-IRC-IRC-IRC
 Pt  1 Step number   1 out of a maximum of  20
 Point Number:   1          Path Number:   1
                    CURRENT STRUCTURE
                Cartesian Coordinates (Ang):                
 ---------------------------------------------------------------------
 Center     Atomic                     Coordinates (Angstroms)
 Number     Number                        X           Y           Z
 ---------------------------------------------------------------------
      1          6                   -0.895841    0.000014    0.001008
      2          1                   -0.880017    0.899795   -0.579550
      3          1                   -0.879990   -0.952722   -0.487815
      4          1                   -0.880042    0.053010    1.070550
      5         17                   -3.242889   -0.000004   -0.000225
      6         35                    1.606862   -0.000002   -0.000094
 ---------------------------------------------------------------------
   CHANGE IN THE REACTION COORDINATE =    0.35478
   NET REACTION COORDINATE UP TO THIS POINT =    0.35478
  # OF POINTS ALONG THE PATH =   1
  # OF STEPS =   1

 Calculating another point on the path.
 Point Number  2 in FORWARD path direction.
 Using LQA Reaction Path Following.
   LQA: T_Est iteration completed in    3 iterations.
 IRC-IRC-IRC-IRC-IRC-IRC-IRC-IRC-IRC-IRC-IRC-IRC-IRC-IRC-IRC-IRC-IRC-IRC
 Leave Link  123 at Fri Oct 18 03:23:18 2019, MaxMem=   104857600 cpu:               3.9 elap:               0.2
 (Enter /share/home/wli/program/opt/Chem_soft/g16/l202.exe)
                          Input orientation:                          
 ---------------------------------------------------------------------
 Center     Atomic      Atomic             Coordinates (Angstroms)
 Number     Number       Type             X           Y           Z
 ---------------------------------------------------------------------
      1          6           0       -0.946639    0.000019    0.000992
      2          1           0       -0.885615    0.899498   -0.579191
      3          1           0       -0.885709   -0.952229   -0.487783
      4          1           0       -0.885956    0.052838    1.070090
      5         17           0       -3.233780   -0.000005   -0.000226
      6         35           0        1.610770   -0.000002   -0.000090
 ---------------------------------------------------------------------
                    Distance matrix (angstroms):
                    1          2          3          4          5
     1  C    0.000000
     2  H    1.072100   0.000000
     3  H    1.072096   1.853982   0.000000
     4  H    1.072120   1.853904   1.853950   0.000000
     5  Cl   2.287142   2.580345   2.580287   2.580823   0.000000
     6  Br   2.557409   2.715953   2.716061   2.716932   4.844550
                    6
     6  Br   0.000000
 Symmetry turned off by external request.
 Stoichiometry    CH3BrCl(1-)
 Framework group  C1[X(CH3BrCl)]
 Deg. of freedom    12
 Full point group                 C1      NOp   1
 Rotational constants (GHZ):         145.8935518           0.8634551           0.8634549
 Leave Link  202 at Fri Oct 18 03:23:18 2019, MaxMem=   104857600 cpu:               1.5 elap:               0.1
 (Enter /share/home/wli/program/opt/Chem_soft/g16/l301.exe)
 Standard basis: def2TZVP (5D, 7F)
 Ernie: Thresh=  0.10000D-02 Tol=  0.10000D-05 Strict=F.
   134 basis functions,   258 primitive gaussians,   151 cartesian basis functions
    31 alpha electrons       31 beta electrons
       nuclear repulsion energy       172.7004304447 Hartrees.
 IExCor=  402 DFT=T Ex+Corr=B3LYP ExCW=0 ScaHFX=  0.200000
 ScaDFX=  0.800000  0.720000  1.000000  0.810000 ScalE2=  1.000000  1.000000
 IRadAn=      5 IRanWt=     -1 IRanGd=            0 ICorTp=0 IEmpDi=141
 NAtoms=    6 NActive=    6 NUniq=    6 SFac= 1.00D+00 NAtFMM=   60 NAOKFM=F Big=F
 Integral buffers will be    131072 words long.
 Raffenetti 2 integral format.
 Two-electron integral symmetry is turned off.
 R6Disp:  Grimme-D3(BJ) Dispersion energy=       -0.0069825312 Hartrees.
 Nuclear repulsion after empirical dispersion term =      172.6934479135 Hartrees.
 Force inversion solution in PCM.
 ------------------------------------------------------------------------------
 Polarizable Continuum Model (PCM)
 =================================
 Model                : C-PCM.
 Atomic radii         : UFF (Universal Force Field).
 Polarization charges : Total charges.
 Charge compensation  : None.
 Solution method      : Matrix inversion.
 Cavity type          : Scaled VdW (van der Waals Surface) (Alpha=1.100).
 Cavity algorithm     : GePol (No added spheres)
                        Default sphere list used, NSphG=    6.
                        Lebedev-Laikov grids with approx.  5.0 points / Ang**2.
                        Smoothing algorithm: York/Karplus (Gamma=1.0000).
                        Polarization charges: spherical gaussians, with
                                              point-specific exponents (IZeta= 3).
                        Self-potential: point-specific (ISelfS= 7).
                        Self-field    : sphere-specific E.n sum rule (ISelfD= 2).
 1st derivatives      : Analytical E(r).r(x)/FMM algorithm (CHGder, D1EAlg=3).
                        Cavity 1st derivative terms included.
 Solvent              : Benzene, Eps=   2.270600 Eps(inf)=   2.253301
 ------------------------------------------------------------------------------
 Spheres list:
 ISph  on   Nord     Re0    Alpha      Xe            Ye            Ze
    1   C      1    1.9255  1.100     -0.946639      0.000019      0.000992
    2   H      2    1.4430  1.100     -0.885615      0.899498     -0.579191
    3   H      3    1.4430  1.100     -0.885709     -0.952229     -0.487783
    4   H      4    1.4430  1.100     -0.885956      0.052838      1.070090
    5  Cl      5    1.9735  1.100     -3.233780     -0.000005     -0.000226
    6  Br      6    2.0945  1.100      1.610770     -0.000002     -0.000090
 ------------------------------------------------------------------------------
 GePol: Number of generator spheres                  =       6
 GePol: Total number of spheres                      =       6
 GePol: Number of exposed spheres                    =       6 (100.00%)
 GePol: Number of points                             =     884
 GePol: Average weight of points                     =       0.15
 GePol: Minimum weight of points                     =   0.15D-09
 GePol: Maximum weight of points                     =    0.21616
 GePol: Number of points with low weight             =      39
 GePol: Fraction of low-weight points (<1% of avg)   =       4.41%
 GePol: Cavity surface area                          =    136.017 Ang**2
 GePol: Cavity volume                                =    119.609 Ang**3
 Leave Link  301 at Fri Oct 18 03:23:18 2019, MaxMem=   104857600 cpu:               2.9 elap:               0.1
 (Enter /share/home/wli/program/opt/Chem_soft/g16/l302.exe)
 NPDir=0 NMtPBC=     1 NCelOv=     1 NCel=       1 NClECP=     1 NCelD=      1
         NCelK=      1 NCelE2=     1 NClLst=     1 CellRange=     0.0.
 One-electron integrals computed using PRISM.
 PrsmSu:  requested number of processors reduced to:  13 ShMem   1 Linda.
   1 Symmetry operations used in ECPInt.
 ECPInt:  NShTT=    1378 NPrTT=    5593 LenC2=    1324 LenP2D=    4254.
 LDataN:  DoStor=T MaxTD1= 6 Len=  172
 NBasis=   134 RedAO= T EigKep=  1.43D-03  NBF=   134
 NBsUse=   134 1.00D-06 EigRej= -1.00D+00 NBFU=   134
 Precomputing XC quadrature grid using
 IXCGrd= 4 IRadAn=           5 IRanWt=          -1 IRanGd=           0 AccXCQ= 0.00D+00.
 Generated NRdTot=       0 NPtTot=           0 NUsed=           0 NTot=          32
 NSgBfM=   150   150   150   150   150 MxSgAt=     6 MxSgA2=     6.
 Leave Link  302 at Fri Oct 18 03:23:19 2019, MaxMem=   104857600 cpu:              10.0 elap:               0.5
 (Enter /share/home/wli/program/opt/Chem_soft/g16/l303.exe)
 DipDrv:  MaxL=1.
 Leave Link  303 at Fri Oct 18 03:23:19 2019, MaxMem=   104857600 cpu:               2.4 elap:               0.2
 (Enter /share/home/wli/program/opt/Chem_soft/g16/l401.exe)
 Initial guess from the checkpoint file:  "irc2_cpcm_benzene.chk"
 B after Tr=    -0.000941    0.000000   -0.000001
         Rot=    1.000000   -0.000076    0.000002    0.000000 Ang=  -0.01 deg.
 Guess basis will be translated and rotated to current coordinates.
 JPrj=2 DoOrth=T DoCkMO=T.
 Generating alternative initial guess.
 ExpMin= 9.52D-02 ExpMax= 5.65D+05 ExpMxC= 5.46D+03 IAcc=2 IRadAn=         4 AccDes= 0.00D+00
 Harris functional with IExCor=  402 and IRadAn=       4 diagonalized for initial guess.
 HarFok:  IExCor=  402 AccDes= 0.00D+00 IRadAn=         4 IDoV= 1 UseB2=F ITyADJ=14
 ICtDFT=  3500011 ScaDFX=  1.000000  1.000000  1.000000  1.000000
 FoFCou: FMM=F IPFlag=           0 FMFlag=      100000 FMFlg1=           0
         NFxFlg=           0 DoJE=T BraDBF=F KetDBF=T FulRan=T
         wScrn=  0.000000 ICntrl=       500 IOpCl=  0 I1Cent=   200000004 NGrid=           0
         NMat0=    1 NMatS0=      1 NMatT0=    0 NMatD0=    1 NMtDS0=    0 NMtDT0=    0
 Symmetry not used in FoFCou.
 Harris En= -3074.58173197778    
 Leave Link  401 at Fri Oct 18 03:23:20 2019, MaxMem=   104857600 cpu:              20.8 elap:               0.9
 (Enter /share/home/wli/program/opt/Chem_soft/g16/l502.exe)
 Keep R1 ints in memory in canonical form, NReq=64314760.
 FoFCou: FMM=F IPFlag=           0 FMFlag=           0 FMFlg1=           0
         NFxFlg=           0 DoJE=F BraDBF=F KetDBF=F FulRan=T
         wScrn=  0.000000 ICntrl=       600 IOpCl=  0 I1Cent=           0 NGrid=           0
         NMat0=    1 NMatS0=   9045 NMatT0=    0 NMatD0=    1 NMtDS0=    0 NMtDT0=    0
 Symmetry not used in FoFCou.
 Two-electron integral symmetry not used.
 Closed shell SCF:
 Using DIIS extrapolation, IDIIS=  1040.
 NGot=   104857600 LenX=    63896738 LenY=    63873496
 Requested convergence on RMS density matrix=1.00D-08 within 128 cycles.
 Requested convergence on MAX density matrix=1.00D-06.
 Requested convergence on             energy=1.00D-06.
 No special actions if energy rises.

 Cycle   1  Pass 1  IDiag  1:
 Inv3:  Mode=1 IEnd=     2344368.
 Iteration    1 A*A^-1 deviation from unit magnitude is 5.33D-15 for    220.
 Iteration    1 A*A^-1 deviation from orthogonality  is 3.88D-15 for    621    220.
 Iteration    1 A^-1*A deviation from unit magnitude is 4.66D-15 for    220.
 Iteration    1 A^-1*A deviation from orthogonality  is 9.49D-16 for    358      5.
 E= -3074.47324530802    
 DIIS: error= 2.67D-03 at cycle   1 NSaved=   1.
 NSaved= 1 IEnMin= 1 EnMin= -3074.47324530802     IErMin= 1 ErrMin= 2.67D-03
 ErrMax= 2.67D-03  0.00D+00 EMaxC= 1.00D-01 BMatC= 5.76D-04 BMatP= 5.76D-04
 IDIUse=3 WtCom= 9.73D-01 WtEn= 2.67D-02
 Coeff-Com:  0.100D+01
 Coeff-En:   0.100D+01
 Coeff:      0.100D+01
 Gap=     0.629 Goal=   None    Shift=    0.000
 GapD=    0.629 DampG=2.000 DampE=1.000 DampFc=2.0000 IDamp=-1.
 RMSDP=3.53D-04 MaxDP=7.13D-03              OVMax= 3.47D-02

 Cycle   2  Pass 1  IDiag  1:
 E= -3074.47425926388     Delta-E=       -0.001013955861 Rises=F Damp=F
 DIIS: error= 5.51D-04 at cycle   2 NSaved=   2.
 NSaved= 2 IEnMin= 2 EnMin= -3074.47425926388     IErMin= 2 ErrMin= 5.51D-04
 ErrMax= 5.51D-04  0.00D+00 EMaxC= 1.00D-01 BMatC= 7.49D-05 BMatP= 5.76D-04
 IDIUse=3 WtCom= 9.94D-01 WtEn= 5.51D-03
 Coeff-Com:  0.838D-01 0.916D+00
 Coeff-En:   0.000D+00 0.100D+01
 Coeff:      0.833D-01 0.917D+00
 Gap=     0.197 Goal=   None    Shift=    0.000
 RMSDP=1.93D-04 MaxDP=4.58D-03 DE=-1.01D-03 OVMax= 1.19D-02

 Cycle   3  Pass 1  IDiag  1:
 E= -3074.47423048704     Delta-E=        0.000028776843 Rises=F Damp=F
 DIIS: error= 8.13D-04 at cycle   3 NSaved=   3.
 NSaved= 3 IEnMin= 2 EnMin= -3074.47425926388     IErMin= 2 ErrMin= 5.51D-04
 ErrMax= 8.13D-04  0.00D+00 EMaxC= 1.00D-01 BMatC= 1.23D-04 BMatP= 7.49D-05
 IDIUse=3 WtCom= 2.60D-01 WtEn= 7.40D-01
 Coeff-Com: -0.205D-01 0.578D+00 0.442D+00
 Coeff-En:   0.000D+00 0.555D+00 0.445D+00
 Coeff:     -0.533D-02 0.561D+00 0.445D+00
 Gap=     0.198 Goal=   None    Shift=    0.000
 RMSDP=9.41D-05 MaxDP=2.68D-03 DE= 2.88D-05 OVMax= 7.87D-03

 Cycle   4  Pass 1  IDiag  1:
 E= -3074.47436902547     Delta-E=       -0.000138538425 Rises=F Damp=F
 DIIS: error= 7.94D-05 at cycle   4 NSaved=   4.
 NSaved= 4 IEnMin= 4 EnMin= -3074.47436902547     IErMin= 4 ErrMin= 7.94D-05
 ErrMax= 7.94D-05  0.00D+00 EMaxC= 1.00D-01 BMatC= 1.13D-06 BMatP= 7.49D-05
 IDIUse=1 WtCom= 1.00D+00 WtEn= 0.00D+00
 Coeff-Com: -0.124D-01 0.145D+00 0.135D+00 0.733D+00
 Coeff:     -0.124D-01 0.145D+00 0.135D+00 0.733D+00
 Gap=     0.198 Goal=   None    Shift=    0.000
 RMSDP=6.21D-06 MaxDP=1.30D-04 DE=-1.39D-04 OVMax= 5.83D-04

 Cycle   5  Pass 1  IDiag  1:
 E= -3074.47436955014     Delta-E=       -0.000000524672 Rises=F Damp=F
 DIIS: error= 1.66D-05 at cycle   5 NSaved=   5.
 NSaved= 5 IEnMin= 5 EnMin= -3074.47436955014     IErMin= 5 ErrMin= 1.66D-05
 ErrMax= 1.66D-05  0.00D+00 EMaxC= 1.00D-01 BMatC= 5.95D-08 BMatP= 1.13D-06
 IDIUse=1 WtCom= 1.00D+00 WtEn= 0.00D+00
 Coeff-Com: -0.184D-02 0.349D-04 0.162D-01 0.143D+00 0.843D+00
 Coeff:     -0.184D-02 0.349D-04 0.162D-01 0.143D+00 0.843D+00
 Gap=     0.198 Goal=   None    Shift=    0.000
 RMSDP=2.55D-06 MaxDP=5.22D-05 DE=-5.25D-07 OVMax= 1.43D-04

 Cycle   6  Pass 1  IDiag  1:
 E= -3074.47436959471     Delta-E=       -0.000000044575 Rises=F Damp=F
 DIIS: error= 1.58D-05 at cycle   6 NSaved=   6.
 NSaved= 6 IEnMin= 6 EnMin= -3074.47436959471     IErMin= 6 ErrMin= 1.58D-05
 ErrMax= 1.58D-05  0.00D+00 EMaxC= 1.00D-01 BMatC= 2.17D-08 BMatP= 5.95D-08
 IDIUse=1 WtCom= 1.00D+00 WtEn= 0.00D+00
 Coeff-Com: -0.374D-03-0.800D-02 0.339D-02 0.433D-01 0.464D+00 0.498D+00
 Coeff:     -0.374D-03-0.800D-02 0.339D-02 0.433D-01 0.464D+00 0.498D+00
 Gap=     0.198 Goal=   None    Shift=    0.000
 RMSDP=9.33D-07 MaxDP=2.20D-05 DE=-4.46D-08 OVMax= 9.89D-05

 Cycle   7  Pass 1  IDiag  1:
 E= -3074.47436961793     Delta-E=       -0.000000023218 Rises=F Damp=F
 DIIS: error= 3.69D-06 at cycle   7 NSaved=   7.
 NSaved= 7 IEnMin= 7 EnMin= -3074.47436961793     IErMin= 7 ErrMin= 3.69D-06
 ErrMax= 3.69D-06  0.00D+00 EMaxC= 1.00D-01 BMatC= 1.93D-09 BMatP= 2.17D-08
 IDIUse=1 WtCom= 1.00D+00 WtEn= 0.00D+00
 Coeff-Com:  0.104D-03-0.557D-02-0.427D-03 0.406D-02 0.153D+00 0.265D+00
 Coeff-Com:  0.584D+00
 Coeff:      0.104D-03-0.557D-02-0.427D-03 0.406D-02 0.153D+00 0.265D+00
 Coeff:      0.584D+00
 Gap=     0.198 Goal=   None    Shift=    0.000
 RMSDP=2.66D-07 MaxDP=5.70D-06 DE=-2.32D-08 OVMax= 2.09D-05

 Cycle   8  Pass 1  IDiag  1:
 E= -3074.47436961967     Delta-E=       -0.000000001734 Rises=F Damp=F
 DIIS: error= 4.47D-07 at cycle   8 NSaved=   8.
 NSaved= 8 IEnMin= 8 EnMin= -3074.47436961967     IErMin= 8 ErrMin= 4.47D-07
 ErrMax= 4.47D-07  0.00D+00 EMaxC= 1.00D-01 BMatC= 3.19D-11 BMatP= 1.93D-09
 IDIUse=1 WtCom= 1.00D+00 WtEn= 0.00D+00
 Coeff-Com:  0.355D-04-0.116D-02-0.518D-04 0.601D-03 0.178D-01 0.466D-01
 Coeff-Com:  0.160D+00 0.776D+00
 Coeff:      0.355D-04-0.116D-02-0.518D-04 0.601D-03 0.178D-01 0.466D-01
 Coeff:      0.160D+00 0.776D+00
 Gap=     0.198 Goal=   None    Shift=    0.000
 RMSDP=5.13D-08 MaxDP=1.81D-06 DE=-1.73D-09 OVMax= 2.04D-06

 Cycle   9  Pass 1  IDiag  1:
 E= -3074.47436961969     Delta-E=       -0.000000000027 Rises=F Damp=F
 DIIS: error= 1.07D-07 at cycle   9 NSaved=   9.
 NSaved= 9 IEnMin= 9 EnMin= -3074.47436961969     IErMin= 9 ErrMin= 1.07D-07
 ErrMax= 1.07D-07  0.00D+00 EMaxC= 1.00D-01 BMatC= 2.26D-12 BMatP= 3.19D-11
 IDIUse=1 WtCom= 1.00D+00 WtEn= 0.00D+00
 Coeff-Com:  0.496D-05-0.631D-04 0.421D-04-0.604D-05-0.256D-02-0.206D-02
 Coeff-Com:  0.381D-02 0.251D+00 0.750D+00
 Coeff:      0.496D-05-0.631D-04 0.421D-04-0.604D-05-0.256D-02-0.206D-02
 Coeff:      0.381D-02 0.251D+00 0.750D+00
 Gap=     0.198 Goal=   None    Shift=    0.000
 RMSDP=1.75D-08 MaxDP=6.63D-07 DE=-2.73D-11 OVMax= 6.77D-07

 Cycle  10  Pass 1  IDiag  1:
 E= -3074.47436961970     Delta-E=       -0.000000000005 Rises=F Damp=F
 DIIS: error= 3.37D-08 at cycle  10 NSaved=  10.
 NSaved=10 IEnMin=10 EnMin= -3074.47436961970     IErMin=10 ErrMin= 3.37D-08
 ErrMax= 3.37D-08  0.00D+00 EMaxC= 1.00D-01 BMatC= 7.71D-14 BMatP= 2.26D-12
 IDIUse=1 WtCom= 1.00D+00 WtEn= 0.00D+00
 Coeff-Com:  0.168D-05 0.492D-05 0.149D-04-0.381D-04-0.185D-02-0.231D-02
 Coeff-Com: -0.288D-02 0.932D-01 0.312D+00 0.602D+00
 Coeff:      0.168D-05 0.492D-05 0.149D-04-0.381D-04-0.185D-02-0.231D-02
 Coeff:     -0.288D-02 0.932D-01 0.312D+00 0.602D+00
 Gap=     0.198 Goal=   None    Shift=    0.000
 RMSDP=1.42D-09 MaxDP=3.08D-08 DE=-5.00D-12 OVMax= 7.58D-08

 Error on total polarization charges =  0.01285
[...]
 DIIS: error= 1.37D-04 at cycle   3 NSaved=   3.
 NSaved= 3 IEnMin= 2 EnMin= -3074.48473262445     IErMin= 2 ErrMin= 1.07D-04
 ErrMax= 1.37D-04  0.00D+00 EMaxC= 1.00D-01 BMatC= 1.42D-06 BMatP= 9.00D-07
 IDIUse=3 WtCom= 4.61D-01 WtEn= 5.39D-01
 Coeff-Com: -0.709D-02 0.562D+00 0.445D+00
 Coeff-En:   0.000D+00 0.563D+00 0.437D+00
 Coeff:     -0.327D-02 0.562D+00 0.441D+00
 Gap=     0.194 Goal=   None    Shift=    0.000
 RMSDP=6.05D-06 MaxDP=1.70D-04 DE= 3.60D-07 OVMax= 5.55D-04

 Cycle   4  Pass 1  IDiag  1:
 E= -3074.48473374531     Delta-E=       -0.000001481355 Rises=F Damp=F
 DIIS: error= 8.35D-06 at cycle   4 NSaved=   4.
 NSaved= 4 IEnMin= 4 EnMin= -3074.48473374531     IErMin= 4 ErrMin= 8.35D-06
 ErrMax= 8.35D-06  0.00D+00 EMaxC= 1.00D-01 BMatC= 8.06D-09 BMatP= 9.00D-07
 IDIUse=1 WtCom= 1.00D+00 WtEn= 0.00D+00
 Coeff-Com: -0.641D-02 0.153D+00 0.129D+00 0.724D+00
 Coeff:     -0.641D-02 0.153D+00 0.129D+00 0.724D+00
 Gap=     0.194 Goal=   None    Shift=    0.000
 RMSDP=6.52D-07 MaxDP=1.33D-05 DE=-1.48D-06 OVMax= 3.22D-05

 Cycle   5  Pass 1  IDiag  1:
 E= -3074.48473375150     Delta-E=       -0.000000006184 Rises=F Damp=F
 DIIS: error= 1.28D-06 at cycle   5 NSaved=   5.
 NSaved= 5 IEnMin= 5 EnMin= -3074.48473375150     IErMin= 5 ErrMin= 1.28D-06
 ErrMax= 1.28D-06  0.00D+00 EMaxC= 1.00D-01 BMatC= 2.45D-10 BMatP= 8.06D-09
 IDIUse=1 WtCom= 1.00D+00 WtEn= 0.00D+00
 Coeff-Com: -0.873D-03 0.323D-02 0.672D-02 0.120D+00 0.871D+00
 Coeff:     -0.873D-03 0.323D-02 0.672D-02 0.120D+00 0.871D+00
 Gap=     0.194 Goal=   None    Shift=    0.000
 RMSDP=2.11D-07 MaxDP=6.51D-06 DE=-6.18D-09 OVMax= 1.00D-05

 Cycle   6  Pass 1  IDiag  1:
 E= -3074.48473375176     Delta-E=       -0.000000000262 Rises=F Damp=F
 DIIS: error= 8.16D-07 at cycle   6 NSaved=   6.
 NSaved= 6 IEnMin= 6 EnMin= -3074.48473375176     IErMin= 6 ErrMin= 8.16D-07
 ErrMax= 8.16D-07  0.00D+00 EMaxC= 1.00D-01 BMatC= 8.70D-11 BMatP= 2.45D-10
 IDIUse=1 WtCom= 1.00D+00 WtEn= 0.00D+00
 Coeff-Com: -0.136D-03-0.664D-02-0.295D-02 0.251D-01 0.416D+00 0.569D+00
 Coeff:     -0.136D-03-0.664D-02-0.295D-02 0.251D-01 0.416D+00 0.569D+00
 Gap=     0.194 Goal=   None    Shift=    0.000
 RMSDP=8.84D-08 MaxDP=3.16D-06 DE=-2.62D-10 OVMax= 2.04D-06

 Cycle   7  Pass 1  IDiag  1:
 E= -3074.48473375183     Delta-E=       -0.000000000068 Rises=F Damp=F
 DIIS: error= 9.07D-08 at cycle   7 NSaved=   7.
 NSaved= 7 IEnMin= 7 EnMin= -3074.48473375183     IErMin= 7 ErrMin= 9.07D-08
 ErrMax= 9.07D-08  0.00D+00 EMaxC= 1.00D-01 BMatC= 1.09D-12 BMatP= 8.70D-11
 IDIUse=1 WtCom= 1.00D+00 WtEn= 0.00D+00
 Coeff-Com:  0.280D-04-0.269D-02-0.166D-02 0.783D-03 0.807D-01 0.144D+00
 Coeff-Com:  0.779D+00
 Coeff:      0.280D-04-0.269D-02-0.166D-02 0.783D-03 0.807D-01 0.144D+00
 Coeff:      0.779D+00
 Gap=     0.194 Goal=   None    Shift=    0.000
 RMSDP=1.20D-08 MaxDP=3.78D-07 DE=-6.78D-11 OVMax= 5.33D-07

 Cycle   8  Pass 1  IDiag  1:
 E= -3074.48473375182     Delta-E=        0.000000000005 Rises=F Damp=F
 DIIS: error= 1.71D-08 at cycle   8 NSaved=   8.
 NSaved= 8 IEnMin= 7 EnMin= -3074.48473375183     IErMin= 8 ErrMin= 1.71D-08
 ErrMax= 1.71D-08  0.00D+00 EMaxC= 1.00D-01 BMatC= 5.09D-14 BMatP= 1.09D-12
 IDIUse=1 WtCom= 1.00D+00 WtEn= 0.00D+00
 Coeff-Com:  0.109D-04-0.678D-03-0.404D-03-0.458D-03 0.138D-01 0.285D-01
 Coeff-Com:  0.210D+00 0.749D+00
 Coeff:      0.109D-04-0.678D-03-0.404D-03-0.458D-03 0.138D-01 0.285D-01
 Coeff:      0.210D+00 0.749D+00
 Gap=     0.194 Goal=   None    Shift=    0.000
 RMSDP=2.76D-09 MaxDP=7.60D-08 DE= 5.00D-12 OVMax= 7.86D-08

 Error on total polarization charges =  0.01191
 SCF Done:  E(RB3LYP) =  -3074.48473375     A.U. after    8 cycles
            NFock=  8  Conv=0.28D-08     -V/T= 2.0015
 KE= 3.069819816305D+03 PE=-7.698665447648D+03 EE= 1.380706989063D+03
 Leave Link  502 at Fri Oct 18 03:30:29 2019, MaxMem=   104857600 cpu:              85.0 elap:               4.1
 (Enter /share/home/wli/program/opt/Chem_soft/g16/l801.exe)
 DoSCS=F DFT=T ScalE2(SS,OS)=  1.000000  1.000000
 Range of M.O.s used for correlation:     1   134
 NBasis=   134 NAE=    31 NBE=    31 NFC=     0 NFV=     0
 NROrb=    134 NOA=    31 NOB=    31 NVA=   103 NVB=   103
 Leave Link  801 at Fri Oct 18 03:30:29 2019, MaxMem=   104857600 cpu:               1.1 elap:               0.1
 (Enter /share/home/wli/program/opt/Chem_soft/g16/l1101.exe)
 Leave Link 1101 at Fri Oct 18 03:30:29 2019, MaxMem=   104857600 cpu:               1.4 elap:               0.1
 (Enter /share/home/wli/program/opt/Chem_soft/g16/l1102.exe)
 Symmetrizing basis deriv contribution to polar:
 IMax=3 JMax=2 DiffMx= 0.00D+00
 Leave Link 1102 at Fri Oct 18 03:30:29 2019, MaxMem=   104857600 cpu:               2.5 elap:               0.1
 (Enter /share/home/wli/program/opt/Chem_soft/g16/l1110.exe)
 Leave Link 1110 at Fri Oct 18 03:30:29 2019, MaxMem=   104857600 cpu:               1.1 elap:               0.1
 (Enter /share/home/wli/program/opt/Chem_soft/g16/l1002.exe)
 Minotr:  Closed shell wavefunction.
 Leave Link 1002 at Fri Oct 18 03:30:29 2019, MaxMem=   104857600 cpu:               1.4 elap:               0.1
 (Enter /share/home/wli/program/opt/Chem_soft/g16/l701.exe)
 ... and contract with generalized density number  0.
 Compute integral first derivatives.
 R6Disp: Adding Grimme-D3(BJ) dispersion energy 1st derivatives to the gradient.
 PrsmSu:  requested number of processors reduced to:  11 ShMem   1 Linda.
   1 Symmetry operations used in ECPInt.
 ECPInt:  NShTT=    1378 NPrTT=    5593 LenC2=    1311 LenP2D=    4194.
 LDataN:  DoStor=T MaxTD1= 7 Len=  274
 D1PCM: C-PCM CHGder 1st derivatives, ID1Alg=3 FixD1E=F DoIter=F DoCFld=F I1PDM=0.
 GePol: Maximum number of non-zero 1st derivatives   =     372
 Leave Link  701 at Fri Oct 18 03:30:30 2019, MaxMem=   104857600 cpu:              13.7 elap:               0.6
 (Enter /share/home/wli/program/opt/Chem_soft/g16/l702.exe)
 L702 exits ... SP integral derivatives will be done elsewhere.
 Leave Link  702 at Fri Oct 18 03:30:30 2019, MaxMem=   104857600 cpu:               1.1 elap:               0.1
 (Enter /share/home/wli/program/opt/Chem_soft/g16/l703.exe)
 Integral derivatives from FoFJK, PRISM(SPDF).
 Compute integral first derivatives, UseDBF=F ICtDFT=           0.
 Calling FoFJK, ICntrl=      2147 FMM=F ISym2X=0 I1Cent= 0 IOpClX= 0 NMat=1 NMatS=1 NMatT=0.
 FoFJK:  IHMeth= 1 ICntrl=    2147 DoSepK=F KAlg= 0 I1Cent=           0 FoldK=F
 IRaf=         0 NMat=       1 IRICut=       1 DoRegI=T DoRafI=F ISym2E= 0 IDoP0=0 IntGTp=1.
 FoFCou: FMM=F IPFlag=           0 FMFlag=      100000 FMFlg1=         800
         NFxFlg=           0 DoJE=F BraDBF=F KetDBF=F FulRan=T
         wScrn=  0.000000 ICntrl=      2147 IOpCl=  0 I1Cent=           0 NGrid=           0
         NMat0=    1 NMatS0=      1 NMatT0=    0 NMatD0=    1 NMtDS0=    0 NMtDT0=    0
 Symmetry not used in FoFCou.
 Leave Link  703 at Fri Oct 18 03:30:31 2019, MaxMem=   104857600 cpu:              22.7 elap:               1.0
 (Enter /share/home/wli/program/opt/Chem_soft/g16/l716.exe)
 Dipole        = 5.03248980D+00 1.11458065D-03-4.83526387D-03
 Polarizability= 0.00000000D+00 0.00000000D+00 0.00000000D+00
                 0.00000000D+00 0.00000000D+00 0.00000000D+00
 -------------------------------------------------------------------
 Center     Atomic                   Forces (Hartrees/Bohr)
 Number     Number              X              Y              Z
 -------------------------------------------------------------------
      1        6          -0.000023805   -0.000021041   -0.000025477
      2        1           0.000027860   -0.000073107    0.000056388
      3        1           0.000027232    0.000095691    0.000044162
      4        1           0.000034740   -0.000010362   -0.000103934
      5       17          -0.000298108    0.000000181    0.000038234
      6       35           0.000232081    0.000008639   -0.000009373
 -------------------------------------------------------------------
 Cartesian Forces:  Max     0.000298108 RMS     0.000099799
 Z-matrix is all fixed cartesians, so copy forces.
 Leave Link  716 at Fri Oct 18 03:30:31 2019, MaxMem=   104857600 cpu:               1.3 elap:               0.1
 (Enter /share/home/wli/program/opt/Chem_soft/g16/l123.exe)
 IRC-IRC-IRC-IRC-IRC-IRC-IRC-IRC-IRC-IRC-IRC-IRC-IRC-IRC-IRC-IRC-IRC-IRC
 Pt 39 Step number   1 out of a maximum of  20
 Point Number:  16          Path Number:   2
                    CURRENT STRUCTURE
                Cartesian Coordinates (Ang):                
 ---------------------------------------------------------------------
 Center     Atomic                     Coordinates (Angstroms)
 Number     Number                        X           Y           Z
 ---------------------------------------------------------------------
      1          6                   -0.349225    0.001738   -0.005582
      2          1                   -0.664787    0.877044   -0.554829
      3          1                   -0.666709   -0.910167   -0.490402
      4          1                   -0.670704    0.039135    1.025250
      5         17                   -3.542051   -0.000191    0.001376
      6         35                    1.648160   -0.000257    0.000494
 ---------------------------------------------------------------------
   CHANGE IN THE REACTION COORDINATE =    0.35382
   NET REACTION COORDINATE UP TO THIS POINT =    5.66877
  # OF POINTS ALONG THE PATH =  39
  # OF STEPS =   1

 Calculating another point on the path.
 Point Number 17 in REVERSE path direction.
 Using LQA Reaction Path Following.
   LQA: T_Est iteration completed in    1 iterations.
 PES minimum detected within a second-order step.
 Calculation of REVERSE path complete.
 Reaction path calculation complete.
 
 Energies reported relative to the TS energy of       -3074.473046
 --------------------------------------------------------------------------
    Summary of reaction path following
 --------------------------------------------------------------------------
                        Energy    RxCoord
   1                   -0.01169  -5.66877
   2                   -0.01165  -5.31495
   3                   -0.01157  -4.96027
   4                   -0.01144  -4.60554
   5                   -0.01126  -4.25082
   6                   -0.01102  -3.89610
   7                   -0.01071  -3.54173
   8                   -0.01033  -3.18703
   9                   -0.00983  -2.83530
  10                   -0.00896  -2.48143
  11                   -0.00757  -2.12680
  12                   -0.00588  -1.77212
  13                   -0.00413  -1.41762
  14                   -0.00250  -1.06318
  15                   -0.00117  -0.70911
  16                   -0.00030  -0.35478
  17                    0.00000   0.00000
  18                   -0.00033   0.35478
  19                   -0.00132   0.70918
  20                   -0.00296   1.06330
  21                   -0.00514   1.41771
  22                   -0.00775   1.77221
  23                   -0.01059   2.12685
  24                   -0.01342   2.48153
  25                   -0.01592   2.83614
  26                   -0.01776   3.19067
  27                   -0.01876   3.54228
  28                   -0.01944   3.89577
  29                   -0.02003   4.25048
  30                   -0.02054   4.60520
  31                   -0.02097   4.95992
  32                   -0.02134   5.31464
  33                   -0.02165   5.66936
  34                   -0.02190   6.02409
  35                   -0.02211   6.37881
  36                   -0.02227   6.73353
  37                   -0.02239   7.08826
  38                   -0.02249   7.44298
  39                   -0.02256   7.79770
  40                   -0.02260   8.15239
 --------------------------------------------------------------------------
 
 Total number of points:                   39
 Total number of gradient calculations:    40
 Total number of Hessian calculations:      8
 IRC-IRC-IRC-IRC-IRC-IRC-IRC-IRC-IRC-IRC-IRC-IRC-IRC-IRC-IRC-IRC-IRC-IRC
 Leave Link  123 at Fri Oct 18 03:30:31 2019, MaxMem=   104857600 cpu:               4.0 elap:               0.2
 (Enter /share/home/wli/program/opt/Chem_soft/g16/l202.exe)
                          Input orientation:                          
 ---------------------------------------------------------------------
 Center     Atomic      Atomic             Coordinates (Angstroms)
 Number     Number       Type             X           Y           Z
 ---------------------------------------------------------------------
      1          6           0       -0.349225    0.001738   -0.005582
      2          1           0       -0.664787    0.877044   -0.554829
      3          1           0       -0.666709   -0.910167   -0.490402
      4          1           0       -0.670704    0.039135    1.025250
      5         17           0       -3.542051   -0.000191    0.001376
      6         35           0        1.648160   -0.000257    0.000494
 ---------------------------------------------------------------------
                    Distance matrix (angstroms):
                    1          2          3          4          5
     1  C    0.000000
     2  H    1.080468   0.000000
     3  H    1.080471   1.788373   0.000000
     4  H    1.080445   1.788512   1.788405   0.000000
     5  Cl   3.192834   3.059012   3.055731   3.048688   0.000000
     6  Br   1.997395   2.535303   2.535259   2.535509   5.190211
                    6
     6  Br   0.000000
 Symmetry turned off by external request.
 Stoichiometry    CH3BrCl(1-)
 Framework group  C1[X(CH3BrCl)]
 Deg. of freedom    12
 Full point group                 C1      NOp   1
 Rotational constants (GHZ):         156.7489442           0.7686119           0.7686108
 Leave Link  202 at Fri Oct 18 03:30:31 2019, MaxMem=   104857600 cpu:               1.8 elap:               0.1
 (Enter /share/home/wli/program/opt/Chem_soft/g16/l601.exe)
 Copying SCF densities to generalized density rwf, IOpCl= 0 IROHF=0.

 **********************************************************************

            Population analysis using the SCF density.

 **********************************************************************

 Alpha  occ. eigenvalues -- -482.79016-101.31032 -62.43834 -56.25423 -56.25104
 Alpha  occ. eigenvalues --  -56.25104 -10.15470  -9.24219  -8.62941  -6.99827
 Alpha  occ. eigenvalues --   -6.99802  -6.99802  -6.45814  -6.44824  -6.44824
 Alpha  occ. eigenvalues --   -2.57277  -2.56994  -2.56994  -2.56201  -2.56201
 Alpha  occ. eigenvalues --   -0.73913  -0.61122  -0.59409  -0.37627  -0.37622
 Alpha  occ. eigenvalues --   -0.31935  -0.22880  -0.22880  -0.14474  -0.14473
 Alpha  occ. eigenvalues --   -0.14429
 Alpha virt. eigenvalues --    0.04925   0.11753   0.17091   0.17109   0.22575
 Alpha virt. eigenvalues --    0.26318   0.26325   0.29799   0.30773   0.30774
 Alpha virt. eigenvalues --    0.36079   0.36080   0.41532   0.41542   0.43618
 Alpha virt. eigenvalues --    0.48439   0.48442   0.51719   0.52383   0.53058
 Alpha virt. eigenvalues --    0.53072   0.56713   0.60827   0.60833   0.62441
 Alpha virt. eigenvalues --    0.62472   0.63197   0.83040   0.83044   0.89042
 Alpha virt. eigenvalues --    0.95629   0.99089   0.99120   1.03567   1.35859
 Alpha virt. eigenvalues --    1.35862   1.39435   1.39524   1.39525   1.49619
 Alpha virt. eigenvalues --    1.49621   1.56689   1.56732   1.58815   1.59023
 Alpha virt. eigenvalues --    1.61324   1.61330   1.64976   1.65022   1.65024
 Alpha virt. eigenvalues --    1.69728   1.70015   1.70025   1.85896   1.90495
 Alpha virt. eigenvalues --    1.90497   1.92056   1.92056   2.06161   2.07356
 Alpha virt. eigenvalues --    2.07383   2.17603   2.26441   2.26448   2.26987
 Alpha virt. eigenvalues --    2.27000   2.27053   2.27053   2.28113   2.28125
 Alpha virt. eigenvalues --    2.33546   2.37113   2.37123   2.41906   2.49450
 Alpha virt. eigenvalues --    2.49458   2.63633   2.63683   2.75089   2.84009
 Alpha virt. eigenvalues --    3.08634   3.08644   3.31359   3.31374   3.34525
 Alpha virt. eigenvalues --    3.44519   3.52939   3.52944   3.66486   4.04447
 Alpha virt. eigenvalues --    4.04449   4.13697   4.13699   4.26032   4.26050
 Alpha virt. eigenvalues --    4.50540   4.56960   7.52521  10.85821  10.85827
 Alpha virt. eigenvalues --   10.89278  22.18209  24.12809
          Condensed to atoms (all electrons):
               1          2          3          4          5          6
     1  C    4.894416   0.392892   0.392938   0.393019  -0.039926   0.178015
     2  H    0.392892   0.525707  -0.021456  -0.021383   0.020390  -0.027431
     3  H    0.392938  -0.021456   0.525374  -0.021366   0.020495  -0.027433
     4  H    0.393019  -0.021383  -0.021366   0.524661   0.020734  -0.027427
     5  Cl  -0.039926   0.020390   0.020495   0.020734  17.906208   0.002716
     6  Br   0.178015  -0.027431  -0.027433  -0.027427   0.002716  35.154077
 Mulliken charges:
               1
     1  C   -0.211354
     2  H    0.131280
     3  H    0.131447
     4  H    0.131761
     5  Cl  -0.930618
     6  Br  -0.252517
 Sum of Mulliken charges =  -1.00000
 Mulliken charges with hydrogens summed into heavy atoms:
               1
     1  C    0.183134
     5  Cl  -0.930618
     6  Br  -0.252517
 APT charges:
               1
     1  C   -0.846095
     2  H    0.294679
     3  H    0.294241
     4  H    0.293318
     5  Cl  -0.911820
     6  Br  -0.124323
 Sum of APT charges =  -1.00000
 APT charges with hydrogens summed into heavy atoms:
               1
     1  C    0.036142
     5  Cl  -0.911820
     6  Br  -0.124323
 Electronic spatial extent (au):  <R**2>=           1258.7998
 Charge=             -1.0000 electrons
 Dipole moment (field-independent basis, Debye):
    X=             12.7913    Y=              0.0028    Z=             -0.0123  Tot=             12.7913
 Quadrupole moment (field-independent basis, Debye-Ang):
   XX=           -102.1883   YY=            -42.2655   ZZ=            -42.2646
   XY=             -0.0042   XZ=              0.0256   YZ=             -0.0000
 Traceless Quadrupole moment (field-independent basis, Debye-Ang):
   XX=            -39.9488   YY=             19.9739   ZZ=             19.9749
   XY=             -0.0042   XZ=              0.0256   YZ=             -0.0000
 Octapole moment (field-independent basis, Debye-Ang**2):
  XXX=            281.9177  YYY=             -0.1014  ZZZ=              0.8507  XYY=             26.0809
  XXY=             -0.0035  XXZ=             -0.0360  XZZ=             26.0746  YZZ=              0.0862
  YYZ=             -0.8231  XYZ=             -0.0014
 Hexadecapole moment (field-independent basis, Debye-Ang**3):
 XXXX=          -2262.0483 YYYY=            -59.8415 ZZZZ=            -59.8641 XXXY=             -0.0456
 XXXZ=              0.4475 YYYX=              0.0623 YYYZ=             -0.0040 ZZZX=             -0.3801
 ZZZY=              0.0001 XXYY=           -273.8775 XXZZ=           -273.8689 YYZZ=            -19.9356
 XXYZ=              0.0022 YYXZ=              0.5696 ZZXY=             -0.0547
 N-N= 1.736539085286D+02 E-N=-7.698665450124D+03  KE= 3.069819816305D+03
  Exact polarizability:   0.000   0.000   0.000   0.000   0.000   0.000
 Approx polarizability: 109.942  -0.019  57.919   0.052   0.002  57.932
 No NMR shielding tensors so no spin-rotation constants.
 Leave Link  601 at Fri Oct 18 03:30:31 2019, MaxMem=   104857600 cpu:               4.9 elap:               0.2
 (Enter /share/home/wli/program/opt/Chem_soft/g16/l9999.exe)

 This type of calculation cannot be archived.


 FOR THE NATURE OF THE CHEMICAL BOND
 IS THE PROBLEM AT THE HEART OF ALL CHEMISTRY.

                     -- BRYCE CRAWFORD, JR., 1953
 Job cpu time:       0 days  2 hours 43 minutes 19.9 seconds.
 Elapsed time:       0 days  0 hours  7 minutes 47.2 seconds.
 File lengths (MBytes):  RWF=    272 Int=      0 D2E=      0 Chk=     32 Scr=     32
 Normal termination of Gaussian 16 at Fri Oct 18 03:30:32 2019.
