 Entering Gaussian System, Link 0=g16
 Input=P_def2tzvp.gjf
 Output=P_def2tzvp.log
 Initial command:
 /home/soft/g16/l1.exe "/tmp/gaussian/Gau-42265.inp" -scrdir="/tmp/gaussian/"
 Entering Link 1 = /home/soft/g16/l1.exe PID=     42266.
  
 Copyright (c) 1988,1990,1992,1993,1995,1998,2003,2009,2016,
            Gaussian, Inc.  All Rights Reserved.
  
 This is part of the Gaussian(R) 16 program.  It is based on
 the Gaussian(R) 09 system (copyright 2009, Gaussian, Inc.),
 the Gaussian(R) 03 system (copyright 2003, Gaussian, Inc.),
 the Gaussian(R) 98 system (copyright 1998, Gaussian, Inc.),
 the Gaussian(R) 94 system (copyright 1995, Gaussian, Inc.),
 the Gaussian 92(TM) system (copyright 1992, Gaussian, Inc.),
 the Gaussian 90(TM) system (copyright 1990, Gaussian, Inc.),
 the Gaussian 88(TM) system (copyright 1988, Gaussian, Inc.),
 the Gaussian 86(TM) system (copyright 1986, Carnegie Mellon
 University), and the Gaussian 82(TM) system (copyright 1983,
 Carnegie Mellon University). Gaussian is a federally registered
 trademark of Gaussian, Inc.
  
 This software contains proprietary and confidential information,
 including trade secrets, belonging to Gaussian, Inc.
  
 This software is provided under written license and may be
 used, copied, transmitted, or stored only in accord with that
 written license.
  
 The following legend is applicable only to US Government
 contracts under FAR:
  
                    RESTRICTED RIGHTS LEGEND
  
 Use, reproduction and disclosure by the US Government is
 subject to restrictions as set forth in subparagraphs (a)
 and (c) of the Commercial Computer Software - Restricted
 Rights clause in FAR 52.227-19.
  
 Gaussian, Inc.
 340 Quinnipiac St., Bldg. 40, Wallingford CT 06492
  
  
 ---------------------------------------------------------------
 Warning -- This program may not be used in any manner that
 competes with the business of Gaussian, Inc. or will provide
 assistance to any competitor of Gaussian, Inc.  The licensee
 of this program is prohibited from giving any competitor of
 Gaussian, Inc. access to this program.  By using this program,
 the user acknowledges that Gaussian, Inc. is engaged in the
 business of creating and licensing software in the field of
 computational chemistry and represents and warrants to the
 licensee that it is not a competitor of Gaussian, Inc. and that
 it will not use this program in any manner prohibited above.
 ---------------------------------------------------------------
  

 Cite this work as:
 Gaussian 16, Revision A.03,
 M. J. Frisch, G. W. Trucks, H. B. Schlegel, G. E. Scuseria, 
 M. A. Robb, J. R. Cheeseman, G. Scalmani, V. Barone, 
 G. A. Petersson, H. Nakatsuji, X. Li, M. Caricato, A. V. Marenich, 
 J. Bloino, B. G. Janesko, R. Gomperts, B. Mennucci, H. P. Hratchian, 
 J. V. Ortiz, A. F. Izmaylov, J. L. Sonnenberg, D. Williams-Young, 
 F. Ding, F. Lipparini, F. Egidi, J. Goings, B. Peng, A. Petrone, 
 T. Henderson, D. Ranasinghe, V. G. Zakrzewski, J. Gao, N. Rega, 
 G. Zheng, W. Liang, M. Hada, M. Ehara, K. Toyota, R. Fukuda, 
 J. Hasegawa, M. Ishida, T. Nakajima, Y. Honda, O. Kitao, H. Nakai, 
 T. Vreven, K. Throssell, J. A. Montgomery, Jr., J. E. Peralta, 
 F. Ogliaro, M. J. Bearpark, J. J. Heyd, E. N. Brothers, K. N. Kudin, 
 V. N. Staroverov, T. A. Keith, R. Kobayashi, J. Normand, 
 K. Raghavachari, A. P. Rendell, J. C. Burant, S. S. Iyengar, 
 J. Tomasi, M. Cossi, J. M. Millam, M. Klene, C. Adamo, R. Cammi, 
 J. W. Ochterski, R. L. Martin, K. Morokuma, O. Farkas, 
 J. B. Foresman, and D. J. Fox, Gaussian, Inc., Wallingford CT, 2016.
 
 ******************************************
 Gaussian 16:  ES64L-G16RevA.03 25-Dec-2016
                17-Oct-2019 
 ******************************************
 %chk=P_d.chk
 %nproc=24
 Will use up to   24 processors via shared memory.
 ---------------------------------------------
 #p b3lyp/def2tzvp em=gd3bj opt=(calcall) freq
 ---------------------------------------------
 1/10=4,18=20,19=15,26=3,38=1/1,3;
 2/9=110,12=2,17=6,18=5,40=1/2;
 3/5=44,7=101,11=2,25=1,30=1,71=2,74=-5,124=41,140=1/1,2,3;
 4//1;
 5/5=2,38=5/2;
 8/6=4,10=90,11=11/1;
 11/6=1,8=1,9=11,15=111,16=1/1,2,10;
 10/6=1/2;
 6/7=2,8=2,9=2,10=2,18=1,28=1/1;
 7/10=1,25=1/1,2,3,16;
 1/10=4,18=20,19=15,26=3/3(3);
 2/9=110/2;
 7/8=1,9=1,25=1,44=-1/16;
 99//99;
 2/9=110/2;
 3/5=44,7=101,11=2,25=1,30=1,71=2,74=-5,124=41,140=1/1,2,3;
 4/5=5,16=3,69=1/1;
 5/5=2,38=5/2;
 8/6=4,10=90,11=11/1;
 11/6=1,8=1,9=11,15=111,16=1/1,2,10;
 10/6=1/2;
 7/10=1,25=1/1,2,3,16;
 1/10=4,18=20,19=15,26=3/3(-8);
 2/9=110/2;
 6/7=2,8=2,9=2,10=2,18=1,19=2,28=1/1;
 7/8=1,9=1,25=1,44=-1/16;
 99//99;
 Leave Link    1 at Thu Oct 17 18:27:37 2019, MaxMem=           0 cpu:               2.2 elap:               0.1
 (Enter /home/soft/g16/l101.exe)
 -------------------
 Title Card Required
 -------------------
 Symbolic Z-matrix:
 Charge = -1 Multiplicity = 1
 C                    -1.08527  -1.08527   0. 
 H                    -0.72862  -2.09408   0. 
 H                    -0.7286   -0.58087   0.87365 
 H                    -0.7286   -0.58087  -0.87365 
 Br                   -2.99527  -1.08525   0. 
 Cl                    0.90443  -1.0853    0. 
 
 ITRead=  0  0  0  0  0  0
 MicOpt= -1 -1 -1 -1 -1 -1
 NAtoms=      6 NQM=        6 NQMF=       0 NMMI=      0 NMMIF=      0
                NMic=       0 NMicF=      0.
                    Isotopes and Nuclear Properties:
 (Nuclear quadrupole moments (NQMom) in fm**2, nuclear magnetic moments (NMagM)
  in nuclear magnetons)

  Atom         1           2           3           4           5           6
 IAtWgt=          12           1           1           1          79          35
 AtmWgt=  12.0000000   1.0078250   1.0078250   1.0078250  78.9183361  34.9688527
 NucSpn=           0           1           1           1           3           3
 AtZEff=  -0.0000000  -0.0000000  -0.0000000  -0.0000000  -0.0000000  -0.0000000
 NQMom=    0.0000000   0.0000000   0.0000000   0.0000000  31.3000000  -8.1650000
 NMagM=    0.0000000   2.7928460   2.7928460   2.7928460   2.1063990   0.8218740
 AtZNuc=   6.0000000   1.0000000   1.0000000   1.0000000  35.0000000  17.0000000
 Leave Link  101 at Thu Oct 17 18:27:37 2019, MaxMem=   280000000 cpu:               4.4 elap:               0.2
 (Enter /home/soft/g16/l103.exe)

 GradGradGradGradGradGradGradGradGradGradGradGradGradGradGradGradGradGrad
 Berny optimization.
 Initialization pass.
                           ----------------------------
                           !    Initial Parameters    !
                           ! (Angstroms and Degrees)  !
 --------------------------                            --------------------------
 ! Name  Definition              Value          Derivative Info.                !
 --------------------------------------------------------------------------------
 ! R1    R(1,2)                  1.07           calculate D2E/DX2 analytically  !
 ! R2    R(1,3)                  1.07           calculate D2E/DX2 analytically  !
 ! R3    R(1,4)                  1.07           calculate D2E/DX2 analytically  !
 ! R4    R(1,5)                  1.91           calculate D2E/DX2 analytically  !
 ! R5    R(1,6)                  1.9897         calculate D2E/DX2 analytically  !
 ! A1    A(2,1,3)              109.4712         calculate D2E/DX2 analytically  !
 ! A2    A(2,1,4)              109.4712         calculate D2E/DX2 analytically  !
 ! A3    A(2,1,5)              109.4712         calculate D2E/DX2 analytically  !
 ! A4    A(2,1,6)               70.5288         calculate D2E/DX2 analytically  !
 ! A5    A(3,1,4)              109.4713         calculate D2E/DX2 analytically  !
 ! A6    A(3,1,5)              109.4712         calculate D2E/DX2 analytically  !
 ! A7    A(3,1,6)               70.5288         calculate D2E/DX2 analytically  !
 ! A8    A(4,1,5)              109.4712         calculate D2E/DX2 analytically  !
 ! A9    A(4,1,6)               70.5288         calculate D2E/DX2 analytically  !
 ! A10   L(5,1,6,2,-1)         180.0            calculate D2E/DX2 analytically  !
 ! A11   L(5,1,6,2,-2)         180.0            calculate D2E/DX2 analytically  !
 ! D1    D(2,1,4,3)           -120.0            calculate D2E/DX2 analytically  !
 ! D2    D(2,1,5,3)            120.0            calculate D2E/DX2 analytically  !
 ! D3    D(2,1,6,3)           -120.0            calculate D2E/DX2 analytically  !
 ! D4    D(2,1,5,4)           -120.0            calculate D2E/DX2 analytically  !
 ! D5    D(2,1,6,4)            120.0            calculate D2E/DX2 analytically  !
 ! D6    D(3,1,5,4)            120.0            calculate D2E/DX2 analytically  !
 ! D7    D(3,1,6,4)           -120.0            calculate D2E/DX2 analytically  !
 --------------------------------------------------------------------------------
 Trust Radius=3.00D-01 FncErr=1.00D-07 GrdErr=1.00D-06 EigMax=2.50D+02 EigMin=1.00D-04
 Number of steps in this run=     33 maximum allowed number of steps=    100.
 GradGradGradGradGradGradGradGradGradGradGradGradGradGradGradGradGradGrad

 Leave Link  103 at Thu Oct 17 18:27:37 2019, MaxMem=   280000000 cpu:               0.4 elap:               0.0
 (Enter /home/soft/g16/l202.exe)
                          Input orientation:                          
 ---------------------------------------------------------------------
 Center     Atomic      Atomic             Coordinates (Angstroms)
 Number     Number       Type             X           Y           Z
 ---------------------------------------------------------------------
      1          6           0       -1.085271   -1.085271    0.000000
      2          1           0       -0.728617   -2.094081    0.000000
      3          1           0       -0.728598   -0.580873    0.873652
      4          1           0       -0.728598   -0.580873   -0.873652
      5         35           0       -2.995271   -1.085248    0.000000
      6         17           0        0.904435   -1.085296    0.000000
 ---------------------------------------------------------------------
                    Distance matrix (angstroms):
                    1          2          3          4          5
     1  C    0.000000
     2  H    1.070000   0.000000
     3  H    1.070000   1.747302   0.000000
     4  H    1.070000   1.747302   1.747303   0.000000
     5  Br   1.910000   2.481021   2.481021   2.481021   0.000000
     6  Cl   1.989706   1.919507   1.919507   1.919507   3.899706
                    6
     6  Cl   0.000000
 Stoichiometry    CH3BrCl(1-)
 Framework group  C3V[C3(ClCBr),3SGV(H)]
 Deg. of freedom     4
 Full point group                 C3V     NOp   6
 Largest Abelian subgroup         CS      NOp   2
 Largest concise Abelian subgroup CS      NOp   2
                         Standard orientation:                         
 ---------------------------------------------------------------------
 Center     Atomic      Atomic             Coordinates (Angstroms)
 Number     Number       Type             X           Y           Z
 ---------------------------------------------------------------------
      1          6           0        0.000000   -0.000000   -0.523852
      2          1           0       -0.000000    1.008806   -0.880519
      3          1           0       -0.873651   -0.504403   -0.880519
      4          1           0        0.873651   -0.504403   -0.880519
      5         35           0       -0.000000    0.000000    1.386148
      6         17           0        0.000000   -0.000000   -2.513558
 ---------------------------------------------------------------------
 Rotational constants (GHZ):         164.2463927           1.3351421           1.3351421
 Leave Link  202 at Thu Oct 17 18:27:37 2019, MaxMem=   280000000 cpu:               1.5 elap:               0.1
 (Enter /home/soft/g16/l301.exe)
 Standard basis: def2TZVP (5D, 7F)
 Ernie: Thresh=  0.10000D-02 Tol=  0.10000D-05 Strict=F.
 There are   103 symmetry adapted cartesian basis functions of A'  symmetry.
 There are    48 symmetry adapted cartesian basis functions of A"  symmetry.
 There are    89 symmetry adapted basis functions of A'  symmetry.
 There are    45 symmetry adapted basis functions of A"  symmetry.
   134 basis functions,   258 primitive gaussians,   151 cartesian basis functions
    31 alpha electrons       31 beta electrons
       nuclear repulsion energy       212.3149345937 Hartrees.
 IExCor=  402 DFT=T Ex+Corr=B3LYP ExCW=0 ScaHFX=  0.200000
 ScaDFX=  0.800000  0.720000  1.000000  0.810000 ScalE2=  1.000000  1.000000
 IRadAn=      5 IRanWt=     -1 IRanGd=            0 ICorTp=0 IEmpDi=141
 NAtoms=    6 NActive=    6 NUniq=    4 SFac= 2.25D+00 NAtFMM=   60 NAOKFM=F Big=F
 Integral buffers will be    131072 words long.
 Raffenetti 2 integral format.
 Two-electron integral symmetry is turned on.
 R6Disp:  Grimme-D3(BJ) Dispersion energy=       -0.0081466918 Hartrees.
 Nuclear repulsion after empirical dispersion term =      212.3067879019 Hartrees.
 Leave Link  301 at Thu Oct 17 18:27:37 2019, MaxMem=   280000000 cpu:               2.0 elap:               0.1
 (Enter /home/soft/g16/l302.exe)
 NPDir=0 NMtPBC=     1 NCelOv=     1 NCel=       1 NClECP=     1 NCelD=      1
         NCelK=      1 NCelE2=     1 NClLst=     1 CellRange=     0.0.
 One-electron integrals computed using PRISM.
 One-electron integral symmetry used in STVInt
   6 Symmetry operations used in ECPInt.
 ECPInt:  NShTT=    1378 NPrTT=    5593 LenC2=    1343 LenP2D=    4412.
 LDataN:  DoStor=T MaxTD1= 6 Len=  172
 NBasis=   134 RedAO= T EigKep=  1.11D-03  NBF=    89    45
 NBsUse=   134 1.00D-06 EigRej= -1.00D+00 NBFU=    89    45
 Precomputing XC quadrature grid using
 IXCGrd= 4 IRadAn=           5 IRanWt=          -1 IRanGd=           0 AccXCQ= 0.00D+00.
 Generated NRdTot=       0 NPtTot=           0 NUsed=           0 NTot=          32
 NSgBfM=   150   150   150   150   150 MxSgAt=     6 MxSgA2=     6.
 Leave Link  302 at Thu Oct 17 18:27:37 2019, MaxMem=   280000000 cpu:               5.9 elap:               0.3
 (Enter /home/soft/g16/l303.exe)
 DipDrv:  MaxL=1.
 Leave Link  303 at Thu Oct 17 18:27:37 2019, MaxMem=   280000000 cpu:               1.5 elap:               0.1
 (Enter /home/soft/g16/l401.exe)
 ExpMin= 9.52D-02 ExpMax= 5.65D+05 ExpMxC= 5.46D+03 IAcc=3 IRadAn=         5 AccDes= 0.00D+00
 Harris functional with IExCor=  402 and IRadAn=       5 diagonalized for initial guess.
 HarFok:  IExCor=  402 AccDes= 0.00D+00 IRadAn=         5 IDoV= 1 UseB2=F ITyADJ=14
 ICtDFT=  3500011 ScaDFX=  1.000000  1.000000  1.000000  1.000000
 FoFCou: FMM=F IPFlag=           0 FMFlag=      100000 FMFlg1=           0
         NFxFlg=           0 DoJE=T BraDBF=F KetDBF=T FulRan=T
         wScrn=  0.000000 ICntrl=       500 IOpCl=  0 I1Cent=   200000004 NGrid=           0
         NMat0=    1 NMatS0=      1 NMatT0=    0 NMatD0=    1 NMtDS0=    0 NMtDT0=    0
 Petite list used in FoFCou.
 Harris En= -3074.46564510689    
 JPrj=0 DoOrth=F DoCkMO=F.
 Initial guess orbital symmetries:
       Occupied  (A1) (A1) (A1) (A1) (E) (E) (A1) (A1) (A1) (A1)
                 (E) (E) (A1) (E) (E) (A1) (E) (E) (E) (E) (A1)
                 (A1) (A1) (E) (E) (A1) (E) (E) (E) (E) (A1)
       Virtual   (A1) (A1) (E) (E) (A1) (E) (E) (E) (E) (A1) (E)
                 (E) (E) (E) (A1) (E) (E) (A1) (A1) (E) (E) (E)
                 (E) (E) (E) (A1) (A1) (E) (E) (A1) (E) (E) (A1)
                 (A1) (E) (E) (E) (E) (E) (E) (A1) (A2) (A1) (A2)
                 (E) (E) (E) (E) (A1) (E) (E) (A1) (A1) (E) (E)
                 (A1) (E) (E) (E) (E) (A1) (E) (E) (A1) (A2) (E)
                 (E) (A1) (E) (E) (A1) (E) (E) (E) (E) (A1) (E)
                 (E) (A1) (E) (E) (A1) (A2) (E) (E) (E) (E) (A1)
                 (A1) (E) (E) (E) (E) (E) (E) (A1) (A1) (A1) (E)
                 (E) (A1) (A1) (A1)
 The electronic state of the initial guess is 1-A1.
 Leave Link  401 at Thu Oct 17 18:27:38 2019, MaxMem=   280000000 cpu:               6.4 elap:               0.3
 (Enter /home/soft/g16/l502.exe)
 Keep R1 ints in memory in symmetry-blocked form, NReq=64335426.
 FoFCou: FMM=F IPFlag=           0 FMFlag=           0 FMFlg1=           0
         NFxFlg=           0 DoJE=F BraDBF=F KetDBF=F FulRan=T
         wScrn=  0.000000 ICntrl=       600 IOpCl=  0 I1Cent=           0 NGrid=           0
         NMat0=    1 NMatS0=   9045 NMatT0=    0 NMatD0=    1 NMtDS0=    0 NMtDT0=    0
 Petite list used in FoFCou.
 Closed shell SCF:
 Using DIIS extrapolation, IDIIS=  1040.
 NGot=   280000000 LenX=   259203668 LenY=   259180426
 Requested convergence on RMS density matrix=1.00D-08 within 128 cycles.
 Requested convergence on MAX density matrix=1.00D-06.
 Requested convergence on             energy=1.00D-06.
 No special actions if energy rises.
 Integral accuracy reduced to 1.0D-05 until final iterations.

 Cycle   1  Pass 0  IDiag  1:
 E= -3074.17514279143    
 DIIS: error= 6.49D-02 at cycle   1 NSaved=   1.
 NSaved= 1 IEnMin= 1 EnMin= -3074.17514279143     IErMin= 1 ErrMin= 6.49D-02
 ErrMax= 6.49D-02  0.00D+00 EMaxC= 1.00D-01 BMatC= 2.71D-01 BMatP= 2.71D-01
 IDIUse=3 WtCom= 3.51D-01 WtEn= 6.49D-01
 Coeff-Com:  0.100D+01
 Coeff-En:   0.100D+01
 Coeff:      0.100D+01
 Gap=     0.305 Goal=   None    Shift=    0.000
 GapD=    0.305 DampG=1.000 DampE=0.500 DampFc=0.5000 IDamp=-1.
 Damping current iteration by 5.00D-01
 RMSDP=6.28D-03 MaxDP=1.85D-01              OVMax= 2.39D-01

 Cycle   2  Pass 0  IDiag  1:
 E= -3074.22826637643     Delta-E=       -0.053123584999 Rises=F Damp=T
 DIIS: error= 2.55D-02 at cycle   2 NSaved=   2.
 NSaved= 2 IEnMin= 2 EnMin= -3074.22826637643     IErMin= 2 ErrMin= 2.55D-02
 ErrMax= 2.55D-02  0.00D+00 EMaxC= 1.00D-01 BMatC= 2.82D-02 BMatP= 2.71D-01
 IDIUse=3 WtCom= 7.45D-01 WtEn= 2.55D-01
 Coeff-Com: -0.432D-01 0.104D+01
 Coeff-En:   0.204D+00 0.796D+00
 Coeff:      0.197D-01 0.980D+00
 Gap=     0.216 Goal=   None    Shift=    0.000
 RMSDP=1.54D-03 MaxDP=3.36D-02 DE=-5.31D-02 OVMax= 1.73D-01

 Cycle   3  Pass 0  IDiag  1:
 E= -3074.29565238514     Delta-E=       -0.067386008707 Rises=F Damp=F
 DIIS: error= 8.66D-03 at cycle   3 NSaved=   3.
 NSaved= 3 IEnMin= 3 EnMin= -3074.29565238514     IErMin= 3 ErrMin= 8.66D-03
 ErrMax= 8.66D-03  0.00D+00 EMaxC= 1.00D-01 BMatC= 1.46D-02 BMatP= 2.82D-02
 IDIUse=3 WtCom= 9.13D-01 WtEn= 8.66D-02
 Coeff-Com: -0.971D-01 0.467D+00 0.630D+00
 Coeff-En:   0.000D+00 0.000D+00 0.100D+01
 Coeff:     -0.887D-01 0.427D+00 0.662D+00
 Gap=     0.221 Goal=   None    Shift=    0.000
 RMSDP=8.75D-04 MaxDP=1.95D-02 DE=-6.74D-02 OVMax= 5.53D-02

 Cycle   4  Pass 0  IDiag  1:
 E= -3074.30870296006     Delta-E=       -0.013050574928 Rises=F Damp=F
 DIIS: error= 2.51D-03 at cycle   4 NSaved=   4.
 NSaved= 4 IEnMin= 4 EnMin= -3074.30870296006     IErMin= 4 ErrMin= 2.51D-03
 ErrMax= 2.51D-03  0.00D+00 EMaxC= 1.00D-01 BMatC= 1.20D-03 BMatP= 1.46D-02
 IDIUse=3 WtCom= 9.75D-01 WtEn= 2.51D-02
 Coeff-Com: -0.161D-01 0.504D-01 0.255D+00 0.710D+00
 Coeff-En:   0.000D+00 0.000D+00 0.250D-01 0.975D+00
 Coeff:     -0.157D-01 0.492D-01 0.250D+00 0.717D+00
 Gap=     0.216 Goal=   None    Shift=    0.000
 RMSDP=2.30D-04 MaxDP=5.49D-03 DE=-1.31D-02 OVMax= 1.16D-02

 Cycle   5  Pass 0  IDiag  1:
 E= -3074.30978583439     Delta-E=       -0.001082874323 Rises=F Damp=F
 DIIS: error= 2.23D-04 at cycle   5 NSaved=   5.
 NSaved= 5 IEnMin= 5 EnMin= -3074.30978583439     IErMin= 5 ErrMin= 2.23D-04
 ErrMax= 2.23D-04  0.00D+00 EMaxC= 1.00D-01 BMatC= 1.39D-05 BMatP= 1.20D-03
 IDIUse=3 WtCom= 9.98D-01 WtEn= 2.23D-03
 Coeff-Com: -0.482D-02 0.938D-02 0.736D-01 0.247D+00 0.675D+00
 Coeff-En:   0.000D+00 0.000D+00 0.000D+00 0.000D+00 0.100D+01
 Coeff:     -0.481D-02 0.936D-02 0.734D-01 0.246D+00 0.676D+00
 Gap=     0.217 Goal=   None    Shift=    0.000
 RMSDP=3.90D-05 MaxDP=1.32D-03 DE=-1.08D-03 OVMax= 2.02D-03

 Cycle   6  Pass 0  IDiag  1:
 E= -3074.30979399284     Delta-E=       -0.000008158456 Rises=F Damp=F
 DIIS: error= 8.83D-05 at cycle   6 NSaved=   6.
 NSaved= 6 IEnMin= 6 EnMin= -3074.30979399284     IErMin= 6 ErrMin= 8.83D-05
 ErrMax= 8.83D-05  0.00D+00 EMaxC= 1.00D-01 BMatC= 1.63D-06 BMatP= 1.39D-05
 IDIUse=1 WtCom= 1.00D+00 WtEn= 0.00D+00
 Coeff-Com: -0.139D-02 0.188D-02 0.164D-01 0.599D-01 0.324D+00 0.599D+00
 Coeff:     -0.139D-02 0.188D-02 0.164D-01 0.599D-01 0.324D+00 0.599D+00
 Gap=     0.217 Goal=   None    Shift=    0.000
 RMSDP=1.63D-05 MaxDP=4.67D-04 DE=-8.16D-06 OVMax= 8.43D-04

 Cycle   7  Pass 0  IDiag  1:
 E= -3074.30979564463     Delta-E=       -0.000001651786 Rises=F Damp=F
 DIIS: error= 2.08D-05 at cycle   7 NSaved=   7.
 NSaved= 7 IEnMin= 7 EnMin= -3074.30979564463     IErMin= 7 ErrMin= 2.08D-05
 ErrMax= 2.08D-05  0.00D+00 EMaxC= 1.00D-01 BMatC= 1.65D-07 BMatP= 1.63D-06
 IDIUse=1 WtCom= 1.00D+00 WtEn= 0.00D+00
 Coeff-Com: -0.112D-03-0.455D-04 0.108D-02 0.746D-02 0.969D-01 0.301D+00
 Coeff-Com:  0.594D+00
 Coeff:     -0.112D-03-0.455D-04 0.108D-02 0.746D-02 0.969D-01 0.301D+00
 Coeff:      0.594D+00
 Gap=     0.217 Goal=   None    Shift=    0.000
 RMSDP=3.95D-06 MaxDP=1.03D-04 DE=-1.65D-06 OVMax= 2.29D-04

 Initial convergence to 1.0D-05 achieved.  Increase integral accuracy.
 Cycle   8  Pass 1  IDiag  1:
 E= -3074.30982335194     Delta-E=       -0.000027707313 Rises=F Damp=F
 DIIS: error= 3.78D-06 at cycle   1 NSaved=   1.
 NSaved= 1 IEnMin= 1 EnMin= -3074.30982335194     IErMin= 1 ErrMin= 3.78D-06
 ErrMax= 3.78D-06  0.00D+00 EMaxC= 1.00D-01 BMatC= 6.77D-09 BMatP= 6.77D-09
 IDIUse=1 WtCom= 1.00D+00 WtEn= 0.00D+00
 Coeff-Com:  0.100D+01
 Coeff:      0.100D+01
 Gap=     0.217 Goal=   None    Shift=    0.000
 RMSDP=3.95D-06 MaxDP=1.03D-04 DE=-2.77D-05 OVMax= 4.12D-05

 Cycle   9  Pass 1  IDiag  1:
 E= -3074.30982335587     Delta-E=       -0.000000003926 Rises=F Damp=F
 DIIS: error= 4.10D-06 at cycle   2 NSaved=   2.
 NSaved= 2 IEnMin= 2 EnMin= -3074.30982335587     IErMin= 1 ErrMin= 3.78D-06
 ErrMax= 4.10D-06  0.00D+00 EMaxC= 1.00D-01 BMatC= 4.97D-09 BMatP= 6.77D-09
 IDIUse=1 WtCom= 1.00D+00 WtEn= 0.00D+00
 Coeff-Com:  0.456D+00 0.544D+00
 Coeff:      0.456D+00 0.544D+00
 Gap=     0.217 Goal=   None    Shift=    0.000
 RMSDP=5.74D-07 MaxDP=2.30D-05 DE=-3.93D-09 OVMax= 1.85D-05

 Cycle  10  Pass 1  IDiag  1:
 E= -3074.30982335905     Delta-E=       -0.000000003181 Rises=F Damp=F
 DIIS: error= 7.63D-07 at cycle   3 NSaved=   3.
 NSaved= 3 IEnMin= 3 EnMin= -3074.30982335905     IErMin= 3 ErrMin= 7.63D-07
 ErrMax= 7.63D-07  0.00D+00 EMaxC= 1.00D-01 BMatC= 1.46D-10 BMatP= 4.97D-09
 IDIUse=1 WtCom= 1.00D+00 WtEn= 0.00D+00
 Coeff-Com:  0.221D-01 0.140D+00 0.838D+00
 Coeff:      0.221D-01 0.140D+00 0.838D+00
 Gap=     0.217 Goal=   None    Shift=    0.000
 RMSDP=1.29D-07 MaxDP=3.07D-06 DE=-3.18D-09 OVMax= 5.24D-06

 Cycle  11  Pass 1  IDiag  1:
 E= -3074.30982335911     Delta-E=       -0.000000000061 Rises=F Damp=F
 DIIS: error= 4.38D-07 at cycle   4 NSaved=   4.
 NSaved= 4 IEnMin= 4 EnMin= -3074.30982335911     IErMin= 4 ErrMin= 4.38D-07
 ErrMax= 4.38D-07  0.00D+00 EMaxC= 1.00D-01 BMatC= 4.30D-11 BMatP= 1.46D-10
 IDIUse=1 WtCom= 1.00D+00 WtEn= 0.00D+00
 Coeff-Com: -0.715D-02 0.559D-01 0.439D+00 0.513D+00
 Coeff:     -0.715D-02 0.559D-01 0.439D+00 0.513D+00
 Gap=     0.217 Goal=   None    Shift=    0.000
 RMSDP=6.93D-08 MaxDP=2.31D-06 DE=-6.09D-11 OVMax= 3.84D-06

 Cycle  12  Pass 1  IDiag  1:
 E= -3074.30982335912     Delta-E=       -0.000000000008 Rises=F Damp=F
 DIIS: error= 6.22D-08 at cycle   5 NSaved=   5.
 NSaved= 5 IEnMin= 5 EnMin= -3074.30982335912     IErMin= 5 ErrMin= 6.22D-08
 ErrMax= 6.22D-08  0.00D+00 EMaxC= 1.00D-01 BMatC= 1.56D-12 BMatP= 4.30D-11
 IDIUse=1 WtCom= 1.00D+00 WtEn= 0.00D+00
 Coeff-Com: -0.473D-02 0.187D-01 0.129D+00 0.211D+00 0.646D+00
 Coeff:     -0.473D-02 0.187D-01 0.129D+00 0.211D+00 0.646D+00
 Gap=     0.217 Goal=   None    Shift=    0.000
 RMSDP=1.35D-08 MaxDP=3.06D-07 DE=-7.73D-12 OVMax= 6.13D-07

 Cycle  13  Pass 1  IDiag  1:
 E= -3074.30982335913     Delta-E=       -0.000000000012 Rises=F Damp=F
 DIIS: error= 1.40D-08 at cycle   6 NSaved=   6.
 NSaved= 6 IEnMin= 6 EnMin= -3074.30982335913     IErMin= 6 ErrMin= 1.40D-08
 ErrMax= 1.40D-08  0.00D+00 EMaxC= 1.00D-01 BMatC= 3.72D-14 BMatP= 1.56D-12
 IDIUse=1 WtCom= 1.00D+00 WtEn= 0.00D+00
 Coeff-Com: -0.937D-03 0.243D-02 0.150D-01 0.279D-01 0.178D+00 0.777D+00
 Coeff:     -0.937D-03 0.243D-02 0.150D-01 0.279D-01 0.178D+00 0.777D+00
 Gap=     0.217 Goal=   None    Shift=    0.000
 RMSDP=2.95D-09 MaxDP=8.34D-08 DE=-1.18D-11 OVMax= 1.58D-07

 SCF Done:  E(RB3LYP) =  -3074.30982336     A.U. after   13 cycles
            NFock= 13  Conv=0.29D-08     -V/T= 2.0011
 KE= 3.070779503118D+03 PE=-7.778905114167D+03 EE= 1.421508999788D+03
 Leave Link  502 at Thu Oct 17 18:27:40 2019, MaxMem=   280000000 cpu:              36.5 elap:               1.9
 (Enter /home/soft/g16/l801.exe)
 DoSCS=F DFT=T ScalE2(SS,OS)=  1.000000  1.000000
 Range of M.O.s used for correlation:     1   134
 NBasis=   134 NAE=    31 NBE=    31 NFC=     0 NFV=     0
 NROrb=    134 NOA=    31 NOB=    31 NVA=   103 NVB=   103

 **** Warning!!: The largest alpha MO coefficient is  0.11476261D+02

 Leave Link  801 at Thu Oct 17 18:27:40 2019, MaxMem=   280000000 cpu:               0.8 elap:               0.1
 (Enter /home/soft/g16/l1101.exe)
 Using compressed storage, NAtomX=     6.
 Will process      7 centers per pass.
   6 Symmetry operations used in ECPInt.
 ECPInt:  NShTT=    1378 NPrTT=    5593 LenC2=    1343 LenP2D=    4412.
 LDataN:  DoStor=T MaxTD1= 7 Len=  274
 R6Disp: Adding Grimme-D3(BJ) dispersion energy 1st derivatives to the gradient.
 Leave Link 1101 at Thu Oct 17 18:27:40 2019, MaxMem=   280000000 cpu:               4.2 elap:               0.2
 (Enter /home/soft/g16/l1102.exe)
 Symmetrizing basis deriv contribution to polar:
 IMax=3 JMax=2 DiffMx= 0.00D+00
 Leave Link 1102 at Thu Oct 17 18:27:40 2019, MaxMem=   280000000 cpu:               1.0 elap:               0.1
 (Enter /home/soft/g16/l1110.exe)
 Forming Gx(P) for the SCF density, NAtomX=     6.
 Integral derivatives from FoFJK, PRISM(SPDF).
 Do as many integral derivatives as possible in FoFJK.
 G2DrvN: MDV=     279999420.
 G2DrvN: will do     7 centers at a time, making    1 passes.
 Calling FoFCou, ICntrl=  3107 FMM=F I1Cent=   0 AccDes= 0.00D+00.
 FoFJK:  IHMeth= 1 ICntrl=    3107 DoSepK=F KAlg= 0 I1Cent=           0 FoldK=F
 IRaf=         0 NMat=       1 IRICut=       1 DoRegI=T DoRafI=F ISym2E= 1 IDoP0=0 IntGTp=1.
 FoFCou: FMM=F IPFlag=           0 FMFlag=      100000 FMFlg1=           0
         NFxFlg=           0 DoJE=F BraDBF=F KetDBF=F FulRan=T
         wScrn=  0.000000 ICntrl=      3107 IOpCl=  0 I1Cent=           0 NGrid=           0
         NMat0=    1 NMatS0=      1 NMatT0=    0 NMatD0=    1 NMtDS0=    0 NMtDT0=    0
 Petite list used in FoFCou.
 End of G2Drv F.D. properties file   721 does not exist.
 End of G2Drv F.D. properties file   722 does not exist.
 End of G2Drv F.D. properties file   788 does not exist.
 Leave Link 1110 at Thu Oct 17 18:27:42 2019, MaxMem=   280000000 cpu:              37.0 elap:               1.6
 (Enter /home/soft/g16/l1002.exe)
 Minotr:  Closed shell wavefunction.
          IDoAtm=111111
          Direct CPHF calculation.
          Differentiating once with respect to electric field.
                with respect to dipole field.
          Differentiating once with respect to nuclear coordinates.
          Using symmetry in CPHF.
          Requested convergence is 1.0D-08 RMS, and 1.0D-07 maximum.
          Secondary convergence is 1.0D-12 RMS, and 1.0D-12 maximum.
          NewPWx=T KeepS1=F KeepF1=F KeepIn=T MapXYZ=F SortEE=F KeepMc=T.
         1761 words used for storage of precomputed grid.
 Keep R1 ints in memory in symmetry-blocked form, NReq=64256973.
 FoFCou: FMM=F IPFlag=           0 FMFlag=           0 FMFlg1=           0
         NFxFlg=           0 DoJE=F BraDBF=F KetDBF=F FulRan=T
         wScrn=  0.000000 ICntrl=       600 IOpCl=  0 I1Cent=           0 NGrid=           0
         NMat0=    1 NMatS0=   9045 NMatT0=    0 NMatD0=    1 NMtDS0=    0 NMtDT0=    0
 Petite list used in FoFCou.
          MDV=     280000000 using IRadAn=       1.
          Solving linear equations simultaneously, MaxMat=       0.
          There are    15 degrees of freedom in the 1st order CPHF.  IDoFFX=4 NUNeed=    15.
     15 vectors produced by pass  0 Test12= 2.13D-14 6.67D-09 XBig12= 1.29D+02 9.96D+00.
 AX will form    15 AO Fock derivatives at one time.
     15 vectors produced by pass  1 Test12= 2.13D-14 6.67D-09 XBig12= 2.10D+01 1.61D+00.
     15 vectors produced by pass  2 Test12= 2.13D-14 6.67D-09 XBig12= 8.65D-01 2.02D-01.
     15 vectors produced by pass  3 Test12= 2.13D-14 6.67D-09 XBig12= 2.89D-02 3.49D-02.
     15 vectors produced by pass  4 Test12= 2.13D-14 6.67D-09 XBig12= 3.88D-04 4.21D-03.
     15 vectors produced by pass  5 Test12= 2.13D-14 6.67D-09 XBig12= 1.91D-06 2.61D-04.
      9 vectors produced by pass  6 Test12= 2.13D-14 6.67D-09 XBig12= 2.61D-09 8.84D-06.
      4 vectors produced by pass  7 Test12= 2.13D-14 6.67D-09 XBig12= 2.07D-12 2.63D-07.
      1 vectors produced by pass  8 Test12= 2.13D-14 6.67D-09 XBig12= 2.51D-15 8.43D-09.
 InvSVY:  IOpt=1 It=  1 EMax= 3.55D-15
 Solved reduced A of dimension   104 with    15 vectors.
 FullF1:  Do perturbations      1 to      15.
 Isotropic polarizability for W=    0.000000       60.18 Bohr**3.
 End of Minotr F.D. properties file   721 does not exist.
 End of Minotr F.D. properties file   722 does not exist.
 End of Minotr F.D. properties file   788 does not exist.
 Leave Link 1002 at Thu Oct 17 18:27:46 2019, MaxMem=   280000000 cpu:              91.9 elap:               3.9
 (Enter /home/soft/g16/l601.exe)
 Copying SCF densities to generalized density rwf, IOpCl= 0 IROHF=0.

 **********************************************************************

            Population analysis using the SCF density.

 **********************************************************************

 Orbital symmetries:
       Occupied  (A1) (A1) (A1) (A1) (E) (E) (A1) (A1) (A1) (A1)
                 (E) (E) (A1) (E) (E) (A1) (E) (E) (E) (E) (A1)
                 (A1) (A1) (E) (E) (A1) (E) (E) (E) (E) (A1)
       Virtual   (A1) (A1) (E) (E) (A1) (E) (E) (E) (E) (A1) (E)
                 (E) (A1) (E) (E) (A1) (E) (E) (E) (E) (A1) (E)
                 (E) (E) (E) (A1) (A1) (E) (E) (A1) (E) (E) (A1)
                 (A1) (E) (E) (E) (E) (A1) (E) (E) (A2) (A1) (A2)
                 (E) (E) (E) (E) (E) (E) (A1) (A1) (A1) (E) (E)
                 (A1) (E) (E) (E) (E) (A1) (E) (E) (A1) (A2) (E)
                 (E) (A1) (E) (E) (A1) (E) (E) (E) (E) (A1) (E)
                 (E) (A1) (E) (E) (A1) (A2) (E) (E) (E) (E) (A1)
                 (A1) (E) (E) (E) (E) (E) (E) (A1) (A1) (A1) (E)
                 (E) (A1) (A1) (A1)
 The electronic state is 1-A1.
 Alpha  occ. eigenvalues -- -482.64178-101.22634 -62.29139 -56.10620 -56.10436
 Alpha  occ. eigenvalues --  -56.10436 -10.01126  -9.16516  -8.48383  -6.92179
 Alpha  occ. eigenvalues --   -6.91961  -6.91961  -6.31033  -6.30389  -6.30389
 Alpha  occ. eigenvalues --   -2.42570  -2.42363  -2.42363  -2.41848  -2.41848
 Alpha  occ. eigenvalues --   -0.64534  -0.57740  -0.44293  -0.27453  -0.27453
 Alpha  occ. eigenvalues --   -0.22125  -0.10763  -0.10763  -0.05339  -0.05339
 Alpha  occ. eigenvalues --   -0.01509
 Alpha virt. eigenvalues --    0.20204   0.23339   0.27226   0.27226   0.32349
 Alpha virt. eigenvalues --    0.36733   0.36733   0.42169   0.42169   0.42587
 Alpha virt. eigenvalues --    0.48284   0.48284   0.51533   0.52613   0.52613
 Alpha virt. eigenvalues --    0.55222   0.55859   0.55859   0.65543   0.65543
 Alpha virt. eigenvalues --    0.66787   0.70621   0.70621   0.73046   0.73046
 Alpha virt. eigenvalues --    0.74182   0.83470   1.04809   1.04809   1.06408
 Alpha virt. eigenvalues --    1.12135   1.12135   1.19674   1.34582   1.51441
 Alpha virt. eigenvalues --    1.51441   1.52842   1.52842   1.59790   1.60921
 Alpha virt. eigenvalues --    1.60921   1.69543   1.72036   1.72298   1.76611
 Alpha virt. eigenvalues --    1.76611   1.78024   1.78024   1.79485   1.79485
 Alpha virt. eigenvalues --    1.79605   1.80991   1.90928   2.00483   2.00483
 Alpha virt. eigenvalues --    2.01764   2.07530   2.07530   2.18735   2.18735
 Alpha virt. eigenvalues --    2.25101   2.29800   2.29800   2.33376   2.33802
 Alpha virt. eigenvalues --    2.39038   2.39038   2.42411   2.45910   2.45910
 Alpha virt. eigenvalues --    2.59415   2.66837   2.66837   2.83976   2.83976
 Alpha virt. eigenvalues --    2.91509   2.99943   2.99943   3.09286   3.30741
 Alpha virt. eigenvalues --    3.30741   3.35489   3.53528   3.54135   3.54135
 Alpha virt. eigenvalues --    3.82480   3.82480   4.04881   4.16510   4.18329
 Alpha virt. eigenvalues --    4.18329   4.31843   4.31843   4.47853   4.47853
 Alpha virt. eigenvalues --    4.64777   4.75611   7.82240  10.97562  10.97562
 Alpha virt. eigenvalues --   11.34801  22.65787  25.27752
          Condensed to atoms (all electrons):
               1          2          3          4          5          6
     1  C    5.191849   0.508970   0.508970   0.508970  -0.075856  -0.382755
     2  H    0.508970   0.591613  -0.013433  -0.013433  -0.092031  -0.110560
     3  H    0.508970  -0.013433   0.591613  -0.013433  -0.092031  -0.110560
     4  H    0.508970  -0.013433  -0.013433   0.591613  -0.092031  -0.110560
     5  Br  -0.075856  -0.092031  -0.092031  -0.092031  35.680591   0.096810
     6  Cl  -0.382755  -0.110560  -0.110560  -0.110560   0.096810  18.318644
 Mulliken charges:
               1
     1  C   -0.260148
     2  H    0.128873
     3  H    0.128873
     4  H    0.128873
     5  Br  -0.425453
     6  Cl  -0.701020
 Sum of Mulliken charges =  -1.00000
 Mulliken charges with hydrogens summed into heavy atoms:
               1
     1  C    0.126473
     5  Br  -0.425453
     6  Cl  -0.701020
 APT charges:
               1
     1  C    1.114981
     2  H    0.028254
     3  H    0.028255
     4  H    0.028255
     5  Br  -0.988462
     6  Cl  -1.211283
 Sum of APT charges =  -1.00000
 APT charges with hydrogens summed into heavy atoms:
               1
     1  C    1.199745
     5  Br  -0.988462
     6  Cl  -1.211283
 Electronic spatial extent (au):  <R**2>=            766.2347
 Charge=             -1.0000 electrons
 Dipole moment (field-independent basis, Debye):
    X=             -0.0000    Y=              0.0000    Z=              4.2193  Tot=              4.2193
 Quadrupole moment (field-independent basis, Debye-Ang):
   XX=            -42.1701   YY=            -42.1701   ZZ=            -73.6240
   XY=              0.0000   XZ=              0.0000   YZ=             -0.0000
 Traceless Quadrupole moment (field-independent basis, Debye-Ang):
   XX=             10.4846   YY=             10.4846   ZZ=            -20.9693
   XY=              0.0000   XZ=              0.0000   YZ=             -0.0000
 Octapole moment (field-independent basis, Debye-Ang**2):
  XXX=              0.0000  YYY=              0.6755  ZZZ=            103.1714  XYY=              0.0000
  XXY=             -0.6755  XXZ=             12.4015  XZZ=              0.0000  YZZ=              0.0000
  YYZ=             12.4015  XYZ=              0.0000
 Hexadecapole moment (field-independent basis, Debye-Ang**3):
 XXXX=            -59.9831 YYYY=            -59.9831 ZZZZ=          -1080.0308 XXXY=              0.0000
 XXXZ=             -0.0000 YYYX=              0.0000 YYYZ=             -0.6602 ZZZX=             -0.0000
 ZZZY=             -0.0000 XXYY=            -19.9944 XXZZ=           -160.4160 YYZZ=           -160.4160
 XXYZ=              0.6602 YYXZ=             -0.0000 ZZXY=             -0.0000
 N-N= 2.123067879019D+02 E-N=-7.778905115030D+03  KE= 3.070779503118D+03
 Symmetry A'   KE= 2.647796282324D+03
 Symmetry A"   KE= 4.229832207945D+02
  Exact polarizability:  38.026   0.000  38.025  -0.000   0.001 104.494
 Approx polarizability:  61.152  -0.000  61.152   0.000  -0.000 155.559
 No NMR shielding tensors so no spin-rotation constants.
 Leave Link  601 at Thu Oct 17 18:27:46 2019, MaxMem=   280000000 cpu:               8.2 elap:               0.4
 (Enter /home/soft/g16/l701.exe)
 ... and contract with generalized density number  0.
 Compute integral second derivatives.
 R6Disp: Adding Grimme-D3(BJ) dispersion energy 2nd derivatives to the Hessian.
   6 Symmetry operations used in ECPInt.
 ECPInt:  NShTT=    1378 NPrTT=    5593 LenC2=    1343 LenP2D=    4412.
 LDataN:  DoStor=T MaxTD1= 8 Len=  415
 Leave Link  701 at Thu Oct 17 18:27:46 2019, MaxMem=   280000000 cpu:               9.5 elap:               0.4
 (Enter /home/soft/g16/l702.exe)
 L702 exits ... SP integral derivatives will be done elsewhere.
 Leave Link  702 at Thu Oct 17 18:27:46 2019, MaxMem=   280000000 cpu:               0.5 elap:               0.0
 (Enter /home/soft/g16/l703.exe)
 Integral derivatives from FoFJK, PRISM(SPDF).
 Compute integral second derivatives, UseDBF=F ICtDFT=           0.
 Calling FoFJK, ICntrl=    100127 FMM=F ISym2X=1 I1Cent= 0 IOpClX= 0 NMat=1 NMatS=1 NMatT=0.
 FoFJK:  IHMeth= 1 ICntrl=  100127 DoSepK=F KAlg= 0 I1Cent=           0 FoldK=F
 IRaf=         0 NMat=       1 IRICut=       1 DoRegI=T DoRafI=F ISym2E= 1 IDoP0=0 IntGTp=1.
 FoFCou: FMM=F IPFlag=           0 FMFlag=      100000 FMFlg1=         800
         NFxFlg=           0 DoJE=F BraDBF=F KetDBF=F FulRan=T
         wScrn=  0.000000 ICntrl=    100127 IOpCl=  0 I1Cent=           0 NGrid=           0
         NMat0=    1 NMatS0=      1 NMatT0=    0 NMatD0=    1 NMtDS0=    0 NMtDT0=    0
 Petite list used in FoFCou.
 Leave Link  703 at Thu Oct 17 18:27:50 2019, MaxMem=   280000000 cpu:              85.7 elap:               3.6
 (Enter /home/soft/g16/l716.exe)
 Dipole        =-7.28829860D-16-1.97664932D-16 1.66001558D+00
 Polarizability= 3.80262199D+01 5.42290430D-12 3.80253125D+01
                -1.29204561D-11 8.71328571D-04 1.04493919D+02
 ***** Axes restored to original set *****
 -------------------------------------------------------------------
 Center     Atomic                   Forces (Hartrees/Bohr)
 Number     Number              X              Y              Z
 -------------------------------------------------------------------
      1        6          -0.002122807    0.000000026    0.000000000
      2        1          -0.035262658   -0.012903643   -0.000000001
      3        1          -0.035262420    0.006452473    0.011175260
      4        1          -0.035262420    0.006452474   -0.011175259
      5       35          -0.091010269    0.000001122   -0.000000000
      6       17           0.198920574   -0.000002452    0.000000000
 -------------------------------------------------------------------
 Cartesian Forces:  Max     0.198920574 RMS     0.053793147
 Force constants in Cartesian coordinates: 
                1             2             3             4             5 
      1  0.152436D+00
      2  0.474046D-05  0.580983D+00
      3  0.000000D+00  0.000000D+00  0.580983D+00
      4 -0.170315D-01  0.100711D+00  0.000000D+00  0.931685D-01
      5  0.102054D+00 -0.335967D+00  0.000000D+00 -0.797698D-01  0.347887D+00
      6  0.000000D+00  0.000000D+00 -0.489495D-01  0.000000D+00  0.000000D+00
      7 -0.170354D-01 -0.503586D-01 -0.872232D-01  0.502650D-03  0.199767D-02
      8 -0.510300D-01 -0.120702D+00 -0.124280D+00 -0.307975D-02 -0.950884D-02
      9 -0.883858D-01 -0.124280D+00 -0.264211D+00 -0.528822D-03  0.117476D-02
     10 -0.170354D-01 -0.503587D-01  0.872231D-01  0.502650D-03  0.199767D-02
     11 -0.510300D-01 -0.120702D+00  0.124280D+00 -0.307975D-02 -0.950884D-02
     12  0.883857D-01  0.124280D+00 -0.264211D+00  0.528822D-03 -0.117476D-02
     13 -0.635050D-01  0.000000D+00  0.000000D+00 -0.213503D-01 -0.651942D-02
     14  0.000000D+00 -0.158685D-01  0.000000D+00  0.103176D-01  0.776222D-02
     15  0.000000D+00  0.000000D+00 -0.158685D-01  0.000000D+00  0.000000D+00
     16 -0.378284D-01  0.000000D+00  0.000000D+00 -0.557920D-01 -0.197600D-01
     17  0.000000D+00  0.122561D-01  0.000000D+00 -0.250994D-01 -0.664526D-03
     18  0.000000D+00  0.000000D+00  0.122561D-01  0.000000D+00  0.000000D+00
                6             7             8             9            10 
      6  0.364834D-01
      7  0.240233D-02  0.931714D-01
      8 -0.231369D-01  0.398867D-01  0.114333D+00
      9  0.317098D-02  0.690870D-01  0.134840D+00  0.270035D+00
     10 -0.240233D-02  0.502690D-03  0.108194D-02 -0.293160D-02  0.931714D-01
     11  0.231369D-01  0.108194D-02  0.951088D-02 -0.121558D-01  0.398867D-01
     12  0.317098D-02  0.293160D-02  0.121558D-01 -0.158488D-01 -0.690870D-01
     13  0.000000D+00 -0.213503D-01  0.326015D-02  0.564625D-02 -0.213503D-01
     14  0.000000D+00 -0.515835D-02  0.282446D-02  0.285075D-02 -0.515835D-02
     15  0.117850D-02 -0.893502D-02  0.285095D-02  0.611631D-02  0.893502D-02
     16  0.000000D+00 -0.557911D-01  0.988102D-02  0.171131D-01 -0.557911D-01
     17  0.000000D+00  0.125507D-01  0.354266D-02 -0.242975D-02  0.125507D-01
     18  0.494561D-02  0.217372D-01 -0.242975D-02  0.737613D-03 -0.217372D-01
               11            12            13            14            15 
     11  0.114333D+00
     12 -0.134840D+00  0.270035D+00
     13  0.326015D-02 -0.564625D-02  0.199129D+00
     14  0.282446D-02 -0.285075D-02 -0.258823D-05 -0.584823D-02
     15 -0.285095D-02  0.611631D-02  0.000000D+00  0.000000D+00 -0.584815D-02
     16  0.988102D-02 -0.171131D-01 -0.715732D-01  0.000000D+00  0.000000D+00
     17  0.354266D-02  0.242975D-02  0.104280D-05  0.830558D-02  0.000000D+00
     18  0.242975D-02  0.737614D-03  0.000000D+00  0.000000D+00  0.830556D-02
               16            17            18 
     16  0.276776D+00
     17 -0.357415D-05 -0.269825D-01
     18  0.000000D+00  0.000000D+00 -0.269825D-01
 FormGI is forming the generalized inverse of G from B-inverse, IUseBI=4.
 Force constants in internal coordinates: 
                1             2             3             4             5 
      1  0.369724D+00
      2  0.212215D-02  0.369724D+00
      3  0.212215D-02  0.212216D-02  0.369724D+00
      4  0.969869D-03  0.969965D-03  0.969965D-03  0.199129D+00
      5  0.333625D-04  0.332660D-04  0.332660D-04  0.715731D-01  0.276776D+00
      6  0.128809D-02  0.128809D-02 -0.122578D-02 -0.658288D-02  0.174700D-01
      7  0.163158D-02 -0.129328D-02  0.184507D-02 -0.106433D-01  0.282459D-01
      8 -0.318389D-02  0.872337D-03  0.557106D-03  0.855166D-02 -0.226947D-01
      9 -0.742510D-02  0.443201D-02  0.474724D-02 -0.855164D-02  0.226948D-01
     10 -0.129328D-02  0.163160D-02  0.184508D-02 -0.106433D-01  0.282458D-01
     11  0.872433D-03 -0.295313D-02  0.326519D-03  0.855152D-02 -0.226946D-01
     12  0.443206D-02 -0.719441D-02  0.451669D-02 -0.855154D-02  0.226946D-01
     13  0.685075D-03  0.454390D-03 -0.334799D-02  0.107663D-01 -0.285723D-01
     14  0.461942D-02  0.438882D-02 -0.679956D-02 -0.107663D-01  0.285723D-01
     15 -0.106090D-01  0.530434D-02  0.530434D-02  0.000000D+00  0.000000D+00
     16  0.000000D+00  0.917993D-02 -0.917993D-02  0.000000D+00  0.000000D+00
     17 -0.178474D-02 -0.178476D-02 -0.758475D-03  0.210977D-01 -0.559902D-01
     18  0.162105D-03  0.303360D-03 -0.960157D-03  0.241118D-02 -0.639888D-02
     19 -0.341043D-02 -0.326921D-02  0.717424D-02 -0.241117D-02  0.639889D-02
     20 -0.468061D-03  0.771488D-03 -0.550674D-03  0.120557D-02 -0.319944D-02
     21  0.371639D-02 -0.698557D-02  0.351652D-02 -0.120558D-02  0.319943D-02
     22 -0.630166D-03  0.468128D-03  0.409483D-03 -0.120561D-02  0.319944D-02
     23  0.712682D-02 -0.371636D-02 -0.365772D-02  0.120559D-02 -0.319947D-02
                6             7             8             9            10 
      6  0.102899D-01
      7 -0.256142D-02  0.187879D-01
      8 -0.744026D-02 -0.120352D-01  0.450716D-01
      9  0.984783D-02  0.146319D-01 -0.283567D-01  0.642367D-01
     10 -0.256142D-02  0.318345D-02  0.916901D-02 -0.149758D-01  0.187879D-01
     11 -0.754494D-02  0.929970D-02 -0.204331D-01  0.122181D-01 -0.120263D-01
     12  0.974315D-02 -0.148452D-01  0.121919D-01 -0.308951D-01  0.146408D-01
     13  0.981815D-02 -0.166745D-01 -0.143321D-01  0.663474D-02 -0.165527D-01
     14 -0.144239D-01  0.196232D-01  0.585847D-02 -0.238378D-01  0.197450D-01
     15  0.240757D-02  0.259673D-02  0.167149D-01  0.358800D-01 -0.580684D-02
     16 -0.416657D-02  0.520160D-02 -0.142321D-03  0.902630D-03  0.353828D-03
     17 -0.946541D-02 -0.103175D-01  0.108676D-01 -0.118504D-01 -0.103175D-01
     18  0.342596D-02 -0.481220D-02  0.597552D-02  0.217824D-02 -0.488679D-02
     19 -0.605511D-03  0.300648D-02 -0.786502D-03  0.835642D-02  0.293190D-02
     20  0.168093D-02 -0.542939D-02 -0.408402D-02 -0.461839D-02  0.622632D-03
     21 -0.334809D-03  0.203350D-02 -0.962678D-03 -0.681891D-02  0.978428D-03
     22 -0.174503D-02 -0.617185D-03 -0.100595D-01 -0.679662D-02  0.550942D-02
     23  0.270702D-03 -0.972984D-03 -0.176175D-03 -0.151753D-01 -0.195347D-02
               11            12            13            14            15 
     11  0.443739D-01
     12 -0.294579D-01  0.627320D-01
     13 -0.136693D-01  0.772732D-02  0.514103D-01
     14  0.696833D-02 -0.222981D-01 -0.377710D-01  0.710801D-01
     15 -0.821497D-02 -0.187033D-01 -0.769736D-02 -0.179793D-01  0.525949D-01
     16 -0.132376D-01 -0.292989D-01  0.119910D-01  0.297851D-01  0.760309D-03
     17  0.109103D-01 -0.118077D-01  0.832262D-02 -0.644232D-02 -0.982880D-03
     18  0.542006D-02  0.135959D-02 -0.512256D-02 -0.981085D-02  0.815376D-02
     19 -0.131657D-02  0.756316D-02 -0.322979D-02 -0.105867D-01  0.756992D-02
     20  0.949360D-02  0.598358D-02 -0.228375D-02 -0.449102D-02 -0.870241D-02
     21 -0.359491D-03  0.143925D-01 -0.135495D-02 -0.489652D-02 -0.778158D-02
     22  0.407354D-02  0.462398D-02  0.283881D-02  0.531984D-02 -0.168562D-01
     23  0.957081D-03  0.682939D-02  0.187484D-02  0.569019D-02 -0.153515D-01
               16            17            18            19            20 
     16  0.516307D-01
     17  0.170100D-02  0.242291D-01
     18 -0.132965D-01  0.174346D-02  0.111743D-01
     19 -0.122861D-01 -0.289490D-02 -0.202946D-02  0.104903D-01
     20 -0.136265D-01  0.884809D-03  0.537139D-02 -0.122271D-02  0.105491D-01
     21 -0.124217D-01 -0.143436D-02 -0.121972D-02  0.504795D-02 -0.107127D-02
     22 -0.329996D-03 -0.858647D-03 -0.580289D-02  0.806756D-03  0.517768D-02
     23 -0.135597D-03  0.146054D-02  0.809746D-03 -0.544237D-02  0.151439D-03
               21            22            23 
     21  0.966473D-02
     22  0.148448D-03  0.109806D-01
     23  0.461678D-02 -0.658308D-03  0.100592D-01
 Leave Link  716 at Thu Oct 17 18:27:50 2019, MaxMem=   280000000 cpu:               0.8 elap:               0.1
 (Enter /home/soft/g16/l103.exe)

 GradGradGradGradGradGradGradGradGradGradGradGradGradGradGradGradGradGrad
 Berny optimization.
 Red2BG is reusing G-inverse.
 Internal  Forces:  Max     0.198920574 RMS     0.047280355
 Search for a local minimum.
 Step number   1 out of a maximum of   33
 All quantities printed in internal units (Hartrees-Bohrs-Radians)
 RMS Force = .47280D-01 SwitMx=.10000D-02 MixMth= 1
 Mixed Optimization -- RFO/linear search
 Second derivative matrix not updated -- analytic derivatives used.
 ITU=  0
     Eigenvalues ---    0.01003   0.01904   0.02490   0.08384   0.09058
     Eigenvalues ---    0.14091   0.14781   0.19703   0.33644   0.36921
     Eigenvalues ---    0.36934   0.37410
 RFO step:  Lambda=-1.14159138D-01 EMin= 1.00289410D-02
 Linear search not attempted -- first point.
 Maximum step size (   0.300) exceeded in Quadratic search.
    -- Step size scaled by   0.605
 Iteration  1 RMS(Cart)=  0.05159491 RMS(Int)=  0.01343340
 Iteration  2 RMS(Cart)=  0.01226400 RMS(Int)=  0.00029898
 Iteration  3 RMS(Cart)=  0.00000004 RMS(Int)=  0.00029898
 ITry= 1 IFail=0 DXMaxC= 2.62D-01 DCOld= 1.00D+10 DXMaxT= 3.00D-01 DXLimC= 3.00D+00 Rises=F
 ClnCor:  largest displacement from symmetrization is 3.14D-03 for atom     3.
 Variable       Old X    -DE/DX   Delta X   Delta X   Delta X     New X
                                 (Linear)    (Quad)   (Total)
    R1        2.02201   0.00041   0.00000  -0.00012  -0.00056   2.02144
    R2        2.02201   0.00041   0.00000  -0.00012  -0.00056   2.02144
    R3        2.02201   0.00041   0.00000  -0.00030  -0.00056   2.02144
    R4        3.60938   0.09101   0.00000   0.12492   0.12492   3.73430
    R5        3.76000   0.19892   0.00000   0.26431   0.26431   4.02431
    A1        1.91063   0.01108   0.00000   0.01882   0.02141   1.93205
    A2        1.91063   0.01792   0.00000   0.02408   0.02141   1.93205
    A3        1.91063  -0.01440   0.00000  -0.02204  -0.02193   1.88870
    A4        1.23096   0.01440   0.00000   0.02217   0.02193   1.25289
    A5        1.91063   0.01792   0.00000   0.02408   0.02141   1.93205
    A6        1.91063  -0.01440   0.00000  -0.02205  -0.02193   1.88870
    A7        1.23096   0.01440   0.00000   0.02217   0.02193   1.25289
    A8        1.91063  -0.01813   0.00000  -0.02288  -0.02193   1.88870
    A9        1.23096   0.01813   0.00000   0.02264   0.02193   1.25289
   A10        3.14159   0.00000   0.00000   0.00012   0.00000   3.14159
   A11        3.14159  -0.00000   0.00000  -0.00022   0.00000   3.14159
    D1       -2.09439  -0.03552   0.00000  -0.05254  -0.05477  -2.14916
    D2        2.09440  -0.00406   0.00000  -0.00396   0.00000   2.09440
    D3       -2.09440   0.00406   0.00000   0.00410   0.00000  -2.09440
    D4       -2.09440  -0.00203   0.00000  -0.00198   0.00000  -2.09440
    D5        2.09440   0.00203   0.00000   0.00205   0.00000   2.09440
    D6        2.09440   0.00203   0.00000   0.00198   0.00000   2.09440
    D7       -2.09440  -0.00203   0.00000  -0.00205   0.00000  -2.09440
         Item               Value     Threshold  Converged?
 Maximum Force            0.198921     0.000450     NO 
 RMS     Force            0.047280     0.000300     NO 
 Maximum Displacement     0.262390     0.001800     NO 
 RMS     Displacement     0.063018     0.001200     NO 
 Predicted change in Energy=-5.341670D-02
 Lowest energy point so far.  Saving SCF results.
 GradGradGradGradGradGradGradGradGradGradGradGradGradGradGradGradGradGrad

 Leave Link  103 at Thu Oct 17 18:27:51 2019, MaxMem=   280000000 cpu:               6.2 elap:               0.3
 (Enter /home/soft/g16/l202.exe)
                          Input orientation:                          
 ---------------------------------------------------------------------
 Center     Atomic      Atomic             Coordinates (Angstroms)
 Number     Number       Type             X           Y           Z
 ---------------------------------------------------------------------
      1          6           0       -1.086289   -1.085271   -0.000000
      2          1           0       -0.751939   -2.101377   -0.000000
      3          1           0       -0.751920   -0.577225    0.879970
      4          1           0       -0.751920   -0.577225   -0.879970
      5         35           0       -3.062394   -1.085247   -0.000000
      6         17           0        1.043285   -1.085298    0.000000
 ---------------------------------------------------------------------
                    Distance matrix (angstroms):
                    1          2          3          4          5
     1  C    0.000000
     2  H    1.069701   0.000000
     3  H    1.069701   1.759939   0.000000
     4  H    1.069701   1.759939   1.759939   0.000000
     5  Br   1.976106   2.524030   2.524030   2.524030   0.000000
     6  Cl   2.129574   2.062825   2.062825   2.062825   4.105680
                    6
     6  Cl   0.000000
 Stoichiometry    CH3BrCl(1-)
 Framework group  C3V[C3(ClCBr),3SGV(H)]
 Deg. of freedom     4
 Full point group                 C3V     NOp   6
 RotChk:  IX=0 Diff= 3.56D-16
 Largest Abelian subgroup         CS      NOp   2
 Largest concise Abelian subgroup CS      NOp   2
                         Standard orientation:                         
 ---------------------------------------------------------------------
 Center     Atomic      Atomic             Coordinates (Angstroms)
 Number     Number       Type             X           Y           Z
 ---------------------------------------------------------------------
      1          6           0       -0.000000   -0.000000   -0.523899
      2          1           0       -0.000000    1.016101   -0.858262
      3          1           0       -0.879970   -0.508051   -0.858262
      4          1           0        0.879970   -0.508051   -0.858262
      5         35           0        0.000000    0.000000    1.452206
      6         17           0       -0.000000   -0.000000   -2.653473
 ---------------------------------------------------------------------
 Rotational constants (GHZ):         161.8961943           1.2078047           1.2078047
 Leave Link  202 at Thu Oct 17 18:27:51 2019, MaxMem=   280000000 cpu:               0.6 elap:               0.0
 (Enter /home/soft/g16/l301.exe)
 Standard basis: def2TZVP (5D, 7F)
 Ernie: Thresh=  0.10000D-02 Tol=  0.10000D-05 Strict=F.
 There are   103 symmetry adapted cartesian basis functions of A'  symmetry.
 There are    48 symmetry adapted cartesian basis functions of A"  symmetry.
 There are    89 symmetry adapted basis functions of A'  symmetry.
 There are    45 symmetry adapted basis functions of A"  symmetry.
   134 basis functions,   258 primitive gaussians,   151 cartesian basis functions
    31 alpha electrons       31 beta electrons
       nuclear repulsion energy       203.1738664287 Hartrees.
 IExCor=  402 DFT=T Ex+Corr=B3LYP ExCW=0 ScaHFX=  0.200000
 ScaDFX=  0.800000  0.720000  1.000000  0.810000 ScalE2=  1.000000  1.000000
 IRadAn=      5 IRanWt=     -1 IRanGd=            0 ICorTp=0 IEmpDi=141
 NAtoms=    6 NActive=    6 NUniq=    4 SFac= 2.25D+00 NAtFMM=   60 NAOKFM=F Big=F
 Integral buffers will be    131072 words long.
 Raffenetti 2 integral format.
 Two-electron integral symmetry is turned on.
 R6Disp:  Grimme-D3(BJ) Dispersion energy=       -0.0078809886 Hartrees.
 Nuclear repulsion after empirical dispersion term =      203.1659854401 Hartrees.
 Leave Link  301 at Thu Oct 17 18:27:51 2019, MaxMem=   280000000 cpu:               1.4 elap:               0.1
 (Enter /home/soft/g16/l302.exe)
 NPDir=0 NMtPBC=     1 NCelOv=     1 NCel=       1 NClECP=     1 NCelD=      1
         NCelK=      1 NCelE2=     1 NClLst=     1 CellRange=     0.0.
 One-electron integrals computed using PRISM.
 One-electron integral symmetry used in STVInt
   6 Symmetry operations used in ECPInt.
 ECPInt:  NShTT=    1378 NPrTT=    5593 LenC2=    1338 LenP2D=    4364.
 LDataN:  DoStor=T MaxTD1= 6 Len=  172
 NBasis=   134 RedAO= T EigKep=  1.17D-03  NBF=    89    45
 NBsUse=   134 1.00D-06 EigRej= -1.00D+00 NBFU=    89    45
 Precomputing XC quadrature grid using
 IXCGrd= 4 IRadAn=           5 IRanWt=          -1 IRanGd=           0 AccXCQ= 0.00D+00.
 Generated NRdTot=       0 NPtTot=           0 NUsed=           0 NTot=          32
 NSgBfM=   150   150   150   150   150 MxSgAt=     6 MxSgA2=     6.
 Leave Link  302 at Thu Oct 17 18:27:51 2019, MaxMem=   280000000 cpu:               4.9 elap:               0.3
 (Enter /home/soft/g16/l303.exe)
 DipDrv:  MaxL=1.
 Leave Link  303 at Thu Oct 17 18:27:51 2019, MaxMem=   280000000 cpu:               1.4 elap:               0.1
 (Enter /home/soft/g16/l401.exe)
 Initial guess from the checkpoint file:  "P_d.chk"
 B after Tr=     0.000000    0.000000    0.000000
         Rot=    1.000000    0.000000   -0.000000   -0.000000 Ang=   0.00 deg.
 Guess basis will be translated and rotated to current coordinates.
 JPrj=2 DoOrth=T DoCkMO=T.
 Initial guess orbital symmetries:
       Occupied  (A1) (A1) (A1) (A1) (E) (E) (A1) (A1) (A1) (A1)
                 (E) (E) (A1) (E) (E) (A1) (E) (E) (E) (E) (A1)
                 (A1) (A1) (E) (E) (A1) (E) (E) (E) (E) (A1)
       Virtual   (A1) (A1) (E) (E) (A1) (E) (E) (E) (E) (A1) (E)
                 (E) (A1) (E) (E) (A1) (E) (E) (E) (E) (A1) (E)
                 (E) (E) (E) (A1) (A1) (E) (E) (A1) (E) (E) (A1)
                 (A1) (E) (E) (E) (E) (A1) (E) (E) (A2) (A1) (A2)
                 (E) (E) (E) (E) (E) (E) (A1) (A1) (A1) (E) (E)
                 (A1) (E) (E) (E) (E) (A1) (E) (E) (A1) (A2) (E)
                 (E) (A1) (E) (E) (A1) (E) (E) (E) (E) (A1) (E)
                 (E) (A1) (E) (E) (A1) (A2) (E) (E) (E) (E) (A1)
                 (A1) (E) (E) (E) (E) (E) (E) (A1) (A1) (A1) (E)
                 (E) (A1) (A1) (A1)
 The electronic state of the initial guess is 1-A1.
 Generating alternative initial guess.
 ExpMin= 9.52D-02 ExpMax= 5.65D+05 ExpMxC= 5.46D+03 IAcc=2 IRadAn=         4 AccDes= 0.00D+00
 Harris functional with IExCor=  402 and IRadAn=       4 diagonalized for initial guess.
 HarFok:  IExCor=  402 AccDes= 0.00D+00 IRadAn=         4 IDoV= 1 UseB2=F ITyADJ=14
 ICtDFT=  3500011 ScaDFX=  1.000000  1.000000  1.000000  1.000000
 FoFCou: FMM=F IPFlag=           0 FMFlag=      100000 FMFlg1=           0
         NFxFlg=           0 DoJE=T BraDBF=F KetDBF=T FulRan=T
         wScrn=  0.000000 ICntrl=       500 IOpCl=  0 I1Cent=   200000004 NGrid=           0
         NMat0=    1 NMatS0=      1 NMatT0=    0 NMatD0=    1 NMtDS0=    0 NMtDT0=    0
 Petite list used in FoFCou.
 Harris En= -3074.51504199769    
 Leave Link  401 at Thu Oct 17 18:27:51 2019, MaxMem=   280000000 cpu:               8.8 elap:               0.4
 (Enter /home/soft/g16/l502.exe)
 Keep R1 ints in memory in symmetry-blocked form, NReq=64335426.
 FoFCou: FMM=F IPFlag=           0 FMFlag=           0 FMFlg1=           0
         NFxFlg=           0 DoJE=F BraDBF=F KetDBF=F FulRan=T
         wScrn=  0.000000 ICntrl=       600 IOpCl=  0 I1Cent=           0 NGrid=           0
         NMat0=    1 NMatS0=   9045 NMatT0=    0 NMatD0=    1 NMtDS0=    0 NMtDT0=    0
 Petite list used in FoFCou.
 Closed shell SCF:
 Using DIIS extrapolation, IDIIS=  1040.
 NGot=   280000000 LenX=   259203668 LenY=   259180426
 Requested convergence on RMS density matrix=1.00D-08 within 128 cycles.
 Requested convergence on MAX density matrix=1.00D-06.
 Requested convergence on             energy=1.00D-06.
 No special actions if energy rises.
 Integral accuracy reduced to 1.0D-05 until final iterations.

 Cycle   1  Pass 0  IDiag  1:
 E= -3074.36036757930    
 DIIS: error= 3.93D-03 at cycle   1 NSaved=   1.
 NSaved= 1 IEnMin= 1 EnMin= -3074.36036757930     IErMin= 1 ErrMin= 3.93D-03
 ErrMax= 3.93D-03  0.00D+00 EMaxC= 1.00D-01 BMatC= 4.17D-03 BMatP= 4.17D-03
 IDIUse=3 WtCom= 9.61D-01 WtEn= 3.93D-02
 Coeff-Com:  0.100D+01
 Coeff-En:   0.100D+01
 Coeff:      0.100D+01
 Gap=     0.249 Goal=   None    Shift=    0.000
 GapD=    0.249 DampG=1.000 DampE=1.000 DampFc=1.0000 IDamp=-1.
 RMSDP=9.33D-04 MaxDP=1.52D-02              OVMax= 4.46D-02

 Cycle   2  Pass 0  IDiag  1:
 E= -3074.36469291785     Delta-E=       -0.004325338548 Rises=F Damp=F
 DIIS: error= 9.41D-04 at cycle   2 NSaved=   2.
 NSaved= 2 IEnMin= 2 EnMin= -3074.36469291785     IErMin= 2 ErrMin= 9.41D-04
 ErrMax= 9.41D-04  0.00D+00 EMaxC= 1.00D-01 BMatC= 1.44D-04 BMatP= 4.17D-03
 IDIUse=3 WtCom= 9.91D-01 WtEn= 9.41D-03
 Coeff-Com:  0.310D-01 0.969D+00
 Coeff-En:   0.000D+00 0.100D+01
 Coeff:      0.308D-01 0.969D+00
 Gap=     0.228 Goal=   None    Shift=    0.000
 RMSDP=1.95D-04 MaxDP=4.53D-03 DE=-4.33D-03 OVMax= 1.09D-02

 Cycle   3  Pass 0  IDiag  1:
 E= -3074.36470963058     Delta-E=       -0.000016712736 Rises=F Damp=F
 DIIS: error= 1.13D-03 at cycle   3 NSaved=   3.
 NSaved= 3 IEnMin= 3 EnMin= -3074.36470963058     IErMin= 2 ErrMin= 9.41D-04
 ErrMax= 1.13D-03  0.00D+00 EMaxC= 1.00D-01 BMatC= 1.40D-04 BMatP= 1.44D-04
 IDIUse=3 WtCom= 9.89D-01 WtEn= 1.13D-02
 Coeff-Com: -0.120D-01 0.501D+00 0.511D+00
 Coeff-En:   0.000D+00 0.470D+00 0.530D+00
 Coeff:     -0.119D-01 0.500D+00 0.512D+00
 Gap=     0.232 Goal=   None    Shift=    0.000
 RMSDP=1.11D-04 MaxDP=3.02D-03 DE=-1.67D-05 OVMax= 6.70D-03

 Cycle   4  Pass 0  IDiag  1:
 E= -3074.36485072121     Delta-E=       -0.000141090630 Rises=F Damp=F
 DIIS: error= 1.75D-04 at cycle   4 NSaved=   4.
 NSaved= 4 IEnMin= 4 EnMin= -3074.36485072121     IErMin= 4 ErrMin= 1.75D-04
 ErrMax= 1.75D-04  0.00D+00 EMaxC= 1.00D-01 BMatC= 7.52D-06 BMatP= 1.40D-04
 IDIUse=3 WtCom= 9.98D-01 WtEn= 1.75D-03
 Coeff-Com: -0.760D-02 0.213D+00 0.271D+00 0.524D+00
 Coeff-En:   0.000D+00 0.000D+00 0.000D+00 0.100D+01
 Coeff:     -0.759D-02 0.213D+00 0.270D+00 0.525D+00
 Gap=     0.231 Goal=   None    Shift=    0.000
 RMSDP=2.37D-05 MaxDP=5.75D-04 DE=-1.41D-04 OVMax= 9.35D-04

 Cycle   5  Pass 0  IDiag  1:
 E= -3074.36485769084     Delta-E=       -0.000006969629 Rises=F Damp=F
 DIIS: error= 3.34D-05 at cycle   5 NSaved=   5.
 NSaved= 5 IEnMin= 5 EnMin= -3074.36485769084     IErMin= 5 ErrMin= 3.34D-05
 ErrMax= 3.34D-05  0.00D+00 EMaxC= 1.00D-01 BMatC= 2.23D-07 BMatP= 7.52D-06
 IDIUse=1 WtCom= 1.00D+00 WtEn= 0.00D+00
 Coeff-Com: -0.818D-03 0.170D-02 0.255D-01 0.156D+00 0.817D+00
 Coeff:     -0.818D-03 0.170D-02 0.255D-01 0.156D+00 0.817D+00
 Gap=     0.231 Goal=   None    Shift=    0.000
 RMSDP=9.89D-06 MaxDP=3.53D-04 DE=-6.97D-06 OVMax= 2.50D-04

 Initial convergence to 1.0D-05 achieved.  Increase integral accuracy.
 Cycle   6  Pass 1  IDiag  1:
 E= -3074.36489239430     Delta-E=       -0.000034703457 Rises=F Damp=F
 DIIS: error= 1.12D-05 at cycle   1 NSaved=   1.
 NSaved= 1 IEnMin= 1 EnMin= -3074.36489239430     IErMin= 1 ErrMin= 1.12D-05
 ErrMax= 1.12D-05  0.00D+00 EMaxC= 1.00D-01 BMatC= 3.71D-08 BMatP= 3.71D-08
 IDIUse=1 WtCom= 1.00D+00 WtEn= 0.00D+00
 Coeff-Com:  0.100D+01
 Coeff:      0.100D+01
 Gap=     0.231 Goal=   None    Shift=    0.000
 RMSDP=9.89D-06 MaxDP=3.53D-04 DE=-3.47D-05 OVMax= 1.41D-04

 Cycle   7  Pass 1  IDiag  1:
 E= -3074.36489236730     Delta-E=        0.000000026997 Rises=F Damp=F
 DIIS: error= 1.53D-05 at cycle   2 NSaved=   2.
 NSaved= 2 IEnMin= 1 EnMin= -3074.36489239430     IErMin= 1 ErrMin= 1.12D-05
 ErrMax= 1.53D-05  0.00D+00 EMaxC= 1.00D-01 BMatC= 6.42D-08 BMatP= 3.71D-08
 IDIUse=1 WtCom= 1.00D+00 WtEn= 0.00D+00
 Coeff-Com:  0.571D+00 0.429D+00
 Coeff:      0.571D+00 0.429D+00
 Gap=     0.231 Goal=   None    Shift=    0.000
 RMSDP=1.85D-06 MaxDP=4.48D-05 DE= 2.70D-08 OVMax= 9.78D-05

 Cycle   8  Pass 1  IDiag  1:
 E= -3074.36489242765     Delta-E=       -0.000000060345 Rises=F Damp=F
 DIIS: error= 2.54D-06 at cycle   3 NSaved=   3.
 NSaved= 3 IEnMin= 3 EnMin= -3074.36489242765     IErMin= 3 ErrMin= 2.54D-06
 ErrMax= 2.54D-06  0.00D+00 EMaxC= 1.00D-01 BMatC= 7.47D-10 BMatP= 3.71D-08
 IDIUse=1 WtCom= 1.00D+00 WtEn= 0.00D+00
 Coeff-Com:  0.139D+00 0.153D+00 0.708D+00
 Coeff:      0.139D+00 0.153D+00 0.708D+00
 Gap=     0.231 Goal=   None    Shift=    0.000
 RMSDP=2.53D-07 MaxDP=5.17D-06 DE=-6.03D-08 OVMax= 1.17D-05

 Cycle   9  Pass 1  IDiag  1:
 E= -3074.36489242835     Delta-E=       -0.000000000700 Rises=F Damp=F
 DIIS: error= 6.51D-07 at cycle   4 NSaved=   4.
 NSaved= 4 IEnMin= 4 EnMin= -3074.36489242835     IErMin= 4 ErrMin= 6.51D-07
 ErrMax= 6.51D-07  0.00D+00 EMaxC= 1.00D-01 BMatC= 8.28D-11 BMatP= 7.47D-10
 IDIUse=1 WtCom= 1.00D+00 WtEn= 0.00D+00
 Coeff-Com: -0.212D-02 0.171D-01 0.297D+00 0.688D+00
 Coeff:     -0.212D-02 0.171D-01 0.297D+00 0.688D+00
 Gap=     0.231 Goal=   None    Shift=    0.000
 RMSDP=1.06D-07 MaxDP=2.89D-06 DE=-7.00D-10 OVMax= 5.09D-06

 Cycle  10  Pass 1  IDiag  1:
 E= -3074.36489242846     Delta-E=       -0.000000000116 Rises=F Damp=F
 DIIS: error= 2.30D-07 at cycle   5 NSaved=   5.
 NSaved= 5 IEnMin= 5 EnMin= -3074.36489242846     IErMin= 5 ErrMin= 2.30D-07
 ErrMax= 2.30D-07  0.00D+00 EMaxC= 1.00D-01 BMatC= 1.05D-11 BMatP= 8.28D-11
 IDIUse=1 WtCom= 1.00D+00 WtEn= 0.00D+00
 Coeff-Com: -0.743D-02 0.155D-02 0.133D+00 0.391D+00 0.482D+00
 Coeff:     -0.743D-02 0.155D-02 0.133D+00 0.391D+00 0.482D+00
 Gap=     0.231 Goal=   None    Shift=    0.000
 RMSDP=3.65D-08 MaxDP=8.36D-07 DE=-1.16D-10 OVMax= 1.89D-06

 Cycle  11  Pass 1  IDiag  1:
 E= -3074.36489242845     Delta-E=        0.000000000010 Rises=F Damp=F
 DIIS: error= 2.86D-08 at cycle   6 NSaved=   6.
 NSaved= 6 IEnMin= 5 EnMin= -3074.36489242846     IErMin= 6 ErrMin= 2.86D-08
 ErrMax= 2.86D-08  0.00D+00 EMaxC= 1.00D-01 BMatC= 1.68D-13 BMatP= 1.05D-11
 IDIUse=1 WtCom= 1.00D+00 WtEn= 0.00D+00
 Coeff-Com: -0.237D-02-0.439D-03 0.295D-01 0.810D-01 0.133D+00 0.760D+00
 Coeff:     -0.237D-02-0.439D-03 0.295D-01 0.810D-01 0.133D+00 0.760D+00
 Gap=     0.231 Goal=   None    Shift=    0.000
 RMSDP=1.05D-08 MaxDP=4.11D-07 DE= 1.00D-11 OVMax= 2.26D-07

 Cycle  12  Pass 1  IDiag  1:
 E= -3074.36489242847     Delta-E=       -0.000000000017 Rises=F Damp=F
 DIIS: error= 1.29D-08 at cycle   7 NSaved=   7.
 NSaved= 7 IEnMin= 7 EnMin= -3074.36489242847     IErMin= 7 ErrMin= 1.29D-08
 ErrMax= 1.29D-08  0.00D+00 EMaxC= 1.00D-01 BMatC= 2.93D-14 BMatP= 1.68D-13
 IDIUse=1 WtCom= 1.00D+00 WtEn= 0.00D+00
 Coeff-Com: -0.214D-03-0.358D-03-0.334D-02-0.126D-01-0.133D-02 0.304D+00
 Coeff-Com:  0.714D+00
 Coeff:     -0.214D-03-0.358D-03-0.334D-02-0.126D-01-0.133D-02 0.304D+00
 Coeff:      0.714D+00
 Gap=     0.231 Goal=   None    Shift=    0.000
 RMSDP=3.95D-09 MaxDP=1.45D-07 DE=-1.73D-11 OVMax= 1.07D-07

 SCF Done:  E(RB3LYP) =  -3074.36489243     A.U. after   12 cycles
            NFock= 12  Conv=0.40D-08     -V/T= 2.0013
 KE= 3.070458257130D+03 PE=-7.760152609202D+03 EE= 1.412163474203D+03
 Leave Link  502 at Thu Oct 17 18:27:53 2019, MaxMem=   280000000 cpu:              34.4 elap:               1.6
 (Enter /home/soft/g16/l801.exe)
 DoSCS=F DFT=T ScalE2(SS,OS)=  1.000000  1.000000
 Range of M.O.s used for correlation:     1   134
 NBasis=   134 NAE=    31 NBE=    31 NFC=     0 NFV=     0
 NROrb=    134 NOA=    31 NOB=    31 NVA=   103 NVB=   103

 **** Warning!!: The largest alpha MO coefficient is  0.11656495D+02

 Leave Link  801 at Thu Oct 17 18:27:53 2019, MaxMem=   280000000 cpu:               0.5 elap:               0.0
 (Enter /home/soft/g16/l1101.exe)
 Using compressed storage, NAtomX=     6.
 Will process      7 centers per pass.
   6 Symmetry operations used in ECPInt.
 ECPInt:  NShTT=    1378 NPrTT=    5593 LenC2=    1338 LenP2D=    4364.
 LDataN:  DoStor=T MaxTD1= 7 Len=  274
 R6Disp: Adding Grimme-D3(BJ) dispersion energy 1st derivatives to the gradient.
 Leave Link 1101 at Thu Oct 17 18:27:53 2019, MaxMem=   280000000 cpu:               4.4 elap:               0.2
 (Enter /home/soft/g16/l1102.exe)
 Symmetrizing basis deriv contribution to polar:
 IMax=3 JMax=2 DiffMx= 0.00D+00
 Leave Link 1102 at Thu Oct 17 18:27:53 2019, MaxMem=   280000000 cpu:               0.7 elap:               0.0
 (Enter /home/soft/g16/l1110.exe)
 Forming Gx(P) for the SCF density, NAtomX=     6.
 Integral derivatives from FoFJK, PRISM(SPDF).
 Do as many integral derivatives as possible in FoFJK.
 G2DrvN: MDV=     279999420.
 G2DrvN: will do     7 centers at a time, making    1 passes.
 Calling FoFCou, ICntrl=  3107 FMM=F I1Cent=   0 AccDes= 0.00D+00.
 FoFJK:  IHMeth= 1 ICntrl=    3107 DoSepK=F KAlg= 0 I1Cent=           0 FoldK=F
 IRaf=         0 NMat=       1 IRICut=       1 DoRegI=T DoRafI=F ISym2E= 1 IDoP0=0 IntGTp=1.
 FoFCou: FMM=F IPFlag=           0 FMFlag=      100000 FMFlg1=           0
         NFxFlg=           0 DoJE=F BraDBF=F KetDBF=F FulRan=T
         wScrn=  0.000000 ICntrl=      3107 IOpCl=  0 I1Cent=           0 NGrid=           0
         NMat0=    1 NMatS0=      1 NMatT0=    0 NMatD0=    1 NMtDS0=    0 NMtDT0=    0
 Petite list used in FoFCou.
 End of G2Drv F.D. properties file   721 does not exist.
 End of G2Drv F.D. properties file   722 does not exist.
 End of G2Drv F.D. properties file   788 does not exist.
 Leave Link 1110 at Thu Oct 17 18:27:55 2019, MaxMem=   280000000 cpu:              35.6 elap:               1.5
 (Enter /home/soft/g16/l1002.exe)
 Minotr:  Closed shell wavefunction.
          IDoAtm=111111
          Direct CPHF calculation.
          Differentiating once with respect to electric field.
                with respect to dipole field.
          Differentiating once with respect to nuclear coordinates.
          Using symmetry in CPHF.
          Requested convergence is 1.0D-08 RMS, and 1.0D-07 maximum.
          Secondary convergence is 1.0D-12 RMS, and 1.0D-12 maximum.
          NewPWx=T KeepS1=F KeepF1=F KeepIn=T MapXYZ=F SortEE=F KeepMc=T.
         1761 words used for storage of precomputed grid.
 Keep R1 ints in memory in symmetry-blocked form, NReq=64256973.
 FoFCou: FMM=F IPFlag=           0 FMFlag=           0 FMFlg1=           0
         NFxFlg=           0 DoJE=F BraDBF=F KetDBF=F FulRan=T
         wScrn=  0.000000 ICntrl=       600 IOpCl=  0 I1Cent=           0 NGrid=           0
         NMat0=    1 NMatS0=   9045 NMatT0=    0 NMatD0=    1 NMtDS0=    0 NMtDT0=    0
 Petite list used in FoFCou.
          MDV=     280000000 using IRadAn=       1.
          Solving linear equations simultaneously, MaxMat=       0.
          There are    15 degrees of freedom in the 1st order CPHF.  IDoFFX=4 NUNeed=    15.
     15 vectors produced by pass  0 Test12= 2.13D-14 6.67D-09 XBig12= 1.33D+02 7.62D+00.
 AX will form    15 AO Fock derivatives at one time.
     15 vectors produced by pass  1 Test12= 2.13D-14 6.67D-09 XBig12= 2.04D+01 1.63D+00.
     15 vectors produced by pass  2 Test12= 2.13D-14 6.67D-09 XBig12= 7.56D-01 1.89D-01.
     15 vectors produced by pass  3 Test12= 2.13D-14 6.67D-09 XBig12= 2.60D-02 2.87D-02.
     15 vectors produced by pass  4 Test12= 2.13D-14 6.67D-09 XBig12= 3.55D-04 4.82D-03.
     15 vectors produced by pass  5 Test12= 2.13D-14 6.67D-09 XBig12= 2.15D-06 2.82D-04.
      9 vectors produced by pass  6 Test12= 2.13D-14 6.67D-09 XBig12= 2.77D-09 9.75D-06.
      3 vectors produced by pass  7 Test12= 2.13D-14 6.67D-09 XBig12= 2.16D-12 2.99D-07.
      1 vectors produced by pass  8 Test12= 2.13D-14 6.67D-09 XBig12= 4.14D-15 2.06D-08.
 InvSVY:  IOpt=1 It=  1 EMax= 1.40D-15
 Solved reduced A of dimension   103 with    15 vectors.
 FullF1:  Do perturbations      1 to      15.
 Isotropic polarizability for W=    0.000000       60.67 Bohr**3.
 End of Minotr F.D. properties file   721 does not exist.
 End of Minotr F.D. properties file   722 does not exist.
 End of Minotr F.D. properties file   788 does not exist.
 Leave Link 1002 at Thu Oct 17 18:27:59 2019, MaxMem=   280000000 cpu:              87.2 elap:               3.7
 (Enter /home/soft/g16/l701.exe)
 ... and contract with generalized density number  0.
 Compute integral second derivatives.
 R6Disp: Adding Grimme-D3(BJ) dispersion energy 2nd derivatives to the Hessian.
   6 Symmetry operations used in ECPInt.
 ECPInt:  NShTT=    1378 NPrTT=    5593 LenC2=    1338 LenP2D=    4364.
 LDataN:  DoStor=T MaxTD1= 8 Len=  415
 Leave Link  701 at Thu Oct 17 18:27:59 2019, MaxMem=   280000000 cpu:               4.9 elap:               0.2
 (Enter /home/soft/g16/l702.exe)
 L702 exits ... SP integral derivatives will be done elsewhere.
 Leave Link  702 at Thu Oct 17 18:27:59 2019, MaxMem=   280000000 cpu:               0.5 elap:               0.0
 (Enter /home/soft/g16/l703.exe)
 Integral derivatives from FoFJK, PRISM(SPDF).
 Compute integral second derivatives, UseDBF=F ICtDFT=           0.
 Calling FoFJK, ICntrl=    100127 FMM=F ISym2X=1 I1Cent= 0 IOpClX= 0 NMat=1 NMatS=1 NMatT=0.
 FoFJK:  IHMeth= 1 ICntrl=  100127 DoSepK=F KAlg= 0 I1Cent=           0 FoldK=F
 IRaf=         0 NMat=       1 IRICut=       1 DoRegI=T DoRafI=F ISym2E= 1 IDoP0=0 IntGTp=1.
 FoFCou: FMM=F IPFlag=           0 FMFlag=      100000 FMFlg1=         800
         NFxFlg=           0 DoJE=F BraDBF=F KetDBF=F FulRan=T
         wScrn=  0.000000 ICntrl=    100127 IOpCl=  0 I1Cent=           0 NGrid=           0
         NMat0=    1 NMatS0=      1 NMatT0=    0 NMatD0=    1 NMtDS0=    0 NMtDT0=    0
 Petite list used in FoFCou.
 Leave Link  703 at Thu Oct 17 18:28:02 2019, MaxMem=   280000000 cpu:              83.6 elap:               3.5
 (Enter /home/soft/g16/l716.exe)
 Dipole        =-2.67156927D-16 6.02289283D-15 1.97164833D+00
 Polarizability= 3.82096593D+01 4.73723237D-12 3.82083459D+01
                -3.87332540D-11 7.34160753D-04 1.05577649D+02
 ***** Axes restored to original set *****
 -------------------------------------------------------------------
 Center     Atomic                   Forces (Hartrees/Bohr)
 Number     Number              X              Y              Z
 -------------------------------------------------------------------
      1        6           0.000689110   -0.000000008   -0.000000000
      2        1          -0.022771038   -0.008519168   -0.000000000
      3        1          -0.022770880    0.004260005    0.007378059
      4        1          -0.022770880    0.004260005   -0.007378059
      5       35          -0.055636165    0.000000686   -0.000000000
      6       17           0.123259854   -0.000001519   -0.000000000
 -------------------------------------------------------------------
 Cartesian Forces:  Max     0.123259854 RMS     0.033385075
 Force constants in Cartesian coordinates: 
                1             2             3             4             5 
      1  0.126054D+00
      2  0.515502D-05  0.603426D+00
      3  0.000000D+00  0.000000D+00  0.603425D+00
      4 -0.237128D-01  0.976769D-01  0.000000D+00  0.814928D-01
      5  0.934706D-01 -0.343876D+00  0.000000D+00 -0.832164D-01  0.355858D+00
      6  0.000000D+00  0.000000D+00 -0.478430D-01  0.000000D+00  0.000000D+00
      7 -0.237163D-01 -0.488415D-01 -0.845956D-01  0.938724D-03  0.303146D-02
      8 -0.467384D-01 -0.121849D+00 -0.128184D+00 -0.470240D-02 -0.104895D-01
      9 -0.809526D-01 -0.128184D+00 -0.269865D+00 -0.785721D-03  0.142000D-02
     10 -0.237163D-01 -0.488415D-01  0.845956D-01  0.938724D-03  0.303146D-02
     11 -0.467384D-01 -0.121849D+00  0.128184D+00 -0.470240D-02 -0.104895D-01
     12  0.809526D-01  0.128184D+00 -0.269865D+00  0.785720D-03 -0.142000D-02
     13 -0.354385D-01  0.000000D+00  0.000000D+00 -0.206746D-01 -0.776995D-02
     14  0.000000D+00 -0.197071D-01  0.000000D+00  0.108721D-01  0.765530D-02
     15  0.000000D+00  0.000000D+00 -0.197070D-01  0.000000D+00  0.000000D+00
     16 -0.194707D-01  0.000000D+00  0.000000D+00 -0.389828D-01 -0.854715D-02
     17  0.000000D+00  0.385483D-02  0.000000D+00 -0.159277D-01  0.134157D-02
     18  0.000000D+00  0.000000D+00  0.385478D-02  0.000000D+00  0.000000D+00
                6             7             8             9            10 
      6  0.400299D-01
      7  0.367911D-02  0.814959D-01
      8 -0.241494D-01  0.416104D-01  0.118985D+00
      9  0.263327D-02  0.720722D-01  0.136756D+00  0.276899D+00
     10 -0.367910D-02  0.938785D-03  0.167076D-02 -0.446530D-02  0.814959D-01
     11  0.241494D-01  0.167076D-02  0.919465D-02 -0.127846D-01  0.416104D-01
     12  0.263327D-02  0.446530D-02  0.127846D-01 -0.170510D-01 -0.720722D-01
     13  0.000000D+00 -0.206747D-01  0.388538D-02  0.672919D-02 -0.206747D-01
     14  0.000000D+00 -0.543561D-02  0.228708D-02  0.309928D-02 -0.543561D-02
     15  0.497630D-03 -0.941517D-02  0.309946D-02  0.586587D-02  0.941517D-02
     16  0.000000D+00 -0.389823D-01  0.427435D-02  0.740252D-02 -0.389823D-01
     17  0.000000D+00  0.796460D-02  0.187185D-02 -0.306575D-03  0.796460D-02
     18  0.204892D-02  0.137942D-01 -0.306597D-03  0.151817D-02 -0.137942D-01
               11            12            13            14            15 
     11  0.118985D+00
     12 -0.136756D+00  0.276899D+00
     13  0.388538D-02 -0.672919D-02  0.151433D+00
     14  0.228708D-02 -0.309928D-02 -0.198654D-05  0.172942D-02
     15 -0.309947D-02  0.586587D-02  0.000000D+00  0.000000D+00  0.172947D-02
     16  0.427435D-02 -0.740252D-02 -0.539707D-01  0.000000D+00  0.000000D+00
     17  0.187185D-02  0.306575D-03  0.000000D+00  0.574821D-02  0.000000D+00
     18  0.306597D-03  0.151817D-02  0.000000D+00  0.000000D+00  0.574824D-02
               16            17            18 
     16  0.190389D+00
     17 -0.249502D-05 -0.146883D-01
     18  0.000000D+00  0.000000D+00 -0.146883D-01
 FormGI is forming the generalized inverse of G from B-inverse, IUseBI=4.
 Force constants in internal coordinates: 
                1             2             3             4             5 
      1  0.378468D+00
      2  0.191402D-02  0.378468D+00
      3  0.191402D-02  0.191404D-02  0.378468D+00
      4 -0.918560D-03 -0.918373D-03 -0.918373D-03  0.151433D+00
      5 -0.406564D-02 -0.406560D-02 -0.406560D-02  0.539706D-01  0.190389D+00
      6  0.205045D-02  0.205046D-02 -0.160133D-02 -0.600149D-02  0.107971D-01
      7  0.267898D-02 -0.150703D-02  0.296880D-02 -0.994188D-02  0.178861D-01
      8 -0.474030D-02  0.839848D-03  0.407968D-03  0.838521D-02 -0.150854D-01
      9 -0.519937D-02  0.412985D-02  0.456173D-02 -0.838509D-02  0.150854D-01
     10 -0.150705D-02  0.267901D-02  0.296880D-02 -0.994185D-02  0.178861D-01
     11  0.839926D-03 -0.454817D-02  0.215940D-03  0.838504D-02 -0.150853D-01
     12  0.412991D-02 -0.500725D-02  0.436977D-02 -0.838510D-02  0.150853D-01
     13  0.516225D-03  0.324115D-03 -0.517786D-02  0.104144D-01 -0.187363D-01
     14  0.445361D-02  0.426160D-02 -0.437756D-02 -0.104145D-01  0.187363D-01
     15 -0.993967D-02  0.496970D-02  0.496970D-02  0.000000D+00  0.000000D+00
     16  0.000000D+00  0.859506D-02 -0.859506D-02  0.000000D+00  0.000000D+00
     17 -0.343555D-02 -0.343559D-02 -0.209943D-02  0.215382D-01 -0.387487D-01
     18  0.231626D-03  0.341103D-03 -0.156141D-02  0.237371D-02 -0.427044D-02
     19 -0.306421D-02 -0.295476D-02  0.700757D-02 -0.237368D-02  0.427043D-02
     20 -0.799567D-03  0.114072D-02 -0.835423D-03  0.118683D-02 -0.213522D-02
     21  0.363215D-02 -0.658688D-02  0.344908D-02 -0.118686D-02  0.213522D-02
     22 -0.103119D-02  0.799614D-03  0.725986D-03 -0.118689D-02  0.213522D-02
     23  0.669636D-02 -0.363212D-02 -0.355850D-02  0.118682D-02 -0.213521D-02
                6             7             8             9            10 
      6  0.929157D-02
      7 -0.282069D-02  0.160458D-01
      8 -0.656459D-02 -0.104047D-01  0.422503D-01
      9  0.733647D-02  0.112282D-01 -0.234124D-01  0.471676D-01
     10 -0.282069D-02  0.145055D-02  0.867968D-02 -0.105105D-01  0.160458D-01
     11 -0.659441D-02  0.871622D-02 -0.190859D-01  0.960262D-02 -0.104023D-01
     12  0.730664D-02 -0.104740D-01  0.959558D-02 -0.218113D-01  0.112306D-01
     13  0.932556D-02 -0.137239D-01 -0.144587D-01  0.535122D-02 -0.136897D-01
     14 -0.108097D-01  0.146581D-01  0.511105D-02 -0.168977D-01  0.146923D-01
     15  0.771888D-03  0.823563D-03  0.188380D-01  0.237552D-01 -0.183084D-02
     16 -0.133495D-02  0.163619D-02  0.867313D-04  0.402488D-03  0.105937D-03
     17 -0.792493D-02 -0.860940D-02  0.958443D-02 -0.986689D-02 -0.860940D-02
     18  0.362322D-02 -0.433909D-02  0.534399D-02  0.911809D-03 -0.435857D-02
     19 -0.277734D-02  0.380664D-02 -0.162548D-04  0.566919D-02  0.378715D-02
     20  0.180311D-02 -0.545675D-02 -0.338419D-02 -0.314768D-02  0.111899D-02
     21 -0.139717D-02  0.445490D-02 -0.202488D-02 -0.381074D-02 -0.646915D-03
     22 -0.182011D-02 -0.111765D-02 -0.872818D-02 -0.405949D-02  0.547757D-02
     23  0.138017D-02  0.648258D-03 -0.200862D-02 -0.947993D-02 -0.443407D-02
               11            12            13            14            15 
     11  0.415453D-01
     12 -0.242088D-01  0.462796D-01
     13 -0.137632D-01  0.614518D-02  0.472180D-01
     14  0.590998D-02 -0.160003D-01 -0.304925D-01  0.523694D-01
     15 -0.948329D-02 -0.122157D-01 -0.910746D-02 -0.117867D-01  0.425932D-01
     16 -0.153105D-01 -0.194048D-01  0.147961D-01  0.194299D-01  0.489219D-03
     17  0.959536D-02 -0.985595D-02  0.722615D-02 -0.668311D-02 -0.282457D-03
     18  0.490647D-02  0.418151D-03 -0.492127D-02 -0.665914D-02  0.625580D-02
     19 -0.430474D-03  0.519883D-02 -0.461151D-02 -0.580977D-02  0.565293D-02
     20  0.828805D-02  0.356723D-02 -0.224198D-02 -0.308143D-02 -0.653187D-02
     21  0.159300D-02  0.901217D-02 -0.209996D-02 -0.266960D-02 -0.583562D-02
[...]
      3  0.000000D+00  0.000000D+00  0.599958D+00
      4 -0.470740D-01  0.832329D-01  0.000000D+00  0.611062D-01
      5  0.781710D-01 -0.333156D+00  0.000000D+00 -0.814853D-01  0.347060D+00
      6  0.000000D+00  0.000000D+00 -0.490376D-01  0.000000D+00  0.000000D+00
      7 -0.470771D-01 -0.416191D-01 -0.720864D-01  0.445062D-02  0.415244D-02
      8 -0.390881D-01 -0.120066D+00 -0.123025D+00 -0.821230D-02 -0.106406D-01
      9 -0.677025D-01 -0.123025D+00 -0.262124D+00 -0.537532D-04  0.221401D-02
     10 -0.470771D-01 -0.416191D-01  0.720864D-01  0.445062D-02  0.415244D-02
     11 -0.390881D-01 -0.120066D+00  0.123025D+00 -0.821230D-02 -0.106406D-01
     12  0.677024D-01  0.123025D+00 -0.262124D+00  0.537523D-04 -0.221401D-02
     13 -0.397835D-01  0.000000D+00  0.000000D+00 -0.200938D-01 -0.615113D-02
     14  0.000000D+00 -0.247114D-01  0.000000D+00  0.144632D-01  0.640549D-02
     15  0.000000D+00  0.000000D+00 -0.247113D-01  0.000000D+00  0.000000D+00
     16  0.673729D-02  0.000000D+00  0.000000D+00 -0.283964D-02  0.116053D-02
     17  0.000000D+00 -0.196020D-02  0.000000D+00  0.213753D-03  0.971500D-03
     18  0.000000D+00  0.000000D+00 -0.196028D-02  0.000000D+00  0.000000D+00
                6             7             8             9            10 
      6  0.452821D-01
      7  0.708470D-02  0.611092D-01
      8 -0.247687D-01  0.407451D-01  0.120725D+00
      9  0.238131D-02  0.705730D-01  0.130672D+00  0.271614D+00
     10 -0.708470D-02  0.445077D-02  0.405954D-02 -0.713895D-02  0.611092D-01
     11  0.247687D-01  0.405953D-02  0.889218D-02 -0.134912D-01  0.407451D-01
     12  0.238132D-02  0.713895D-02  0.134912D-01 -0.171516D-01 -0.705730D-01
     13  0.000000D+00 -0.200939D-01  0.307599D-02  0.532734D-02 -0.200939D-01
     14  0.000000D+00 -0.723116D-02  0.152065D-02  0.282025D-02 -0.723116D-02
     15 -0.107721D-03 -0.125252D-01  0.282048D-02  0.477724D-02  0.125252D-01
     16  0.000000D+00 -0.283967D-02 -0.580228D-03 -0.100502D-02 -0.283967D-02
     17  0.000000D+00 -0.106810D-03 -0.431686D-03  0.810174D-03 -0.106810D-03
     18 -0.899431D-03 -0.185051D-03  0.810155D-03  0.503798D-03  0.185051D-03
               11            12            13            14            15 
     11  0.120725D+00
     12 -0.130672D+00  0.271614D+00
     13  0.307599D-02 -0.532734D-02  0.111729D+00
     14  0.152065D-02 -0.282025D-02 -0.126337D-05  0.140906D-01
     15 -0.282048D-02  0.477724D-02  0.000000D+00  0.000000D+00  0.140906D-01
     16 -0.580228D-03  0.100502D-02 -0.116637D-01  0.000000D+00  0.000000D+00
     17 -0.431686D-03 -0.810174D-03  0.000000D+00  0.117405D-02  0.000000D+00
     18 -0.810156D-03  0.503797D-03  0.000000D+00  0.000000D+00  0.117405D-02
               16            17            18 
     16  0.134454D-01
     17  0.000000D+00  0.678025D-03
     18  0.000000D+00  0.000000D+00  0.678026D-03
 FormGI is forming the generalized inverse of G from B-inverse, IUseBI=4.
 Force constants in internal coordinates: 
                1             2             3             4             5 
      1  0.368424D+00
      2  0.124341D-02  0.368424D+00
      3  0.124341D-02  0.124341D-02  0.368424D+00
      4 -0.249428D-03 -0.249395D-03 -0.249395D-03  0.111729D+00
      5 -0.191254D-02 -0.191261D-02 -0.191261D-02  0.116637D-01  0.134454D-01
      6  0.303697D-02  0.303698D-02 -0.247751D-02 -0.503132D-02  0.574281D-03
      7  0.399489D-02 -0.218814D-02  0.437937D-02 -0.865421D-02  0.987802D-03
      8 -0.611236D-02  0.516043D-03 -0.751699D-04  0.793410D-02 -0.905633D-03
      9  0.278245D-02  0.114881D-02  0.174002D-02 -0.793406D-02  0.905595D-03
     10 -0.218814D-02  0.399491D-02  0.437938D-02 -0.865419D-02  0.987794D-03
     11  0.516125D-03 -0.605936D-02 -0.128036D-03  0.793399D-02 -0.905579D-03
     12  0.114883D-02  0.283540D-02  0.168715D-02 -0.793401D-02  0.905598D-03
     13  0.678052D-04  0.148548D-04 -0.696594D-02  0.962955D-02 -0.109911D-02
     14  0.159715D-02  0.154426D-02  0.374198D-02 -0.962957D-02  0.109913D-02
     15 -0.332991D-02  0.166485D-02  0.166485D-02  0.000000D+00  0.000000D+00
     16  0.000000D+00  0.287776D-02 -0.287776D-02  0.000000D+00  0.000000D+00
     17 -0.570000D-02 -0.570003D-02 -0.400963D-02  0.215576D-01 -0.246061D-02
     18  0.678632D-03  0.705516D-03 -0.297526D-02  0.222586D-02 -0.254067D-03
     19 -0.152416D-02 -0.149729D-02  0.461251D-02 -0.222585D-02  0.254057D-03
     20 -0.156143D-02  0.226699D-02 -0.150105D-02  0.111292D-02 -0.127025D-03
     21  0.240696D-02 -0.390425D-02  0.229283D-02 -0.111293D-02  0.127034D-03
     22 -0.224006D-02  0.156148D-02  0.147421D-02 -0.111295D-02  0.127042D-03
     23  0.393112D-02 -0.240695D-02 -0.231968D-02  0.111292D-02 -0.127023D-03
                6             7             8             9            10 
      6  0.839893D-02
      7 -0.291629D-02  0.128955D-01
      8 -0.584628D-02 -0.854743D-02  0.403342D-01
      9  0.342986D-02  0.600653D-02 -0.158113D-01  0.100502D-01
     10 -0.291629D-02 -0.103333D-02  0.841551D-02 -0.282831D-02  0.128955D-01
     11 -0.576951D-02  0.832408D-02 -0.178799D-01  0.522952D-02 -0.855279D-02
     12  0.350664D-02 -0.291974D-02  0.524598D-02 -0.197721D-02  0.600119D-02
     13  0.868666D-02 -0.998713D-02 -0.156310D-01  0.303955D-02 -0.100732D-01
     14 -0.400737D-02  0.712369D-02  0.374202D-02 -0.530812D-03  0.703761D-02
     15 -0.241641D-02 -0.254090D-02  0.245229D-01 -0.576104D-02  0.558721D-02
     16  0.417678D-02 -0.497436D-02  0.448217D-03 -0.447375D-03 -0.291202D-03
     17 -0.659923D-02 -0.603335D-02  0.814097D-02 -0.740024D-02 -0.603336D-02
     18  0.383753D-02 -0.349414D-02  0.462583D-02 -0.139774D-02 -0.345043D-02
     19 -0.621385D-02  0.494831D-02  0.141185D-02  0.123711D-03  0.499203D-02
     20  0.193826D-02 -0.553660D-02 -0.263661D-02 -0.477112D-03  0.203974D-02
     21 -0.308743D-02  0.828113D-02 -0.377940D-02  0.212876D-02 -0.333554D-02
     22 -0.189927D-02 -0.204246D-02 -0.726244D-02  0.920632D-03  0.549017D-02
     23  0.312642D-02  0.333282D-02 -0.519125D-02  0.200505D-02 -0.832757D-02
               11            12            13            14            15 
     11  0.395696D-01
     12 -0.161030D-01  0.102314D-01
     13 -0.148436D-01  0.333763D-02  0.434560D-01
     14  0.402735D-02 -0.734780D-03 -0.193586D-01  0.128549D-01
     15 -0.126504D-01  0.326877D-02 -0.125914D-01  0.321121D-02  0.187619D-01
     16 -0.206265D-01  0.509871D-02  0.214209D-01 -0.589402D-02  0.000000D+00
     17  0.811744D-02 -0.742379D-02  0.504612D-02 -0.648051D-02  0.740726D-03
     18  0.432656D-02 -0.144853D-02 -0.540614D-02 -0.699972D-03  0.322809D-02
     19  0.116635D-02  0.126697D-03 -0.683145D-02  0.400284D-02  0.153556D-02
     20  0.696856D-02 -0.974378D-03 -0.255303D-02 -0.327429D-03 -0.311372D-02
     21  0.494872D-02 -0.200746D-02 -0.329014D-02  0.199952D-02 -0.165064D-02
     22  0.264200D-02  0.474148D-03  0.285311D-02  0.372542D-03 -0.634181D-02
     23  0.378236D-02 -0.213416D-02  0.354131D-02 -0.200332D-02 -0.318620D-02
               16            17            18            19            20 
     16  0.186842D-01
     17 -0.128035D-02  0.192751D-01
     18 -0.540536D-02  0.606475D-03  0.899504D-02
     19 -0.247982D-02  0.121961D-03 -0.589412D-02  0.733060D-02
     20 -0.533947D-02  0.297261D-03  0.444687D-02 -0.298406D-02  0.905382D-02
     21 -0.254613D-02  0.550058D-04 -0.298529D-02  0.364072D-02 -0.600974D-02
     22  0.658851D-04 -0.309214D-03 -0.454817D-02  0.291006D-02  0.460695D-02
     23 -0.663124D-04 -0.669553D-04  0.290883D-02 -0.368988D-02 -0.302568D-02
               21            22            23 
     21  0.750342D-02
     22 -0.302445D-02  0.915512D-02
     23  0.386271D-02 -0.593451D-02  0.755258D-02
 Leave Link  716 at Thu Oct 17 18:29:13 2019, MaxMem=   280000000 cpu:               2.8 elap:               0.2
 (Enter /home/soft/g16/l103.exe)

 GradGradGradGradGradGradGradGradGradGradGradGradGradGradGradGradGradGrad
 Berny optimization.
 Red2BG is reusing G-inverse.
 Internal  Forces:  Max     0.000073866 RMS     0.000021079
 Search for a local minimum.
 Step number   1 out of a maximum of    2
 All quantities printed in internal units (Hartrees-Bohrs-Radians)
 Second derivative matrix not updated -- analytic derivatives used.
 ITU=  0
     Eigenvalues ---    0.00667   0.00685   0.00949   0.02717   0.03086
     Eigenvalues ---    0.03552   0.08812   0.08975   0.12611   0.36768
     Eigenvalues ---    0.36770   0.37152
 Angle between quadratic step and forces=  35.78 degrees.
 Linear search not attempted -- first point.
 Iteration  1 RMS(Cart)=  0.00032450 RMS(Int)=  0.00000043
 Iteration  2 RMS(Cart)=  0.00000023 RMS(Int)=  0.00000036
 ITry= 1 IFail=0 DXMaxC= 1.30D-03 DCOld= 1.00D+10 DXMaxT= 3.00D-01 DXLimC= 3.00D+00 Rises=F
 ClnCor:  largest displacement from symmetrization is 1.55D-06 for atom     4.
 Variable       Old X    -DE/DX   Delta X   Delta X   Delta X     New X
                                 (Linear)    (Quad)   (Total)
    R1        2.03807  -0.00001   0.00000  -0.00009  -0.00009   2.03798
    R2        2.03807  -0.00001   0.00000  -0.00009  -0.00009   2.03798
    R3        2.03807  -0.00001   0.00000  -0.00009  -0.00009   2.03798
    R4        3.86251   0.00007   0.00000   0.00170   0.00170   3.86421
    R5        5.64402   0.00001   0.00000  -0.00148  -0.00148   5.64254
    A1        1.96195   0.00001   0.00000   0.00067   0.00067   1.96263
    A2        1.96195   0.00002   0.00000   0.00067   0.00067   1.96263
    A3        1.85600  -0.00002   0.00000  -0.00077  -0.00077   1.85523
    A4        1.28559   0.00002   0.00000   0.00077   0.00077   1.28636
    A5        1.96195   0.00002   0.00000   0.00067   0.00067   1.96263
    A6        1.85600  -0.00002   0.00000  -0.00077  -0.00077   1.85523
    A7        1.28559   0.00002   0.00000   0.00077   0.00077   1.28636
    A8        1.85600  -0.00002   0.00000  -0.00077  -0.00077   1.85523
    A9        1.28559   0.00002   0.00000   0.00077   0.00077   1.28636
   A10        3.14159   0.00000   0.00000   0.00000   0.00000   3.14159
   A11        3.14159  -0.00000   0.00000  -0.00000   0.00000   3.14159
    D1       -2.23468  -0.00004   0.00000  -0.00207  -0.00207  -2.23675
    D2        2.09440  -0.00000   0.00000   0.00000   0.00000   2.09440
    D3       -2.09440   0.00000   0.00000   0.00000   0.00000  -2.09440
    D4       -2.09440  -0.00000   0.00000   0.00000   0.00000  -2.09440
    D5        2.09440   0.00000   0.00000   0.00000   0.00000   2.09440
    D6        2.09440   0.00000   0.00000  -0.00000   0.00000   2.09440
    D7       -2.09440  -0.00000   0.00000  -0.00000   0.00000  -2.09440
         Item               Value     Threshold  Converged?
 Maximum Force            0.000074     0.000450     YES
 RMS     Force            0.000021     0.000300     YES
 Maximum Displacement     0.001296     0.001800     YES
 RMS     Displacement     0.000325     0.001200     YES
 Predicted change in Energy=-1.551205D-07
 Optimization completed.
    -- Stationary point found.
                           ----------------------------
                           !   Optimized Parameters   !
                           ! (Angstroms and Degrees)  !
 --------------------------                            --------------------------
 ! Name  Definition              Value          Derivative Info.                !
 --------------------------------------------------------------------------------
 ! R1    R(1,2)                  1.0785         -DE/DX =    0.0                 !
 ! R2    R(1,3)                  1.0785         -DE/DX =    0.0                 !
 ! R3    R(1,4)                  1.0785         -DE/DX =    0.0                 !
 ! R4    R(1,5)                  2.044          -DE/DX =    0.0001              !
 ! R5    R(1,6)                  2.9867         -DE/DX =    0.0                 !
 ! A1    A(2,1,3)              112.4116         -DE/DX =    0.0                 !
 ! A2    A(2,1,4)              112.4116         -DE/DX =    0.0                 !
 ! A3    A(2,1,5)              106.3412         -DE/DX =    0.0                 !
 ! A4    A(2,1,6)               73.6588         -DE/DX =    0.0                 !
 ! A5    A(3,1,4)              112.4116         -DE/DX =    0.0                 !
 ! A6    A(3,1,5)              106.3412         -DE/DX =    0.0                 !
 ! A7    A(3,1,6)               73.6588         -DE/DX =    0.0                 !
 ! A8    A(4,1,5)              106.3412         -DE/DX =    0.0                 !
 ! A9    A(4,1,6)               73.6588         -DE/DX =    0.0                 !
 ! A10   L(5,1,6,2,-1)         180.0            -DE/DX =    0.0                 !
 ! A11   L(5,1,6,2,-2)         180.0            -DE/DX =    0.0                 !
 ! D1    D(2,1,4,3)           -128.0378         -DE/DX =    0.0                 !
 ! D2    D(2,1,5,3)            120.0            -DE/DX =    0.0                 !
 ! D3    D(2,1,6,3)           -120.0            -DE/DX =    0.0                 !
 ! D4    D(2,1,5,4)           -120.0            -DE/DX =    0.0                 !
 ! D5    D(2,1,6,4)            120.0            -DE/DX =    0.0                 !
 ! D6    D(3,1,5,4)            120.0            -DE/DX =    0.0                 !
 ! D7    D(3,1,6,4)           -120.0            -DE/DX =    0.0                 !
 --------------------------------------------------------------------------------
 GradGradGradGradGradGradGradGradGradGradGradGradGradGradGradGradGradGrad

 Leave Link  103 at Thu Oct 17 18:29:13 2019, MaxMem=   280000000 cpu:               0.4 elap:               0.0
 (Enter /home/soft/g16/l9999.exe)

 ----------------------------------------------------------------------

 Electric dipole moment (input orientation):
 (Debye = 10**-18 statcoulomb cm , SI units = C m)
                  (au)            (Debye)         (10**-30 SI)
   Tot        0.399068D+01      0.101433D+02      0.338344D+02
   x         -0.399068D+01     -0.101433D+02     -0.338344D+02
   y          0.491843D-04      0.125014D-03      0.417002D-03
   z          0.000000D+00      0.000000D+00      0.000000D+00

 Dipole polarizability, Alpha (input orientation).
 (esu units = cm**3 , SI units = C**2 m**2 J**-1)
 Alpha(0;0):
               (au)            (10**-24 esu)      (10**-40 SI)
   iso        0.609613D+02      0.903354D+01      0.100512D+02
   aniso      0.672358D+02      0.996331D+01      0.110857D+02
   xx         0.105785D+03      0.156757D+02      0.174416D+02
   yx         0.102048D-03      0.151220D-04      0.168255D-04
   yy         0.385490D+02      0.571238D+01      0.635588D+01
   zx         0.000000D+00      0.000000D+00      0.000000D+00
   zy         0.000000D+00      0.000000D+00      0.000000D+00
   zz         0.385498D+02      0.571249D+01      0.635600D+01

 ----------------------------------------------------------------------

 Dipole orientation:
     6         -0.00002528         -2.05089083          2.27152245
     1         -0.00004949         -4.00662655          1.69809890
     1          1.69370365         -1.07304394          1.69809890
     1         -1.69372999         -1.07300200          1.69809890
    35         -0.00002528         -2.05089083          6.13402831
    17         -0.00002528         -2.05089083         -3.37249763

 Electric dipole moment (dipole orientation):
 (Debye = 10**-18 statcoulomb cm , SI units = C m)
                  (au)            (Debye)         (10**-30 SI)
   Tot        0.399068D+01      0.101433D+02      0.338344D+02
   x          0.000000D+00      0.000000D+00      0.000000D+00
   y          0.000000D+00      0.000000D+00      0.000000D+00
   z          0.399068D+01      0.101433D+02      0.338344D+02

 Dipole polarizability, Alpha (dipole orientation).
 (esu units = cm**3 , SI units = C**2 m**2 J**-1)
 Alpha(0;0):
               (au)            (10**-24 esu)      (10**-40 SI)
   iso        0.609613D+02      0.903354D+01      0.100512D+02
   aniso      0.672358D+02      0.996331D+01      0.110857D+02
   xx         0.385498D+02      0.571249D+01      0.635600D+01
   yx         0.000000D+00      0.000000D+00      0.000000D+00
   yy         0.385490D+02      0.571238D+01      0.635588D+01
   zx         0.000000D+00      0.000000D+00      0.000000D+00
   zy        -0.930721D-03     -0.137919D-03     -0.153455D-03
   zz         0.105785D+03      0.156757D+02      0.174416D+02

 ----------------------------------------------------------------------
 1\1\GINC-NODE12\Freq\RB3LYP\def2TZVP\C1H3Br1Cl1(1-)\ROOT\17-Oct-2019\0
 \\#P Geom=AllCheck Guess=TCheck SCRF=Check GenChk RB3LYP/def2TZVP Freq
 \\Title Card Required\\-1,1\C,-1.2020512902,-1.085269873,0.\H,-0.89862
 13713,-2.1202043881,-0.0000000578\H,-0.8986022383,-0.5678082753,0.8962
 763714\H,-0.8986022383,-0.5678081752,-0.8962763136\Br,-3.2460013705,-1
 .0852446817,0.\Cl,1.784635514,-1.0853066834,0.\\Version=ES64L-G16RevA.
 03\State=1-A1\HF=-3074.4308593\RMSD=5.506e-09\RMSF=5.138e-05\ZeroPoint
 =0.0370765\Thermal=0.0425776\Dipole=-3.9906751,0.0000492,0.\DipoleDeri
 v=1.968471,0.0000232,0.,-0.0000188,0.0017428,0.,0.,0.,0.0017537,-0.044
 9355,0.0271492,0.,-0.0314914,0.0205911,0.,0.,0.,0.0740408,-0.044934,-0
 .0135764,-0.0235129,0.0157463,0.0606792,-0.0231448,0.0272693,-0.023146
 ,0.0339526,-0.044934,-0.0135764,0.0235129,0.0157463,0.0606792,0.023144
 8,-0.0272693,0.023146,0.0339526,-1.4559208,-0.0000109,0.,0.0000114,-0.
 306984,0.,0.,0.,-0.30699,-1.3777496,-0.0000018,0.,0.0000083,-0.8367098
 ,0.,0.,0.,-0.836708\Polar=105.7851826,0.000102,38.5490372,0.,0.,38.549
 7781\Quadrupole=-25.4296498,12.7148249,12.7148249,0.0004701,0.,0.\PG=C
 03V [C3(Cl1C1Br1),3SGV(H1)]\NImag=0\\0.17427446,0.00000480,0.59995813,
 0.,0.,0.59995757,-0.04707402,0.08323295,0.,0.06110622,0.07817105,-0.33
 315572,-0.00000002,-0.08148526,0.34705981,0.,-0.00000002,-0.04903759,0
 .,0.00000002,0.04528213,-0.04707706,-0.04161906,-0.07208636,0.00445062
 ,0.00415244,0.00708470,0.06110923,-0.03908808,-0.12006551,-0.12302487,
 -0.00821230,-0.01064055,-0.02476872,0.04074512,0.12072503,-0.06770245,
 -0.12302486,-0.26212446,-0.00005375,0.00221401,0.00238131,0.07057297,0
 .13067182,0.27161390,-0.04707706,-0.04161907,0.07208636,0.00445062,0.0
 0415244,-0.00708470,0.00445077,0.00405954,-0.00713895,0.06110923,-0.03
 908809,-0.12006554,0.12302488,-0.00821230,-0.01064056,0.02476872,0.004
 05953,0.00889218,-0.01349123,0.04074513,0.12072506,0.06770245,0.123024
 87,-0.26212443,0.00005375,-0.00221401,0.00238132,0.00713895,0.01349124
 ,-0.01715156,-0.07057297,-0.13067184,0.27161387,-0.03978351,0.00000027
 ,0.,-0.02009380,-0.00615113,0.,-0.02009389,0.00307599,0.00532734,-0.02
 009389,0.00307599,-0.00532734,0.11172866,0.00000033,-0.02471137,0.,0.0
 1446316,0.00640549,0.,-0.00723116,0.00152065,0.00282025,-0.00723116,0.
 00152065,-0.00282025,-0.00000126,0.01409056,0.,0.,-0.02471133,0.,0.,-0
 .00010772,-0.01252517,0.00282048,0.00477724,0.01252517,-0.00282048,0.0
 0477724,0.,0.,0.01409058,0.00673729,-0.00000001,0.,-0.00283964,0.00116
 053,0.,-0.00283967,-0.00058023,-0.00100502,-0.00283967,-0.00058023,0.0
 0100502,-0.01166369,0.00000013,0.,0.01344537,-0.00000019,-0.00196020,0
 .,0.00021375,0.00097150,0.,-0.00010681,-0.00043169,0.00081017,-0.00010
 681,-0.00043169,-0.00081017,0.00000018,0.00117405,0.,-0.00000015,0.000
 67803,0.,0.,-0.00196028,0.,0.,-0.00089943,-0.00018505,0.00081016,0.000
 50380,0.00018505,-0.00081016,0.00050380,0.,0.,0.00117405,0.,0.,0.00067
 803\\-0.00019064,0.,0.,0.00004283,0.00000491,0.,0.00004283,-0.00000246
 ,-0.00000425,0.00004283,-0.00000246,0.00000425,0.00007387,0.,0.,-0.000
 01173,0.,0.\\\@


 I DO NOT DEFINE TIME, SPACE, PLACE, AND MOTION, AS BEING WELL KNOWN TO ALL.
                                            -- NEWTON (1642-1726), PRINCIPIA
 Job cpu time:       0 days  0 hours  4 minutes  4.0 seconds.
 Elapsed time:       0 days  0 hours  0 minutes 10.8 seconds.
 File lengths (MBytes):  RWF=    332 Int=      0 D2E=      0 Chk=      8 Scr=      8
 Normal termination of Gaussian 16 at Thu Oct 17 18:29:13 2019.
