 Entering Gaussian System, Link 0=g16
 Input=R_def2tzvp.gjf
 Output=R_def2tzvp.log
 Initial command:
 /home/soft/g16/l1.exe "/tmp/gaussian/Gau-5876.inp" -scrdir="/tmp/gaussian/"
 Entering Link 1 = /home/soft/g16/l1.exe PID=      5877.
  
 Copyright (c) 1988,1990,1992,1993,1995,1998,2003,2009,2016,
            Gaussian, Inc.  All Rights Reserved.
  
 This is part of the Gaussian(R) 16 program.  It is based on
 the Gaussian(R) 09 system (copyright 2009, Gaussian, Inc.),
 the Gaussian(R) 03 system (copyright 2003, Gaussian, Inc.),
 the Gaussian(R) 98 system (copyright 1998, Gaussian, Inc.),
 the Gaussian(R) 94 system (copyright 1995, Gaussian, Inc.),
 the Gaussian 92(TM) system (copyright 1992, Gaussian, Inc.),
 the Gaussian 90(TM) system (copyright 1990, Gaussian, Inc.),
 the Gaussian 88(TM) system (copyright 1988, Gaussian, Inc.),
 the Gaussian 86(TM) system (copyright 1986, Carnegie Mellon
 University), and the Gaussian 82(TM) system (copyright 1983,
 Carnegie Mellon University). Gaussian is a federally registered
 trademark of Gaussian, Inc.
  
 This software contains proprietary and confidential information,
 including trade secrets, belonging to Gaussian, Inc.
  
 This software is provided under written license and may be
 used, copied, transmitted, or stored only in accord with that
 written license.
  
 The following legend is applicable only to US Government
 contracts under FAR:
  
                    RESTRICTED RIGHTS LEGEND
  
 Use, reproduction and disclosure by the US Government is
 subject to restrictions as set forth in subparagraphs (a)
 and (c) of the Commercial Computer Software - Restricted
 Rights clause in FAR 52.227-19.
  
 Gaussian, Inc.
 340 Quinnipiac St., Bldg. 40, Wallingford CT 06492
  
  
 ---------------------------------------------------------------
 Warning -- This program may not be used in any manner that
 competes with the business of Gaussian, Inc. or will provide
 assistance to any competitor of Gaussian, Inc.  The licensee
 of this program is prohibited from giving any competitor of
 Gaussian, Inc. access to this program.  By using this program,
 the user acknowledges that Gaussian, Inc. is engaged in the
 business of creating and licensing software in the field of
 computational chemistry and represents and warrants to the
 licensee that it is not a competitor of Gaussian, Inc. and that
 it will not use this program in any manner prohibited above.
 ---------------------------------------------------------------
  

 Cite this work as:
 Gaussian 16, Revision A.03,
 M. J. Frisch, G. W. Trucks, H. B. Schlegel, G. E. Scuseria, 
 M. A. Robb, J. R. Cheeseman, G. Scalmani, V. Barone, 
 G. A. Petersson, H. Nakatsuji, X. Li, M. Caricato, A. V. Marenich, 
 J. Bloino, B. G. Janesko, R. Gomperts, B. Mennucci, H. P. Hratchian, 
 J. V. Ortiz, A. F. Izmaylov, J. L. Sonnenberg, D. Williams-Young, 
 F. Ding, F. Lipparini, F. Egidi, J. Goings, B. Peng, A. Petrone, 
 T. Henderson, D. Ranasinghe, V. G. Zakrzewski, J. Gao, N. Rega, 
 G. Zheng, W. Liang, M. Hada, M. Ehara, K. Toyota, R. Fukuda, 
 J. Hasegawa, M. Ishida, T. Nakajima, Y. Honda, O. Kitao, H. Nakai, 
 T. Vreven, K. Throssell, J. A. Montgomery, Jr., J. E. Peralta, 
 F. Ogliaro, M. J. Bearpark, J. J. Heyd, E. N. Brothers, K. N. Kudin, 
 V. N. Staroverov, T. A. Keith, R. Kobayashi, J. Normand, 
 K. Raghavachari, A. P. Rendell, J. C. Burant, S. S. Iyengar, 
 J. Tomasi, M. Cossi, J. M. Millam, M. Klene, C. Adamo, R. Cammi, 
 J. W. Ochterski, R. L. Martin, K. Morokuma, O. Farkas, 
 J. B. Foresman, and D. J. Fox, Gaussian, Inc., Wallingford CT, 2016.
 
 ******************************************
 Gaussian 16:  ES64L-G16RevA.03 25-Dec-2016
                17-Oct-2019 
 ******************************************
 %chk=R_d.chk
 %nproc=24
 Will use up to   24 processors via shared memory.
 -------------------------------------------
 #p b3lyp/def2tzvp em=gd3bj opt=calcall freq
 -------------------------------------------
 1/10=4,18=20,19=15,26=3,38=1/1,3;
 2/9=110,12=2,17=6,18=5,40=1/2;
 3/5=44,7=101,11=2,25=1,30=1,71=2,74=-5,124=41,140=1/1,2,3;
 4//1;
 5/5=2,38=5/2;
 8/6=4,10=90,11=11/1;
 11/6=1,8=1,9=11,15=111,16=1/1,2,10;
 10/6=1/2;
 6/7=2,8=2,9=2,10=2,18=1,28=1/1;
 7/10=1,25=1/1,2,3,16;
 1/10=4,18=20,19=15,26=3/3(3);
 2/9=110/2;
 7/8=1,9=1,25=1,44=-1/16;
 99//99;
 2/9=110/2;
 3/5=44,7=101,11=2,25=1,30=1,71=2,74=-5,124=41,140=1/1,2,3;
 4/5=5,16=3,69=1/1;
 5/5=2,38=5/2;
 8/6=4,10=90,11=11/1;
 11/6=1,8=1,9=11,15=111,16=1/1,2,10;
 10/6=1/2;
 7/10=1,25=1/1,2,3,16;
 1/10=4,18=20,19=15,26=3/3(-8);
 2/9=110/2;
 6/7=2,8=2,9=2,10=2,18=1,19=2,28=1/1;
 7/8=1,9=1,25=1,44=-1/16;
 99//99;
 Leave Link    1 at Thu Oct 17 18:27:41 2019, MaxMem=           0 cpu:               2.1 elap:               0.1
 (Enter /home/soft/g16/l101.exe)
 -------------------
 Title Card Required
 -------------------
 Symbolic Z-matrix:
 Charge = -1 Multiplicity = 1
 C                    -0.98191  -0.83979   0. 
 H                    -0.62526  -1.8486    0. 
 H                    -0.62524  -0.3354    0.87365 
 H                    -0.62524  -0.3354   -0.87365 
 Cl                   -2.74191  -0.83977   0. 
 Br                    0.84094  -0.83982   0. 
 
 ITRead=  0  0  0  0  0  0
 MicOpt= -1 -1 -1 -1 -1 -1
 NAtoms=      6 NQM=        6 NQMF=       0 NMMI=      0 NMMIF=      0
                NMic=       0 NMicF=      0.
                    Isotopes and Nuclear Properties:
 (Nuclear quadrupole moments (NQMom) in fm**2, nuclear magnetic moments (NMagM)
  in nuclear magnetons)

  Atom         1           2           3           4           5           6
 IAtWgt=          12           1           1           1          35          79
 AtmWgt=  12.0000000   1.0078250   1.0078250   1.0078250  34.9688527  78.9183361
 NucSpn=           0           1           1           1           3           3
 AtZEff=  -0.0000000  -0.0000000  -0.0000000  -0.0000000  -0.0000000  -0.0000000
 NQMom=    0.0000000   0.0000000   0.0000000   0.0000000  -8.1650000  31.3000000
 NMagM=    0.0000000   2.7928460   2.7928460   2.7928460   0.8218740   2.1063990
 AtZNuc=   6.0000000   1.0000000   1.0000000   1.0000000  17.0000000  35.0000000
 Leave Link  101 at Thu Oct 17 18:27:41 2019, MaxMem=   280000000 cpu:               4.5 elap:               0.2
 (Enter /home/soft/g16/l103.exe)

 GradGradGradGradGradGradGradGradGradGradGradGradGradGradGradGradGradGrad
 Berny optimization.
 Initialization pass.
                           ----------------------------
                           !    Initial Parameters    !
                           ! (Angstroms and Degrees)  !
 --------------------------                            --------------------------
 ! Name  Definition              Value          Derivative Info.                !
 --------------------------------------------------------------------------------
 ! R1    R(1,2)                  1.07           calculate D2E/DX2 analytically  !
 ! R2    R(1,3)                  1.07           calculate D2E/DX2 analytically  !
 ! R3    R(1,4)                  1.07           calculate D2E/DX2 analytically  !
 ! R4    R(1,5)                  1.76           calculate D2E/DX2 analytically  !
 ! R5    R(1,6)                  1.8229         calculate D2E/DX2 analytically  !
 ! A1    A(2,1,3)              109.4712         calculate D2E/DX2 analytically  !
 ! A2    A(2,1,4)              109.4712         calculate D2E/DX2 analytically  !
 ! A3    A(2,1,5)              109.4712         calculate D2E/DX2 analytically  !
 ! A4    A(2,1,6)               70.5288         calculate D2E/DX2 analytically  !
 ! A5    A(3,1,4)              109.4713         calculate D2E/DX2 analytically  !
 ! A6    A(3,1,5)              109.4712         calculate D2E/DX2 analytically  !
 ! A7    A(3,1,6)               70.5288         calculate D2E/DX2 analytically  !
 ! A8    A(4,1,5)              109.4712         calculate D2E/DX2 analytically  !
 ! A9    A(4,1,6)               70.5288         calculate D2E/DX2 analytically  !
 ! A10   L(5,1,6,2,-1)         180.0            calculate D2E/DX2 analytically  !
 ! A11   L(5,1,6,2,-2)         180.0            calculate D2E/DX2 analytically  !
 ! D1    D(2,1,4,3)           -120.0            calculate D2E/DX2 analytically  !
 ! D2    D(2,1,5,3)            120.0            calculate D2E/DX2 analytically  !
 ! D3    D(2,1,6,3)           -120.0            calculate D2E/DX2 analytically  !
 ! D4    D(2,1,5,4)           -120.0            calculate D2E/DX2 analytically  !
 ! D5    D(2,1,6,4)            120.0            calculate D2E/DX2 analytically  !
 ! D6    D(3,1,5,4)            120.0            calculate D2E/DX2 analytically  !
 ! D7    D(3,1,6,4)           -120.0            calculate D2E/DX2 analytically  !
 --------------------------------------------------------------------------------
 Trust Radius=3.00D-01 FncErr=1.00D-07 GrdErr=1.00D-06 EigMax=2.50D+02 EigMin=1.00D-04
 Number of steps in this run=     33 maximum allowed number of steps=    100.
 GradGradGradGradGradGradGradGradGradGradGradGradGradGradGradGradGradGrad

 Leave Link  103 at Thu Oct 17 18:27:41 2019, MaxMem=   280000000 cpu:               0.7 elap:               0.1
 (Enter /home/soft/g16/l202.exe)
                          Input orientation:                          
 ---------------------------------------------------------------------
 Center     Atomic      Atomic             Coordinates (Angstroms)
 Number     Number       Type             X           Y           Z
 ---------------------------------------------------------------------
      1          6           0       -0.981912   -0.839793    0.000000
      2          1           0       -0.625258   -1.848603    0.000000
      3          1           0       -0.625239   -0.335395    0.873652
      4          1           0       -0.625239   -0.335395   -0.873652
      5         17           0       -2.741912   -0.839772    0.000000
      6         35           0        0.840938   -0.839816    0.000000
 ---------------------------------------------------------------------
                    Distance matrix (angstroms):
                    1          2          3          4          5
     1  C    0.000000
     2  H    1.070000   0.000000
     3  H    1.070000   1.747302   0.000000
     4  H    1.070000   1.747302   1.747303   0.000000
     5  Cl   1.760000   2.344774   2.344774   2.344774   0.000000
     6  Br   1.822850   1.779714   1.779714   1.779714   3.582850
                    6
     6  Br   0.000000
 Stoichiometry    CH3BrCl(1-)
 Framework group  C3V[C3(ClCBr),3SGV(H)]
 Deg. of freedom     4
 Full point group                 C3V     NOp   6
 Largest Abelian subgroup         CS      NOp   2
 Largest concise Abelian subgroup CS      NOp   2
                         Standard orientation:                         
 ---------------------------------------------------------------------
 Center     Atomic      Atomic             Coordinates (Angstroms)
 Number     Number       Type             X           Y           Z
 ---------------------------------------------------------------------
      1          6           0        0.000000   -0.000000   -0.572947
      2          1           0       -0.000000    1.008806   -0.216280
      3          1           0        0.873651   -0.504403   -0.216280
      4          1           0       -0.873651   -0.504403   -0.216280
      5         17           0        0.000000   -0.000000   -2.332947
      6         35           0       -0.000000    0.000000    1.249903
 ---------------------------------------------------------------------
 Rotational constants (GHZ):         164.2463900           1.5866064           1.5866064
 Leave Link  202 at Thu Oct 17 18:27:41 2019, MaxMem=   280000000 cpu:               0.3 elap:               0.0
 (Enter /home/soft/g16/l301.exe)
 Standard basis: def2TZVP (5D, 7F)
 Ernie: Thresh=  0.10000D-02 Tol=  0.10000D-05 Strict=F.
 There are   103 symmetry adapted cartesian basis functions of A'  symmetry.
 There are    48 symmetry adapted cartesian basis functions of A"  symmetry.
 There are    89 symmetry adapted basis functions of A'  symmetry.
 There are    45 symmetry adapted basis functions of A"  symmetry.
   134 basis functions,   258 primitive gaussians,   151 cartesian basis functions
    31 alpha electrons       31 beta electrons
       nuclear repulsion energy       232.0525268776 Hartrees.
 IExCor=  402 DFT=T Ex+Corr=B3LYP ExCW=0 ScaHFX=  0.200000
 ScaDFX=  0.800000  0.720000  1.000000  0.810000 ScalE2=  1.000000  1.000000
 IRadAn=      5 IRanWt=     -1 IRanGd=            0 ICorTp=0 IEmpDi=141
 NAtoms=    6 NActive=    6 NUniq=    4 SFac= 2.25D+00 NAtFMM=   60 NAOKFM=F Big=F
 Integral buffers will be    131072 words long.
 Raffenetti 2 integral format.
 Two-electron integral symmetry is turned on.
 R6Disp:  Grimme-D3(BJ) Dispersion energy=       -0.0085880412 Hartrees.
 Nuclear repulsion after empirical dispersion term =      232.0439388364 Hartrees.
 Leave Link  301 at Thu Oct 17 18:27:41 2019, MaxMem=   280000000 cpu:               2.0 elap:               0.1
 (Enter /home/soft/g16/l302.exe)
 NPDir=0 NMtPBC=     1 NCelOv=     1 NCel=       1 NClECP=     1 NCelD=      1
         NCelK=      1 NCelE2=     1 NClLst=     1 CellRange=     0.0.
 One-electron integrals computed using PRISM.
 One-electron integral symmetry used in STVInt
   6 Symmetry operations used in ECPInt.
 ECPInt:  NShTT=    1378 NPrTT=    5593 LenC2=    1346 LenP2D=    4493.
 LDataN:  DoStor=T MaxTD1= 6 Len=  172
 NBasis=   134 RedAO= T EigKep=  9.51D-04  NBF=    89    45
 NBsUse=   134 1.00D-06 EigRej= -1.00D+00 NBFU=    89    45
 Precomputing XC quadrature grid using
 IXCGrd= 4 IRadAn=           5 IRanWt=          -1 IRanGd=           0 AccXCQ= 0.00D+00.
 Generated NRdTot=       0 NPtTot=           0 NUsed=           0 NTot=          32
 NSgBfM=   151   151   151   151   151 MxSgAt=     6 MxSgA2=     6.
 Leave Link  302 at Thu Oct 17 18:27:41 2019, MaxMem=   280000000 cpu:               5.2 elap:               0.3
 (Enter /home/soft/g16/l303.exe)
 DipDrv:  MaxL=1.
 Leave Link  303 at Thu Oct 17 18:27:41 2019, MaxMem=   280000000 cpu:               0.7 elap:               0.1
 (Enter /home/soft/g16/l401.exe)
 ExpMin= 9.52D-02 ExpMax= 5.65D+05 ExpMxC= 5.46D+03 IAcc=3 IRadAn=         5 AccDes= 0.00D+00
 Harris functional with IExCor=  402 and IRadAn=       5 diagonalized for initial guess.
 HarFok:  IExCor=  402 AccDes= 0.00D+00 IRadAn=         5 IDoV= 1 UseB2=F ITyADJ=14
 ICtDFT=  3500011 ScaDFX=  1.000000  1.000000  1.000000  1.000000
 FoFCou: FMM=F IPFlag=           0 FMFlag=      100000 FMFlg1=           0
         NFxFlg=           0 DoJE=T BraDBF=F KetDBF=T FulRan=T
         wScrn=  0.000000 ICntrl=       500 IOpCl=  0 I1Cent=   200000004 NGrid=           0
         NMat0=    1 NMatS0=      1 NMatT0=    0 NMatD0=    1 NMtDS0=    0 NMtDT0=    0
 Petite list used in FoFCou.
 Harris En= -3074.33353380137    
 JPrj=0 DoOrth=F DoCkMO=F.
 Initial guess orbital symmetries:
       Occupied  (A1) (A1) (A1) (A1) (E) (E) (A1) (A1) (A1) (A1)
                 (E) (E) (A1) (E) (E) (A1) (E) (E) (E) (E) (A1)
                 (A1) (A1) (E) (E) (A1) (E) (E) (E) (E) (A1)
       Virtual   (A1) (A1) (E) (E) (A1) (E) (E) (E) (E) (A1) (E)
                 (E) (E) (E) (A1) (E) (E) (A1) (E) (E) (A1) (E)
                 (E) (A1) (E) (E) (A1) (E) (E) (A1) (E) (E) (A1)
                 (A1) (E) (E) (E) (E) (A1) (A2) (E) (E) (A1) (A1)
                 (E) (E) (A2) (E) (E) (A1) (E) (E) (E) (E) (A1)
                 (E) (E) (A1) (E) (E) (A1) (A2) (A1) (E) (E) (E)
                 (E) (A1) (E) (E) (A1) (E) (E) (E) (E) (A1) (E)
                 (E) (A1) (E) (E) (A1) (A2) (E) (E) (E) (E) (A1)
                 (E) (E) (E) (E) (A1) (E) (E) (A1) (A1) (A1) (E)
                 (E) (A1) (A1) (A1)
 The electronic state of the initial guess is 1-A1.
 Leave Link  401 at Thu Oct 17 18:27:42 2019, MaxMem=   280000000 cpu:               6.8 elap:               0.4
 (Enter /home/soft/g16/l502.exe)
 Keep R1 ints in memory in symmetry-blocked form, NReq=64335426.
 FoFCou: FMM=F IPFlag=           0 FMFlag=           0 FMFlg1=           0
         NFxFlg=           0 DoJE=F BraDBF=F KetDBF=F FulRan=T
         wScrn=  0.000000 ICntrl=       600 IOpCl=  0 I1Cent=           0 NGrid=           0
         NMat0=    1 NMatS0=   9045 NMatT0=    0 NMatD0=    1 NMtDS0=    0 NMtDT0=    0
 Petite list used in FoFCou.
 Closed shell SCF:
 Using DIIS extrapolation, IDIIS=  1040.
 NGot=   280000000 LenX=   259203668 LenY=   259180426
 Requested convergence on RMS density matrix=1.00D-08 within 128 cycles.
 Requested convergence on MAX density matrix=1.00D-06.
 Requested convergence on             energy=1.00D-06.
 No special actions if energy rises.
 Integral accuracy reduced to 1.0D-05 until final iterations.

 Cycle   1  Pass 0  IDiag  1:
 E= -3073.99396401748    
 DIIS: error= 6.10D-02 at cycle   1 NSaved=   1.
 NSaved= 1 IEnMin= 1 EnMin= -3073.99396401748     IErMin= 1 ErrMin= 6.10D-02
 ErrMax= 6.10D-02  0.00D+00 EMaxC= 1.00D-01 BMatC= 2.71D-01 BMatP= 2.71D-01
 IDIUse=3 WtCom= 3.90D-01 WtEn= 6.10D-01
 Coeff-Com:  0.100D+01
 Coeff-En:   0.100D+01
 Coeff:      0.100D+01
 Gap=     0.188 Goal=   None    Shift=    0.000
 GapD=    0.188 DampG=1.000 DampE=0.500 DampFc=0.5000 IDamp=-1.
 Damping current iteration by 5.00D-01
 RMSDP=1.36D-02 MaxDP=2.68D-01              OVMax= 2.98D-01

 Cycle   2  Pass 0  IDiag  1:
 E= -3074.06043623781     Delta-E=       -0.066472220328 Rises=F Damp=T
 DIIS: error= 2.63D-02 at cycle   2 NSaved=   2.
 NSaved= 2 IEnMin= 2 EnMin= -3074.06043623781     IErMin= 2 ErrMin= 2.63D-02
 ErrMax= 2.63D-02  0.00D+00 EMaxC= 1.00D-01 BMatC= 3.19D-02 BMatP= 2.71D-01
 IDIUse=3 WtCom= 7.37D-01 WtEn= 2.63D-01
 Coeff-Com: -0.696D-01 0.107D+01
 Coeff-En:   0.150D+00 0.850D+00
 Coeff:     -0.118D-01 0.101D+01
 Gap=     0.172 Goal=   None    Shift=    0.000
 RMSDP=2.35D-03 MaxDP=4.42D-02 DE=-6.65D-02 OVMax= 1.60D-01

 Cycle   3  Pass 0  IDiag  1:
 E= -3074.13656924687     Delta-E=       -0.076133009065 Rises=F Damp=F
 DIIS: error= 8.54D-03 at cycle   3 NSaved=   3.
 NSaved= 3 IEnMin= 3 EnMin= -3074.13656924687     IErMin= 3 ErrMin= 8.54D-03
 ErrMax= 8.54D-03  0.00D+00 EMaxC= 1.00D-01 BMatC= 2.12D-02 BMatP= 3.19D-02
 IDIUse=3 WtCom= 9.15D-01 WtEn= 8.54D-02
 Coeff-Com: -0.105D+00 0.527D+00 0.578D+00
 Coeff-En:   0.000D+00 0.000D+00 0.100D+01
 Coeff:     -0.957D-01 0.482D+00 0.614D+00
 Gap=     0.168 Goal=   None    Shift=    0.000
 RMSDP=1.31D-03 MaxDP=3.74D-02 DE=-7.61D-02 OVMax= 4.65D-02

 Cycle   4  Pass 0  IDiag  1:
 E= -3074.15276890520     Delta-E=       -0.016199658328 Rises=F Damp=F
 DIIS: error= 2.52D-03 at cycle   4 NSaved=   4.
 NSaved= 4 IEnMin= 4 EnMin= -3074.15276890520     IErMin= 4 ErrMin= 2.52D-03
 ErrMax= 2.52D-03  0.00D+00 EMaxC= 1.00D-01 BMatC= 1.18D-03 BMatP= 2.12D-02
 IDIUse=3 WtCom= 9.75D-01 WtEn= 2.52D-02
 Coeff-Com: -0.185D-01 0.655D-01 0.221D+00 0.732D+00
 Coeff-En:   0.000D+00 0.000D+00 0.000D+00 0.100D+01
 Coeff:     -0.180D-01 0.638D-01 0.215D+00 0.739D+00
 Gap=     0.166 Goal=   None    Shift=    0.000
 RMSDP=4.85D-04 MaxDP=1.15D-02 DE=-1.62D-02 OVMax= 1.83D-02

 Cycle   5  Pass 0  IDiag  1:
 E= -3074.15357206134     Delta-E=       -0.000803156139 Rises=F Damp=F
 DIIS: error= 7.33D-04 at cycle   5 NSaved=   5.
 NSaved= 5 IEnMin= 5 EnMin= -3074.15357206134     IErMin= 5 ErrMin= 7.33D-04
 ErrMax= 7.33D-04  0.00D+00 EMaxC= 1.00D-01 BMatC= 2.46D-04 BMatP= 1.18D-03
 IDIUse=3 WtCom= 9.93D-01 WtEn= 7.33D-03
 Coeff-Com: -0.120D-01 0.275D-01 0.124D+00 0.454D+00 0.406D+00
 Coeff-En:   0.000D+00 0.000D+00 0.000D+00 0.146D+00 0.854D+00
 Coeff:     -0.119D-01 0.273D-01 0.123D+00 0.452D+00 0.409D+00
 Gap=     0.167 Goal=   None    Shift=    0.000
 RMSDP=1.77D-04 MaxDP=3.64D-03 DE=-8.03D-04 OVMax= 7.35D-03

 Cycle   6  Pass 0  IDiag  1:
 E= -3074.15380691144     Delta-E=       -0.000234850096 Rises=F Damp=F
 DIIS: error= 7.94D-05 at cycle   6 NSaved=   6.
 NSaved= 6 IEnMin= 6 EnMin= -3074.15380691144     IErMin= 6 ErrMin= 7.94D-05
 ErrMax= 7.94D-05  0.00D+00 EMaxC= 1.00D-01 BMatC= 7.67D-07 BMatP= 2.46D-04
 IDIUse=1 WtCom= 1.00D+00 WtEn= 0.00D+00
 Coeff-Com: -0.143D-02 0.173D-02 0.156D-01 0.605D-01 0.757D-01 0.848D+00
 Coeff:     -0.143D-02 0.173D-02 0.156D-01 0.605D-01 0.757D-01 0.848D+00
 Gap=     0.167 Goal=   None    Shift=    0.000
 RMSDP=1.70D-05 MaxDP=4.61D-04 DE=-2.35D-04 OVMax= 6.54D-04

 Cycle   7  Pass 0  IDiag  1:
 E= -3074.15380751510     Delta-E=       -0.000000603667 Rises=F Damp=F
 DIIS: error= 3.49D-05 at cycle   7 NSaved=   7.
 NSaved= 7 IEnMin= 7 EnMin= -3074.15380751510     IErMin= 7 ErrMin= 3.49D-05
 ErrMax= 3.49D-05  0.00D+00 EMaxC= 1.00D-01 BMatC= 1.38D-07 BMatP= 7.67D-07
 IDIUse=1 WtCom= 1.00D+00 WtEn= 0.00D+00
 Coeff-Com:  0.184D-03-0.710D-03-0.290D-03 0.131D-02 0.655D-02 0.306D+00
 Coeff-Com:  0.687D+00
 Coeff:      0.184D-03-0.710D-03-0.290D-03 0.131D-02 0.655D-02 0.306D+00
 Coeff:      0.687D+00
 Gap=     0.167 Goal=   None    Shift=    0.000
 RMSDP=9.87D-06 MaxDP=2.29D-04 DE=-6.04D-07 OVMax= 2.30D-04

 Initial convergence to 1.0D-05 achieved.  Increase integral accuracy.
 Cycle   8  Pass 1  IDiag  1:
 E= -3074.15382829072     Delta-E=       -0.000020775618 Rises=F Damp=F
 DIIS: error= 8.48D-06 at cycle   1 NSaved=   1.
 NSaved= 1 IEnMin= 1 EnMin= -3074.15382829072     IErMin= 1 ErrMin= 8.48D-06
 ErrMax= 8.48D-06  0.00D+00 EMaxC= 1.00D-01 BMatC= 9.99D-09 BMatP= 9.99D-09
 IDIUse=1 WtCom= 1.00D+00 WtEn= 0.00D+00
 Coeff-Com:  0.100D+01
 Coeff:      0.100D+01
 Gap=     0.167 Goal=   None    Shift=    0.000
 RMSDP=9.87D-06 MaxDP=2.29D-04 DE=-2.08D-05 OVMax= 5.62D-05

 Cycle   9  Pass 1  IDiag  1:
 E= -3074.15382829313     Delta-E=       -0.000000002410 Rises=F Damp=F
 DIIS: error= 9.97D-06 at cycle   2 NSaved=   2.
 NSaved= 2 IEnMin= 2 EnMin= -3074.15382829313     IErMin= 1 ErrMin= 8.48D-06
 ErrMax= 9.97D-06  0.00D+00 EMaxC= 1.00D-01 BMatC= 1.05D-08 BMatP= 9.99D-09
 IDIUse=1 WtCom= 1.00D+00 WtEn= 0.00D+00
 Coeff-Com:  0.506D+00 0.494D+00
 Coeff:      0.506D+00 0.494D+00
 Gap=     0.167 Goal=   None    Shift=    0.000
 RMSDP=1.44D-06 MaxDP=3.38D-05 DE=-2.41D-09 OVMax= 3.61D-05

 Cycle  10  Pass 1  IDiag  1:
 E= -3074.15382830140     Delta-E=       -0.000000008265 Rises=F Damp=F
 DIIS: error= 5.22D-07 at cycle   3 NSaved=   3.
 NSaved= 3 IEnMin= 3 EnMin= -3074.15382830140     IErMin= 3 ErrMin= 5.22D-07
 ErrMax= 5.22D-07  0.00D+00 EMaxC= 1.00D-01 BMatC= 7.91D-11 BMatP= 9.99D-09
 IDIUse=1 WtCom= 1.00D+00 WtEn= 0.00D+00
 Coeff-Com:  0.991D-01 0.114D+00 0.787D+00
 Coeff:      0.991D-01 0.114D+00 0.787D+00
 Gap=     0.167 Goal=   None    Shift=    0.000
 RMSDP=5.40D-07 MaxDP=1.43D-05 DE=-8.27D-09 OVMax= 1.24D-05

 Cycle  11  Pass 1  IDiag  1:
 E= -3074.15382830144     Delta-E=       -0.000000000046 Rises=F Damp=F
 DIIS: error= 4.34D-07 at cycle   4 NSaved=   4.
 NSaved= 4 IEnMin= 4 EnMin= -3074.15382830144     IErMin= 4 ErrMin= 4.34D-07
 ErrMax= 4.34D-07  0.00D+00 EMaxC= 1.00D-01 BMatC= 5.51D-11 BMatP= 7.91D-11
 IDIUse=1 WtCom= 1.00D+00 WtEn= 0.00D+00
 Coeff-Com:  0.579D-02 0.178D-01 0.462D+00 0.514D+00
 Coeff:      0.579D-02 0.178D-01 0.462D+00 0.514D+00
 Gap=     0.167 Goal=   None    Shift=    0.000
 RMSDP=1.46D-07 MaxDP=4.03D-06 DE=-4.59D-11 OVMax= 3.28D-06

 Cycle  12  Pass 1  IDiag  1:
 E= -3074.15382830149     Delta-E=       -0.000000000044 Rises=F Damp=F
 DIIS: error= 9.00D-08 at cycle   5 NSaved=   5.
 NSaved= 5 IEnMin= 5 EnMin= -3074.15382830149     IErMin= 5 ErrMin= 9.00D-08
 ErrMax= 9.00D-08  0.00D+00 EMaxC= 1.00D-01 BMatC= 2.18D-12 BMatP= 5.51D-11
 IDIUse=1 WtCom= 1.00D+00 WtEn= 0.00D+00
 Coeff-Com: -0.140D-01-0.665D-02 0.119D+00 0.178D+00 0.724D+00
 Coeff:     -0.140D-01-0.665D-02 0.119D+00 0.178D+00 0.724D+00
 Gap=     0.167 Goal=   None    Shift=    0.000
 RMSDP=6.82D-08 MaxDP=2.10D-06 DE=-4.41D-11 OVMax= 1.03D-06

 Cycle  13  Pass 1  IDiag  1:
 E= -3074.15382830150     Delta-E=       -0.000000000010 Rises=F Damp=F
 DIIS: error= 1.66D-08 at cycle   6 NSaved=   6.
 NSaved= 6 IEnMin= 6 EnMin= -3074.15382830150     IErMin= 6 ErrMin= 1.66D-08
 ErrMax= 1.66D-08  0.00D+00 EMaxC= 1.00D-01 BMatC= 5.42D-14 BMatP= 2.18D-12
 IDIUse=1 WtCom= 1.00D+00 WtEn= 0.00D+00
 Coeff-Com: -0.299D-02-0.113D-02-0.326D-02 0.916D-02 0.759D-01 0.922D+00
 Coeff:     -0.299D-02-0.113D-02-0.326D-02 0.916D-02 0.759D-01 0.922D+00
 Gap=     0.167 Goal=   None    Shift=    0.000
 RMSDP=2.90D-08 MaxDP=8.91D-07 DE=-1.05D-11 OVMax= 4.73D-07

 Cycle  14  Pass 1  IDiag  1:
 E= -3074.15382830152     Delta-E=       -0.000000000023 Rises=F Damp=F
 DIIS: error= 5.86D-09 at cycle   7 NSaved=   7.
 NSaved= 7 IEnMin= 7 EnMin= -3074.15382830152     IErMin= 7 ErrMin= 5.86D-09
 ErrMax= 5.86D-09  0.00D+00 EMaxC= 1.00D-01 BMatC= 4.48D-15 BMatP= 5.42D-14
 IDIUse=1 WtCom= 1.00D+00 WtEn= 0.00D+00
 Coeff-Com: -0.145D-03-0.416D-04-0.434D-02-0.728D-02-0.173D-01 0.172D+00
 Coeff-Com:  0.857D+00
 Coeff:     -0.145D-03-0.416D-04-0.434D-02-0.728D-02-0.173D-01 0.172D+00
 Coeff:      0.857D+00
 Gap=     0.167 Goal=   None    Shift=    0.000
 RMSDP=5.72D-09 MaxDP=1.79D-07 DE=-2.27D-11 OVMax= 8.60D-08

 SCF Done:  E(RB3LYP) =  -3074.15382830     A.U. after   14 cycles
            NFock= 14  Conv=0.57D-08     -V/T= 2.0009
 KE= 3.071440495812D+03 PE=-7.819006686586D+03 EE= 1.441368423636D+03
 Leave Link  502 at Thu Oct 17 18:27:44 2019, MaxMem=   280000000 cpu:              36.0 elap:               1.8
 (Enter /home/soft/g16/l801.exe)
 DoSCS=F DFT=T ScalE2(SS,OS)=  1.000000  1.000000
 Range of M.O.s used for correlation:     1   134
 NBasis=   134 NAE=    31 NBE=    31 NFC=     0 NFV=     0
 NROrb=    134 NOA=    31 NOB=    31 NVA=   103 NVB=   103

 **** Warning!!: The largest alpha MO coefficient is  0.16678553D+02

 Leave Link  801 at Thu Oct 17 18:27:44 2019, MaxMem=   280000000 cpu:               0.7 elap:               0.0
 (Enter /home/soft/g16/l1101.exe)
 Using compressed storage, NAtomX=     6.
 Will process      7 centers per pass.
   6 Symmetry operations used in ECPInt.
 ECPInt:  NShTT=    1378 NPrTT=    5593 LenC2=    1346 LenP2D=    4493.
 LDataN:  DoStor=T MaxTD1= 7 Len=  274
 R6Disp: Adding Grimme-D3(BJ) dispersion energy 1st derivatives to the gradient.
 Leave Link 1101 at Thu Oct 17 18:27:44 2019, MaxMem=   280000000 cpu:               5.9 elap:               0.3
 (Enter /home/soft/g16/l1102.exe)
 Symmetrizing basis deriv contribution to polar:
 IMax=3 JMax=2 DiffMx= 0.00D+00
 Leave Link 1102 at Thu Oct 17 18:27:44 2019, MaxMem=   280000000 cpu:               1.1 elap:               0.1
 (Enter /home/soft/g16/l1110.exe)
 Forming Gx(P) for the SCF density, NAtomX=     6.
 Integral derivatives from FoFJK, PRISM(SPDF).
 Do as many integral derivatives as possible in FoFJK.
 G2DrvN: MDV=     279999420.
 G2DrvN: will do     7 centers at a time, making    1 passes.
 Calling FoFCou, ICntrl=  3107 FMM=F I1Cent=   0 AccDes= 0.00D+00.
 FoFJK:  IHMeth= 1 ICntrl=    3107 DoSepK=F KAlg= 0 I1Cent=           0 FoldK=F
 IRaf=         0 NMat=       1 IRICut=       1 DoRegI=T DoRafI=F ISym2E= 1 IDoP0=0 IntGTp=1.
 FoFCou: FMM=F IPFlag=           0 FMFlag=      100000 FMFlg1=           0
         NFxFlg=           0 DoJE=F BraDBF=F KetDBF=F FulRan=T
         wScrn=  0.000000 ICntrl=      3107 IOpCl=  0 I1Cent=           0 NGrid=           0
         NMat0=    1 NMatS0=      1 NMatT0=    0 NMatD0=    1 NMtDS0=    0 NMtDT0=    0
 Petite list used in FoFCou.
 End of G2Drv F.D. properties file   721 does not exist.
 End of G2Drv F.D. properties file   722 does not exist.
 End of G2Drv F.D. properties file   788 does not exist.
 Leave Link 1110 at Thu Oct 17 18:27:46 2019, MaxMem=   280000000 cpu:              37.3 elap:               1.6
 (Enter /home/soft/g16/l1002.exe)
 Minotr:  Closed shell wavefunction.
          IDoAtm=111111
          Direct CPHF calculation.
          Differentiating once with respect to electric field.
                with respect to dipole field.
          Differentiating once with respect to nuclear coordinates.
          Using symmetry in CPHF.
          Requested convergence is 1.0D-08 RMS, and 1.0D-07 maximum.
          Secondary convergence is 1.0D-12 RMS, and 1.0D-12 maximum.
          NewPWx=T KeepS1=F KeepF1=F KeepIn=T MapXYZ=F SortEE=F KeepMc=T.
         1761 words used for storage of precomputed grid.
 Keep R1 ints in memory in symmetry-blocked form, NReq=64256973.
 FoFCou: FMM=F IPFlag=           0 FMFlag=           0 FMFlg1=           0
         NFxFlg=           0 DoJE=F BraDBF=F KetDBF=F FulRan=T
         wScrn=  0.000000 ICntrl=       600 IOpCl=  0 I1Cent=           0 NGrid=           0
         NMat0=    1 NMatS0=   9045 NMatT0=    0 NMatD0=    1 NMtDS0=    0 NMtDT0=    0
 Petite list used in FoFCou.
          MDV=     280000000 using IRadAn=       1.
          Solving linear equations simultaneously, MaxMat=       0.
          There are    15 degrees of freedom in the 1st order CPHF.  IDoFFX=4 NUNeed=    15.
     15 vectors produced by pass  0 Test12= 2.13D-14 6.67D-09 XBig12= 1.40D+02 1.04D+01.
 AX will form    15 AO Fock derivatives at one time.
     15 vectors produced by pass  1 Test12= 2.13D-14 6.67D-09 XBig12= 2.58D+01 2.19D+00.
     15 vectors produced by pass  2 Test12= 2.13D-14 6.67D-09 XBig12= 1.10D+00 3.90D-01.
     15 vectors produced by pass  3 Test12= 2.13D-14 6.67D-09 XBig12= 3.02D-02 3.32D-02.
     15 vectors produced by pass  4 Test12= 2.13D-14 6.67D-09 XBig12= 5.18D-04 4.73D-03.
     15 vectors produced by pass  5 Test12= 2.13D-14 6.67D-09 XBig12= 2.66D-06 3.89D-04.
     10 vectors produced by pass  6 Test12= 2.13D-14 6.67D-09 XBig12= 5.53D-09 1.86D-05.
      3 vectors produced by pass  7 Test12= 2.13D-14 6.67D-09 XBig12= 4.76D-12 4.05D-07.
      1 vectors produced by pass  8 Test12= 2.13D-14 6.67D-09 XBig12= 5.85D-15 1.99D-08.
 InvSVY:  IOpt=1 It=  1 EMax= 8.77D-16
 Solved reduced A of dimension   104 with    15 vectors.
 FullF1:  Do perturbations      1 to      15.
 Isotropic polarizability for W=    0.000000       62.25 Bohr**3.
 End of Minotr F.D. properties file   721 does not exist.
 End of Minotr F.D. properties file   722 does not exist.
 End of Minotr F.D. properties file   788 does not exist.
 Leave Link 1002 at Thu Oct 17 18:27:50 2019, MaxMem=   280000000 cpu:              96.0 elap:               4.1
 (Enter /home/soft/g16/l601.exe)
 Copying SCF densities to generalized density rwf, IOpCl= 0 IROHF=0.

 **********************************************************************

            Population analysis using the SCF density.

 **********************************************************************

 Orbital symmetries:
       Occupied  (A1) (A1) (A1) (A1) (E) (E) (A1) (A1) (A1) (A1)
                 (E) (E) (A1) (E) (E) (A1) (E) (E) (E) (E) (A1)
                 (A1) (A1) (E) (E) (A1) (E) (E) (E) (E) (A1)
       Virtual   (A1) (E) (E) (A1) (A1) (E) (E) (A1) (E) (E) (A1)
                 (E) (E) (E) (E) (E) (E) (A1) (E) (E) (E) (E) (A1)
                 (A1) (E) (E) (A1) (E) (E) (A1) (E) (E) (A1) (A1)
                 (E) (E) (E) (E) (A1) (A2) (E) (E) (A1) (A1) (E)
                 (E) (A2) (E) (E) (A1) (E) (E) (E) (E) (A1) (E)
                 (E) (E) (E) (A1) (A1) (A2) (A1) (E) (E) (E) (E)
                 (A1) (E) (E) (A1) (E) (E) (E) (E) (A1) (E) (E)
                 (A1) (E) (E) (A1) (A2) (E) (E) (E) (E) (A1) (E)
                 (E) (E) (E) (A1) (E) (E) (A1) (A1) (A1) (E) (E)
                 (A1) (A1) (A1)
 The electronic state is 1-A1.
 Alpha  occ. eigenvalues -- -482.59975-101.27423 -62.25253 -56.06648 -56.06525
 Alpha  occ. eigenvalues --  -56.06525 -10.01555  -9.21102  -8.44881  -6.96957
 Alpha  occ. eigenvalues --   -6.96479  -6.96479  -6.27539  -6.26889  -6.26889
 Alpha  occ. eigenvalues --   -2.39131  -2.38912  -2.38912  -2.38385  -2.38385
 Alpha  occ. eigenvalues --   -0.70771  -0.60944  -0.41838  -0.31246  -0.31246
 Alpha  occ. eigenvalues --   -0.23951  -0.11536  -0.11536  -0.03933  -0.03933
 Alpha  occ. eigenvalues --    0.02521
 Alpha virt. eigenvalues --    0.19221   0.26311   0.26311   0.27839   0.33784
 Alpha virt. eigenvalues --    0.35082   0.35082   0.39495   0.44210   0.44210
 Alpha virt. eigenvalues --    0.50545   0.50561   0.50561   0.54433   0.54433
 Alpha virt. eigenvalues --    0.55191   0.55191   0.57389   0.64709   0.64709
 Alpha virt. eigenvalues --    0.66793   0.66793   0.68830   0.70563   0.76744
 Alpha virt. eigenvalues --    0.76744   0.91374   1.08653   1.08653   1.09868
 Alpha virt. eigenvalues --    1.14805   1.14805   1.26716   1.37643   1.48779
 Alpha virt. eigenvalues --    1.48779   1.54418   1.54418   1.56224   1.59306
 Alpha virt. eigenvalues --    1.60620   1.60620   1.70520   1.74463   1.80086
 Alpha virt. eigenvalues --    1.80086   1.82972   1.83773   1.83773   1.90926
 Alpha virt. eigenvalues --    1.95178   1.95178   1.96846   1.96846   2.00005
 Alpha virt. eigenvalues --    2.04679   2.04679   2.10554   2.10554   2.11260
 Alpha virt. eigenvalues --    2.26476   2.30080   2.30350   2.41514   2.41514
 Alpha virt. eigenvalues --    2.42647   2.42647   2.49300   2.51519   2.51519
 Alpha virt. eigenvalues --    2.72209   2.77510   2.77510   2.81632   2.81632
 Alpha virt. eigenvalues --    2.96920   3.07924   3.07924   3.13705   3.31034
 Alpha virt. eigenvalues --    3.31034   3.47900   3.53412   3.73918   3.73918
 Alpha virt. eigenvalues --    3.82940   3.82940   3.93352   4.25136   4.25136
 Alpha virt. eigenvalues --    4.40251   4.40251   4.42050   4.47426   4.47426
 Alpha virt. eigenvalues --    4.66519   4.82986   8.03359  10.95424  10.95424
 Alpha virt. eigenvalues --   11.48597  22.58238  25.68950
          Condensed to atoms (all electrons):
               1          2          3          4          5          6
     1  C    5.238034   0.620961   0.620961   0.620961  -0.224352  -0.676199
     2  H    0.620961   0.785828   0.055300   0.055300  -0.193725  -0.403043
     3  H    0.620961   0.055300   0.785828   0.055300  -0.193725  -0.403043
     4  H    0.620961   0.055300   0.055300   0.785828  -0.193725  -0.403043
     5  Cl  -0.224352  -0.193725  -0.193725  -0.193725  17.997186   0.246902
     6  Br  -0.676199  -0.403043  -0.403043  -0.403043   0.246902  37.237633
 Mulliken charges:
               1
     1  C   -0.200366
     2  H    0.079379
     3  H    0.079379
     4  H    0.079379
     5  Cl  -0.438562
     6  Br  -0.599208
 Sum of Mulliken charges =  -1.00000
 Mulliken charges with hydrogens summed into heavy atoms:
               1
     1  C    0.037770
     5  Cl  -0.438562
     6  Br  -0.599208
 APT charges:
               1
     1  C    1.353252
     2  H    0.009457
     3  H    0.009458
     4  H    0.009458
     5  Cl  -1.159238
     6  Br  -1.222388
 Sum of APT charges =  -1.00000
 APT charges with hydrogens summed into heavy atoms:
               1
     1  C    1.381625
     5  Cl  -1.159238
     6  Br  -1.222388
 Electronic spatial extent (au):  <R**2>=            658.8696
 Charge=             -1.0000 electrons
 Dipole moment (field-independent basis, Debye):
    X=              0.0000    Y=              0.0000    Z=              0.9390  Tot=              0.9390
 Quadrupole moment (field-independent basis, Debye-Ang):
   XX=            -42.4766   YY=            -42.4766   ZZ=            -69.3993
   XY=              0.0000   XZ=             -0.0000   YZ=              0.0000
 Traceless Quadrupole moment (field-independent basis, Debye-Ang):
   XX=              8.9742   YY=              8.9742   ZZ=            -17.9485
   XY=              0.0000   XZ=             -0.0000   YZ=              0.0000
 Octapole moment (field-independent basis, Debye-Ang**2):
  XXX=              0.0000  YYY=              0.5616  ZZZ=             54.7150  XYY=              0.0000
  XXY=             -0.5616  XXZ=              9.3552  XZZ=              0.0000  YZZ=              0.0000
  YYZ=              9.3552  XYZ=             -0.0000
 Hexadecapole moment (field-independent basis, Debye-Ang**3):
 XXXX=            -62.2497 YYYY=            -62.2497 ZZZZ=           -871.0990 XXXY=              0.0000
 XXXZ=              0.0000 YYYX=              0.0000 YYYZ=              0.1853 ZZZX=              0.0000
 ZZZY=              0.0000 XXYY=            -20.7499 XXZZ=           -140.3913 YYZZ=           -140.3913
 XXYZ=             -0.1853 YYXZ=             -0.0000 ZZXY=              0.0000
 N-N= 2.320439388364D+02 E-N=-7.819006686943D+03  KE= 3.071440495812D+03
 Symmetry A'   KE= 2.648361371673D+03
 Symmetry A"   KE= 4.230791241396D+02
  Exact polarizability:  39.214   0.000  39.213   0.000   0.000 108.336
 Approx polarizability:  64.448  -0.000  64.448   0.000  -0.000 166.294
 No NMR shielding tensors so no spin-rotation constants.
 Leave Link  601 at Thu Oct 17 18:27:50 2019, MaxMem=   280000000 cpu:               3.6 elap:               0.2
 (Enter /home/soft/g16/l701.exe)
 ... and contract with generalized density number  0.
 Compute integral second derivatives.
 R6Disp: Adding Grimme-D3(BJ) dispersion energy 2nd derivatives to the Hessian.
   6 Symmetry operations used in ECPInt.
 ECPInt:  NShTT=    1378 NPrTT=    5593 LenC2=    1346 LenP2D=    4493.
 LDataN:  DoStor=T MaxTD1= 8 Len=  415
 Leave Link  701 at Thu Oct 17 18:27:50 2019, MaxMem=   280000000 cpu:               5.5 elap:               0.3
 (Enter /home/soft/g16/l702.exe)
 L702 exits ... SP integral derivatives will be done elsewhere.
 Leave Link  702 at Thu Oct 17 18:27:50 2019, MaxMem=   280000000 cpu:               0.5 elap:               0.0
 (Enter /home/soft/g16/l703.exe)
 Integral derivatives from FoFJK, PRISM(SPDF).
 Compute integral second derivatives, UseDBF=F ICtDFT=           0.
 Calling FoFJK, ICntrl=    100127 FMM=F ISym2X=1 I1Cent= 0 IOpClX= 0 NMat=1 NMatS=1 NMatT=0.
 FoFJK:  IHMeth= 1 ICntrl=  100127 DoSepK=F KAlg= 0 I1Cent=           0 FoldK=F
 IRaf=         0 NMat=       1 IRICut=       1 DoRegI=T DoRafI=F ISym2E= 1 IDoP0=0 IntGTp=1.
 FoFCou: FMM=F IPFlag=           0 FMFlag=      100000 FMFlg1=         800
         NFxFlg=           0 DoJE=F BraDBF=F KetDBF=F FulRan=T
         wScrn=  0.000000 ICntrl=    100127 IOpCl=  0 I1Cent=           0 NGrid=           0
         NMat0=    1 NMatS0=      1 NMatT0=    0 NMatD0=    1 NMtDS0=    0 NMtDT0=    0
 Petite list used in FoFCou.
 Leave Link  703 at Thu Oct 17 18:27:54 2019, MaxMem=   280000000 cpu:              88.0 elap:               3.7
 (Enter /home/soft/g16/l716.exe)
 Dipole        = 1.33501362D-15-1.32070571D-15 3.69441326D-01
 Polarizability= 3.92137082D+01 3.61106965D-12 3.92132576D+01
                 1.35634241D-11 1.92231453D-04 1.08336030D+02
 ***** Axes restored to original set *****
 -------------------------------------------------------------------
 Center     Atomic                   Forces (Hartrees/Bohr)
 Number     Number              X              Y              Z
 -------------------------------------------------------------------
      1        6          -0.063781608    0.000000786    0.000000000
      2        1          -0.070623594   -0.028577429   -0.000000002
      3        1          -0.070623066    0.014290018    0.024749534
      4        1          -0.070623066    0.014290022   -0.024749532
      5       17          -0.134194042    0.000001654    0.000000000
      6       35           0.409845375   -0.000005051    0.000000000
 -------------------------------------------------------------------
 Cartesian Forces:  Max     0.409845375 RMS     0.107357774
 Force constants in Cartesian coordinates: 
                1             2             3             4             5 
      1  0.159600D+00
      2  0.615213D-05  0.544622D+00
      3  0.000000D+00  0.000000D+00  0.544624D+00
      4  0.113686D-02  0.952717D-01  0.000000D+00  0.113954D+00
      5  0.109010D+00 -0.324049D+00  0.000000D+00 -0.544280D-01  0.334985D+00
      6  0.000000D+00  0.000000D+00 -0.582564D-01  0.000000D+00  0.000000D+00
      7  0.113275D-02 -0.476395D-01 -0.825128D-01 -0.351178D-03 -0.106337D-02
      8 -0.545089D-01 -0.124703D+00 -0.115090D+00  0.217576D-02 -0.272868D-02
      9 -0.944111D-01 -0.115090D+00 -0.257599D+00 -0.283215D-04  0.199432D-02
     10  0.113275D-02 -0.476395D-01  0.825128D-01 -0.351178D-03 -0.106337D-02
     11 -0.545089D-01 -0.124703D+00  0.115090D+00  0.217576D-02 -0.272868D-02
     12  0.944111D-01  0.115090D+00 -0.257599D+00  0.283218D-04 -0.199432D-02
     13 -0.495345D-01 -0.181726D-05  0.000000D+00 -0.211975D-01  0.618915D-02
     14  0.000000D+00 -0.116002D-01  0.000000D+00  0.842156D-02  0.456674D-02
     15  0.000000D+00  0.000000D+00 -0.116000D-01  0.000000D+00  0.000000D+00
     16 -0.113467D+00  0.334532D-05  0.000000D+00 -0.931910D-01 -0.586444D-01
     17  0.131039D-05  0.404329D-01  0.000000D+00 -0.536167D-01 -0.100455D-01
     18  0.000000D+00  0.000000D+00  0.404326D-01  0.000000D+00  0.000000D+00
                6             7             8             9            10 
      6  0.245036D-01
      7 -0.189869D-02  0.113956D+00
      8 -0.187675D-01  0.272152D-01  0.102123D+00
      9  0.695536D-02  0.471400D-01  0.134441D+00  0.257364D+00
     10  0.189869D-02 -0.351219D-03 -0.111229D-02  0.186999D-02  0.113956D+00
     11  0.187675D-01 -0.111229D-02  0.117974D-01 -0.103810D-01  0.272152D-01
     12  0.695536D-02 -0.186999D-02  0.103810D-01 -0.757068D-02 -0.471400D-01
     13  0.000000D+00 -0.211972D-01 -0.309377D-02 -0.535897D-02 -0.211972D-01
     14  0.000000D+00 -0.421033D-02  0.445956D-02  0.622098D-04 -0.421033D-02
     15  0.442361D-02 -0.729317D-02  0.621770D-04  0.453113D-02  0.729317D-02
     16  0.000000D+00 -0.931891D-01  0.293238D-01  0.507879D-01 -0.931891D-01
     17  0.000000D+00  0.268102D-01  0.905163D-02 -0.110272D-01  0.268102D-01
     18  0.154186D-01  0.464342D-01 -0.110273D-01 -0.368027D-02 -0.464342D-01
               11            12            13            14            15 
     11  0.102123D+00
     12 -0.134441D+00  0.257364D+00
     13 -0.309378D-02  0.535897D-02  0.209591D+00
     14  0.445956D-02 -0.622098D-04 -0.242578D-05 -0.158723D-01
     15 -0.621770D-04  0.453113D-02  0.000000D+00  0.000000D+00 -0.158722D-01
     16  0.293238D-01 -0.507879D-01 -0.964656D-01  0.113175D-05  0.000000D+00
     17  0.905163D-02  0.110272D-01  0.200713D-05  0.139866D-01  0.000000D+00
     18  0.110273D-01 -0.368026D-02  0.000000D+00  0.000000D+00  0.139863D-01
               16            17            18 
     16  0.489502D+00
     17 -0.718372D-05 -0.624774D-01
     18  0.000000D+00  0.000000D+00 -0.624775D-01
 FormGI is forming the generalized inverse of G from B-inverse, IUseBI=4.
 Force constants in internal coordinates: 
                1             2             3             4             5 
      1  0.344635D+00
      2  0.307519D-03  0.344636D+00
      3  0.307519D-03  0.307445D-03  0.344636D+00
      4  0.129008D-01  0.128996D-01  0.128996D-01  0.209591D+00
      5  0.242284D-01  0.242278D-01  0.242278D-01  0.964654D-01  0.489502D+00
      6 -0.157774D-02 -0.157778D-02 -0.438077D-03 -0.528997D-02  0.317031D-01
      7 -0.234646D-02 -0.102047D-02 -0.244330D-02 -0.855293D-02  0.512583D-01
      8  0.363467D-02  0.445518D-03  0.588433D-03  0.687164D-02 -0.411846D-01
      9 -0.119854D-01  0.373019D-02  0.358728D-02 -0.687268D-02  0.411840D-01
     10 -0.102050D-02 -0.234650D-02 -0.244328D-02 -0.855282D-02  0.512583D-01
     11  0.445365D-03  0.381605D-02  0.406788D-03  0.687214D-02 -0.411843D-01
     12  0.372999D-02 -0.118042D-01  0.340565D-02 -0.687162D-02  0.411846D-01
     13  0.864665D-03  0.683179D-03  0.432943D-02  0.865193D-02 -0.518507D-01
     14  0.331069D-02  0.312926D-02 -0.123176D-01 -0.865141D-02  0.518510D-01
     15 -0.835072D-02  0.417571D-02  0.417571D-02 -0.103896D-05  0.000000D+00
     16  0.000000D+00  0.722636D-02 -0.722636D-02  0.000000D+00  0.000000D+00
     17  0.399416D-02  0.399422D-02  0.352893D-02  0.169539D-01 -0.101606D+00
     18  0.566167D-03  0.677288D-03  0.729134D-04  0.193745D-02 -0.116123D-01
     19 -0.312304D-02 -0.301192D-02  0.481881D-02 -0.193777D-02  0.116121D-01
     20  0.118547D-03  0.558635D-03 -0.191525D-04  0.968942D-03 -0.580599D-02
     21  0.243833D-02 -0.545036D-02  0.235379D-02 -0.968624D-03  0.580618D-02
     22 -0.447620D-03 -0.118653D-03 -0.920658D-04 -0.968506D-03  0.580628D-02
     23  0.556137D-02 -0.243844D-02 -0.246503D-02  0.969143D-03 -0.580590D-02
                6             7             8             9            10 
      6  0.119973D-01
      7 -0.257730D-02  0.234852D-01
      8 -0.860614D-02 -0.147797D-01  0.519828D-01
      9  0.164720D-01  0.232636D-01 -0.451158D-01  0.117627D+00
     10 -0.257729D-02  0.691903D-02  0.888965D-02 -0.278614D-01  0.234852D-01
     11 -0.894816D-02  0.931662D-02 -0.234887D-01  0.209055D-01 -0.147506D-01
     12  0.161300D-01 -0.274344D-01  0.208198D-01 -0.591843D-01  0.232926D-01
     13  0.107116D-01 -0.223639D-01 -0.139980D-01  0.123361D-01 -0.219660D-01
     14 -0.257593D-01  0.319978D-01  0.979991D-02 -0.465690D-01  0.323957D-01
     15  0.786586D-02  0.848390D-02  0.686696D-02  0.725117D-01 -0.189717D-01
     16 -0.136128D-01  0.169944D-01 -0.936406D-03  0.247760D-02  0.115601D-02
     17 -0.115372D-01 -0.154622D-01  0.141472D-01 -0.173584D-01 -0.154622D-01
     18  0.394390D-02 -0.650195D-02  0.690868D-02  0.534829D-02 -0.674562D-02
     19  0.527092D-02  0.602399D-03 -0.433791D-02  0.156150D-01  0.358736D-03
     20  0.186723D-02 -0.601771D-02 -0.515955D-02 -0.841851D-02 -0.466454D-03
     21  0.253075D-02 -0.507714D-02  0.352518D-02 -0.150224D-01  0.569733D-02
     22 -0.207667D-02  0.484235D-03 -0.120682D-01 -0.137668D-01  0.627916D-02
     23 -0.274017D-02 -0.567954D-02  0.786309D-02 -0.306374D-01  0.533859D-02
               11            12            13            14            15 
     11  0.517096D-01
     12 -0.467733D-01  0.114586D+00
     13 -0.138388D-01  0.139653D-01  0.614551D-01
     14  0.114856D-01 -0.434134D-01 -0.599197D-01  0.128617D+00
     15 -0.258315D-02 -0.383646D-01 -0.166188D-02 -0.367691D-01  0.793787D-01
     16 -0.446396D-02 -0.595598D-01  0.862765D-03  0.616198D-01  0.154119D-02
     17  0.142868D-01 -0.172188D-01  0.140275D-01 -0.788423D-02 -0.321124D-02
     18  0.632254D-02  0.386196D-02 -0.392756D-02 -0.185139D-01  0.122570D-01
     19 -0.488148D-02  0.141712D-01  0.298733D-02 -0.235542D-01  0.112771D-01
     20  0.114479D-01  0.122988D-01 -0.167137D-02 -0.849717D-02 -0.135781D-01
     21 -0.842495D-02  0.292278D-01  0.174883D-02 -0.110545D-01 -0.114972D-01
     22  0.512531D-02  0.843680D-02  0.225619D-02  0.100167D-01 -0.258350D-01
     23 -0.354347D-02  0.150566D-01 -0.123850D-02  0.124996D-01 -0.227743D-01
               16            17            18            19            20 
     16  0.774689D-01
     17  0.555741D-02  0.330673D-01
     18 -0.199792D-01  0.328216D-02  0.129327D-01
     19 -0.182834D-01 -0.704411D-02  0.809835D-03  0.117847D-01
     20 -0.207687D-01  0.168384D-02  0.613767D-02  0.892704D-04  0.115532D-01
     21 -0.184377D-01 -0.347930D-02  0.990422D-04  0.559952D-02  0.298854D-02
     22 -0.789458D-03 -0.159833D-02 -0.679504D-02 -0.720565D-03  0.541556D-02
     23 -0.154326D-03  0.356480D-02 -0.710793D-03 -0.618522D-02  0.289927D-02
               21            22            23 
     21  0.975058D-02
     22  0.288950D-02  0.122106D-01
     23  0.415107D-02  0.361007D-02  0.103363D-01
 Leave Link  716 at Thu Oct 17 18:27:54 2019, MaxMem=   280000000 cpu:               0.9 elap:               0.1
 (Enter /home/soft/g16/l103.exe)

 GradGradGradGradGradGradGradGradGradGradGradGradGradGradGradGradGradGrad
 Berny optimization.
 Red2BG is reusing G-inverse.
 Internal  Forces:  Max     0.409845375 RMS     0.093402549
 Search for a local minimum.
 Step number   1 out of a maximum of   33
 All quantities printed in internal units (Hartrees-Bohrs-Radians)
 RMS Force = .93403D-01 SwitMx=.10000D-02 MixMth= 1
 Mixed Optimization -- RFO/linear search
 Second derivative matrix not updated -- analytic derivatives used.
 ITU=  0
     Eigenvalues ---    0.00481   0.00526   0.02261   0.08627   0.09736
     Eigenvalues ---    0.20680   0.26097   0.27163   0.34279   0.34900
     Eigenvalues ---    0.34977   0.57916
 RFO step:  Lambda=-2.47276506D-01 EMin= 4.81496106D-03
 Linear search not attempted -- first point.
 Maximum step size (   0.300) exceeded in Quadratic search.
    -- Step size scaled by   0.545
 Iteration  1 RMS(Cart)=  0.04886405 RMS(Int)=  0.01575883
 Iteration  2 RMS(Cart)=  0.01437104 RMS(Int)=  0.00016333
 Iteration  3 RMS(Cart)=  0.00000008 RMS(Int)=  0.00016333
 ITry= 1 IFail=0 DXMaxC= 2.65D-01 DCOld= 1.00D+10 DXMaxT= 3.00D-01 DXLimC= 3.00D+00 Rises=F
 ClnCor:  largest displacement from symmetrization is 2.74D-03 for atom     3.
 Variable       Old X    -DE/DX   Delta X   Delta X   Delta X     New X
                                 (Linear)    (Quad)   (Total)
    R1        2.02201   0.00340   0.00000  -0.00976  -0.01006   2.01194
    R2        2.02201   0.00340   0.00000  -0.00976  -0.01006   2.01194
    R3        2.02201   0.00340   0.00000  -0.00981  -0.01006   2.01194
    R4        3.32592   0.13419   0.00000   0.10657   0.10657   3.43249
    R5        3.44469   0.40985   0.00000   0.27549   0.27549   3.72018
    A1        1.91063   0.02246   0.00000   0.01339   0.01579   1.92642
    A2        1.91063   0.03632   0.00000   0.01796   0.01579   1.92642
    A3        1.91063  -0.02918   0.00000  -0.01606  -0.01607   1.89456
    A4        1.23096   0.02918   0.00000   0.01626   0.01607   1.24703
    A5        1.91063   0.03632   0.00000   0.01796   0.01579   1.92642
    A6        1.91063  -0.02918   0.00000  -0.01607  -0.01607   1.89456
    A7        1.23096   0.02918   0.00000   0.01625   0.01607   1.24703
    A8        1.91063  -0.03674   0.00000  -0.01718  -0.01607   1.89456
    A9        1.23096   0.03674   0.00000   0.01680   0.01607   1.24703
   A10        3.14159  -0.00000   0.00000   0.00020   0.00000   3.14159
   A11        3.14159   0.00000   0.00000  -0.00035   0.00000   3.14159
    D1       -2.09439  -0.07200   0.00000  -0.03840  -0.03992  -2.13432
    D2        2.09440  -0.00823   0.00000  -0.00327   0.00000   2.09440
    D3       -2.09440   0.00823   0.00000   0.00351   0.00000  -2.09440
    D4       -2.09440  -0.00411   0.00000  -0.00164   0.00000  -2.09440
    D5        2.09440   0.00411   0.00000   0.00175  -0.00000   2.09440
    D6        2.09440   0.00411   0.00000   0.00163   0.00000   2.09440
    D7       -2.09440  -0.00411   0.00000  -0.00176   0.00000  -2.09440
         Item               Value     Threshold  Converged?
 Maximum Force            0.409845     0.000450     NO 
 RMS     Force            0.093403     0.000300     NO 
 Maximum Displacement     0.264557     0.001800     NO 
 RMS     Displacement     0.062539     0.001200     NO 
 Predicted change in Energy=-1.092377D-01
 Lowest energy point so far.  Saving SCF results.
 GradGradGradGradGradGradGradGradGradGradGradGradGradGradGradGradGradGrad

 Leave Link  103 at Thu Oct 17 18:27:54 2019, MaxMem=   280000000 cpu:               2.4 elap:               0.1
 (Enter /home/soft/g16/l202.exe)
                          Input orientation:                          
 ---------------------------------------------------------------------
 Center     Atomic      Atomic             Coordinates (Angstroms)
 Number     Number       Type             X           Y           Z
 ---------------------------------------------------------------------
      1          6           0       -0.987697   -0.839793    0.000000
      2          1           0       -0.648993   -1.849156   -0.000000
      3          1           0       -0.648974   -0.335118    0.874130
      4          1           0       -0.648974   -0.335118   -0.874130
      5         17           0       -2.804092   -0.839771    0.000000
      6         35           0        0.980936   -0.839817    0.000000
 ---------------------------------------------------------------------
                    Distance matrix (angstroms):
                    1          2          3          4          5
     1  C    0.000000
     2  H    1.064675   0.000000
     3  H    1.064675   1.748260   0.000000
     4  H    1.064675   1.748260   1.748260   0.000000
     5  Cl   1.816395   2.379771   2.379771   2.379771   0.000000
     6  Br   1.968633   1.917141   1.917141   1.917141   3.785028
                    6
     6  Br   0.000000
 Stoichiometry    CH3BrCl(1-)
 Framework group  C3V[C3(ClCBr),3SGV(H)]
 Deg. of freedom     4
 Full point group                 C3V     NOp   6
 RotChk:  IX=0 Diff= 1.18D-15
 Largest Abelian subgroup         CS      NOp   2
 Largest concise Abelian subgroup CS      NOp   2
                         Standard orientation:                         
 ---------------------------------------------------------------------
 Center     Atomic      Atomic             Coordinates (Angstroms)
 Number     Number       Type             X           Y           Z
 ---------------------------------------------------------------------
      1          6           0        0.000000   -0.000000   -0.639993
      2          1           0        0.000000    1.009358   -0.301277
      3          1           0        0.874130   -0.504679   -0.301277
      4          1           0       -0.874130   -0.504679   -0.301277
      5         17           0        0.000000   -0.000000   -2.456388
      6         35           0       -0.000000    0.000000    1.328640
 ---------------------------------------------------------------------
 Rotational constants (GHZ):         164.0665558           1.4187833           1.4187833
 Leave Link  202 at Thu Oct 17 18:27:55 2019, MaxMem=   280000000 cpu:               1.5 elap:               0.1
 (Enter /home/soft/g16/l301.exe)
 Standard basis: def2TZVP (5D, 7F)
 Ernie: Thresh=  0.10000D-02 Tol=  0.10000D-05 Strict=F.
 There are   103 symmetry adapted cartesian basis functions of A'  symmetry.
 There are    48 symmetry adapted cartesian basis functions of A"  symmetry.
 There are    89 symmetry adapted basis functions of A'  symmetry.
 There are    45 symmetry adapted basis functions of A"  symmetry.
   134 basis functions,   258 primitive gaussians,   151 cartesian basis functions
    31 alpha electrons       31 beta electrons
       nuclear repulsion energy       219.5285019801 Hartrees.
 IExCor=  402 DFT=T Ex+Corr=B3LYP ExCW=0 ScaHFX=  0.200000
 ScaDFX=  0.800000  0.720000  1.000000  0.810000 ScalE2=  1.000000  1.000000
 IRadAn=      5 IRanWt=     -1 IRanGd=            0 ICorTp=0 IEmpDi=141
 NAtoms=    6 NActive=    6 NUniq=    4 SFac= 2.25D+00 NAtFMM=   60 NAOKFM=F Big=F
 Integral buffers will be    131072 words long.
 Raffenetti 2 integral format.
 Two-electron integral symmetry is turned on.
 R6Disp:  Grimme-D3(BJ) Dispersion energy=       -0.0083167488 Hartrees.
 Nuclear repulsion after empirical dispersion term =      219.5201852313 Hartrees.
 Leave Link  301 at Thu Oct 17 18:27:55 2019, MaxMem=   280000000 cpu:               1.4 elap:               0.1
 (Enter /home/soft/g16/l302.exe)
 NPDir=0 NMtPBC=     1 NCelOv=     1 NCel=       1 NClECP=     1 NCelD=      1
         NCelK=      1 NCelE2=     1 NClLst=     1 CellRange=     0.0.
 One-electron integrals computed using PRISM.
 One-electron integral symmetry used in STVInt
   6 Symmetry operations used in ECPInt.
 ECPInt:  NShTT=    1378 NPrTT=    5593 LenC2=    1345 LenP2D=    4440.
 LDataN:  DoStor=T MaxTD1= 6 Len=  172
 NBasis=   134 RedAO= T EigKep=  1.01D-03  NBF=    89    45
 NBsUse=   134 1.00D-06 EigRej= -1.00D+00 NBFU=    89    45
 Precomputing XC quadrature grid using
 IXCGrd= 4 IRadAn=           5 IRanWt=          -1 IRanGd=           0 AccXCQ= 0.00D+00.
 Generated NRdTot=       0 NPtTot=           0 NUsed=           0 NTot=          32
 NSgBfM=   151   151   151   151   151 MxSgAt=     6 MxSgA2=     6.
 Leave Link  302 at Thu Oct 17 18:27:55 2019, MaxMem=   280000000 cpu:               4.3 elap:               0.2
 (Enter /home/soft/g16/l303.exe)
 DipDrv:  MaxL=1.
 Leave Link  303 at Thu Oct 17 18:27:55 2019, MaxMem=   280000000 cpu:               0.6 elap:               0.0
 (Enter /home/soft/g16/l401.exe)
 Initial guess from the checkpoint file:  "R_d.chk"
 B after Tr=    -0.000000    0.000000   -0.000000
         Rot=    1.000000   -0.000000    0.000000    0.000000 Ang=   0.00 deg.
 Guess basis will be translated and rotated to current coordinates.
 JPrj=2 DoOrth=T DoCkMO=T.
 Initial guess orbital symmetries:
       Occupied  (A1) (A1) (A1) (A1) (E) (E) (A1) (A1) (A1) (A1)
                 (E) (E) (A1) (E) (E) (A1) (E) (E) (E) (E) (A1)
                 (A1) (A1) (E) (E) (A1) (E) (E) (E) (E) (A1)
       Virtual   (A1) (E) (E) (A1) (A1) (E) (E) (A1) (E) (E) (A1)
                 (E) (E) (E) (E) (E) (E) (A1) (E) (E) (E) (E) (A1)
                 (A1) (E) (E) (A1) (E) (E) (A1) (E) (E) (A1) (A1)
                 (E) (E) (E) (E) (A1) (A2) (E) (E) (A1) (A1) (E)
                 (E) (A2) (E) (E) (A1) (E) (E) (E) (E) (A1) (E)
                 (E) (E) (E) (A1) (A1) (A2) (A1) (E) (E) (E) (E)
                 (A1) (E) (E) (A1) (E) (E) (E) (E) (A1) (E) (E)
                 (A1) (E) (E) (A1) (A2) (E) (E) (E) (E) (A1) (E)
                 (E) (E) (E) (A1) (E) (E) (A1) (A1) (A1) (E) (E)
                 (A1) (A1) (A1)
 The electronic state of the initial guess is 1-A1.
 Generating alternative initial guess.
 ExpMin= 9.52D-02 ExpMax= 5.65D+05 ExpMxC= 5.46D+03 IAcc=2 IRadAn=         4 AccDes= 0.00D+00
 Harris functional with IExCor=  402 and IRadAn=       4 diagonalized for initial guess.
 HarFok:  IExCor=  402 AccDes= 0.00D+00 IRadAn=         4 IDoV= 1 UseB2=F ITyADJ=14
 ICtDFT=  3500011 ScaDFX=  1.000000  1.000000  1.000000  1.000000
 FoFCou: FMM=F IPFlag=           0 FMFlag=      100000 FMFlg1=           0
         NFxFlg=           0 DoJE=T BraDBF=F KetDBF=T FulRan=T
         wScrn=  0.000000 ICntrl=       500 IOpCl=  0 I1Cent=   200000004 NGrid=           0
         NMat0=    1 NMatS0=      1 NMatT0=    0 NMatD0=    1 NMtDS0=    0 NMtDT0=    0
 Petite list used in FoFCou.
 Harris En= -3074.44360635010    
 Leave Link  401 at Thu Oct 17 18:27:55 2019, MaxMem=   280000000 cpu:               5.9 elap:               0.3
 (Enter /home/soft/g16/l502.exe)
 Keep R1 ints in memory in symmetry-blocked form, NReq=64335426.
 FoFCou: FMM=F IPFlag=           0 FMFlag=           0 FMFlg1=           0
         NFxFlg=           0 DoJE=F BraDBF=F KetDBF=F FulRan=T
         wScrn=  0.000000 ICntrl=       600 IOpCl=  0 I1Cent=           0 NGrid=           0
         NMat0=    1 NMatS0=   9045 NMatT0=    0 NMatD0=    1 NMtDS0=    0 NMtDT0=    0
 Petite list used in FoFCou.
 Closed shell SCF:
 Using DIIS extrapolation, IDIIS=  1040.
 NGot=   280000000 LenX=   259203668 LenY=   259180426
 Requested convergence on RMS density matrix=1.00D-08 within 128 cycles.
 Requested convergence on MAX density matrix=1.00D-06.
 Requested convergence on             energy=1.00D-06.
 No special actions if energy rises.
 Integral accuracy reduced to 1.0D-05 until final iterations.

 Cycle   1  Pass 0  IDiag  1:
 E= -3074.25481249610    
 DIIS: error= 7.52D-03 at cycle   1 NSaved=   1.
 NSaved= 1 IEnMin= 1 EnMin= -3074.25481249610     IErMin= 1 ErrMin= 7.52D-03
 ErrMax= 7.52D-03  0.00D+00 EMaxC= 1.00D-01 BMatC= 1.16D-02 BMatP= 1.16D-02
 IDIUse=3 WtCom= 9.25D-01 WtEn= 7.52D-02
 Coeff-Com:  0.100D+01
 Coeff-En:   0.100D+01
 Coeff:      0.100D+01
 Gap=     0.222 Goal=   None    Shift=    0.000
 GapD=    0.222 DampG=1.000 DampE=1.000 DampFc=1.0000 IDamp=-1.
 RMSDP=2.46D-03 MaxDP=3.86D-02              OVMax= 8.57D-02

 Cycle   2  Pass 0  IDiag  1:
 E= -3074.26432157073     Delta-E=       -0.009509074625 Rises=F Damp=F
 DIIS: error= 1.86D-03 at cycle   2 NSaved=   2.
 NSaved= 2 IEnMin= 2 EnMin= -3074.26432157073     IErMin= 2 ErrMin= 1.86D-03
 ErrMax= 1.86D-03  0.00D+00 EMaxC= 1.00D-01 BMatC= 6.81D-04 BMatP= 1.16D-02
 IDIUse=3 WtCom= 9.81D-01 WtEn= 1.86D-02
 Coeff-Com:  0.621D-01 0.938D+00
 Coeff-En:   0.000D+00 0.100D+01
 Coeff:      0.609D-01 0.939D+00
 Gap=     0.195 Goal=   None    Shift=    0.000
 RMSDP=5.33D-04 MaxDP=1.22D-02 DE=-9.51D-03 OVMax= 2.26D-02

 Cycle   3  Pass 0  IDiag  1:
 E= -3074.26413552050     Delta-E=        0.000186050230 Rises=F Damp=F
 DIIS: error= 2.34D-03 at cycle   3 NSaved=   3.
 NSaved= 3 IEnMin= 2 EnMin= -3074.26432157073     IErMin= 2 ErrMin= 1.86D-03
 ErrMax= 2.34D-03  0.00D+00 EMaxC= 1.00D-01 BMatC= 9.77D-04 BMatP= 6.81D-04
 IDIUse=3 WtCom= 1.71D-01 WtEn= 8.29D-01
 Coeff-Com: -0.948D-02 0.551D+00 0.459D+00
 Coeff-En:   0.000D+00 0.556D+00 0.444D+00
 Coeff:     -0.162D-02 0.555D+00 0.446D+00
 Gap=     0.198 Goal=   None    Shift=    0.000
 RMSDP=3.10D-04 MaxDP=6.04D-03 DE= 1.86D-04 OVMax= 1.50D-02

 Cycle   4  Pass 0  IDiag  1:
 E= -3074.26503062583     Delta-E=       -0.000895105330 Rises=F Damp=F
 DIIS: error= 3.70D-04 at cycle   4 NSaved=   4.
 NSaved= 4 IEnMin= 4 EnMin= -3074.26503062583     IErMin= 4 ErrMin= 3.70D-04
 ErrMax= 3.70D-04  0.00D+00 EMaxC= 1.00D-01 BMatC= 1.66D-05 BMatP= 6.81D-04
 IDIUse=3 WtCom= 9.96D-01 WtEn= 3.70D-03
 Coeff-Com: -0.655D-02 0.194D+00 0.192D+00 0.620D+00
 Coeff-En:   0.000D+00 0.000D+00 0.000D+00 0.100D+01
 Coeff:     -0.652D-02 0.194D+00 0.191D+00 0.622D+00
 Gap=     0.199 Goal=   None    Shift=    0.000
 RMSDP=8.27D-05 MaxDP=2.07D-03 DE=-8.95D-04 OVMax= 2.20D-03

 Cycle   5  Pass 0  IDiag  1:
 E= -3074.26504733806     Delta-E=       -0.000016712235 Rises=F Damp=F
 DIIS: error= 8.63D-05 at cycle   5 NSaved=   5.
 NSaved= 5 IEnMin= 5 EnMin= -3074.26504733806     IErMin= 5 ErrMin= 8.63D-05
 ErrMax= 8.63D-05  0.00D+00 EMaxC= 1.00D-01 BMatC= 1.12D-06 BMatP= 1.66D-05
 IDIUse=1 WtCom= 1.00D+00 WtEn= 0.00D+00
 Coeff-Com: -0.929D-03-0.361D-02 0.102D-01 0.204D+00 0.790D+00
 Coeff:     -0.929D-03-0.361D-02 0.102D-01 0.204D+00 0.790D+00
 Gap=     0.198 Goal=   None    Shift=    0.000
 RMSDP=3.83D-05 MaxDP=1.23D-03 DE=-1.67D-05 OVMax= 7.34D-04

 Cycle   6  Pass 0  IDiag  1:
 E= -3074.26504844315     Delta-E=       -0.000001105084 Rises=F Damp=F
 DIIS: error= 2.65D-05 at cycle   6 NSaved=   6.
 NSaved= 6 IEnMin= 6 EnMin= -3074.26504844315     IErMin= 6 ErrMin= 2.65D-05
 ErrMax= 2.65D-05  0.00D+00 EMaxC= 1.00D-01 BMatC= 1.65D-07 BMatP= 1.12D-06
 IDIUse=1 WtCom= 1.00D+00 WtEn= 0.00D+00
 Coeff-Com:  0.131D-03-0.191D-01-0.987D-02 0.538D-01 0.376D+00 0.600D+00
 Coeff:      0.131D-03-0.191D-01-0.987D-02 0.538D-01 0.376D+00 0.600D+00
 Gap=     0.198 Goal=   None    Shift=    0.000
 RMSDP=8.46D-06 MaxDP=2.23D-04 DE=-1.11D-06 OVMax= 2.06D-04

 Initial convergence to 1.0D-05 achieved.  Increase integral accuracy.
 Cycle   7  Pass 1  IDiag  1:
 E= -3074.26506242116     Delta-E=       -0.000013978016 Rises=F Damp=F
 DIIS: error= 7.14D-06 at cycle   1 NSaved=   1.
 NSaved= 1 IEnMin= 1 EnMin= -3074.26506242116     IErMin= 1 ErrMin= 7.14D-06
 ErrMax= 7.14D-06  0.00D+00 EMaxC= 1.00D-01 BMatC= 1.26D-08 BMatP= 1.26D-08
 IDIUse=1 WtCom= 1.00D+00 WtEn= 0.00D+00
 Coeff-Com:  0.100D+01
 Coeff:      0.100D+01
 Gap=     0.198 Goal=   None    Shift=    0.000
 RMSDP=8.46D-06 MaxDP=2.23D-04 DE=-1.40D-05 OVMax= 1.12D-04

 Cycle   8  Pass 1  IDiag  1:
 E= -3074.26506240911     Delta-E=        0.000000012059 Rises=F Damp=F
 DIIS: error= 9.21D-06 at cycle   2 NSaved=   2.
 NSaved= 2 IEnMin= 1 EnMin= -3074.26506242116     IErMin= 1 ErrMin= 7.14D-06
 ErrMax= 9.21D-06  0.00D+00 EMaxC= 1.00D-01 BMatC= 2.78D-08 BMatP= 1.26D-08
 IDIUse=1 WtCom= 1.00D+00 WtEn= 0.00D+00
 Coeff-Com:  0.600D+00 0.400D+00
 Coeff:      0.600D+00 0.400D+00
 Gap=     0.198 Goal=   None    Shift=    0.000
 RMSDP=1.36D-06 MaxDP=2.90D-05 DE= 1.21D-08 OVMax= 5.96D-05

 Cycle   9  Pass 1  IDiag  1:
 E= -3074.26506243621     Delta-E=       -0.000000027107 Rises=F Damp=F
 DIIS: error= 4.24D-07 at cycle   3 NSaved=   3.
 NSaved= 3 IEnMin= 3 EnMin= -3074.26506243621     IErMin= 3 ErrMin= 4.24D-07
 ErrMax= 4.24D-07  0.00D+00 EMaxC= 1.00D-01 BMatC= 3.96D-11 BMatP= 1.26D-08
 IDIUse=1 WtCom= 1.00D+00 WtEn= 0.00D+00
 Coeff-Com:  0.805D-01 0.499D-01 0.870D+00
 Coeff:      0.805D-01 0.499D-01 0.870D+00
 Gap=     0.198 Goal=   None    Shift=    0.000
 RMSDP=3.72D-07 MaxDP=1.13D-05 DE=-2.71D-08 OVMax= 7.63D-06

 Cycle  10  Pass 1  IDiag  1:
 E= -3074.26506243626     Delta-E=       -0.000000000048 Rises=F Damp=F
 DIIS: error= 2.66D-07 at cycle   4 NSaved=   4.
 NSaved= 4 IEnMin= 4 EnMin= -3074.26506243626     IErMin= 4 ErrMin= 2.66D-07
 ErrMax= 2.66D-07  0.00D+00 EMaxC= 1.00D-01 BMatC= 1.63D-11 BMatP= 3.96D-11
 IDIUse=1 WtCom= 1.00D+00 WtEn= 0.00D+00
 Coeff-Com: -0.281D-02 0.916D-03 0.362D+00 0.640D+00
 Coeff:     -0.281D-02 0.916D-03 0.362D+00 0.640D+00
 Gap=     0.198 Goal=   None    Shift=    0.000
 RMSDP=1.09D-07 MaxDP=3.19D-06 DE=-4.82D-11 OVMax= 2.55D-06

 Cycle  11  Pass 1  IDiag  1:
 E= -3074.26506243627     Delta-E=       -0.000000000010 Rises=F Damp=F
 DIIS: error= 1.87D-07 at cycle   5 NSaved=   5.
 NSaved= 5 IEnMin= 5 EnMin= -3074.26506243627     IErMin= 5 ErrMin= 1.87D-07
 ErrMax= 1.87D-07  0.00D+00 EMaxC= 1.00D-01 BMatC= 4.07D-12 BMatP= 1.63D-11
 IDIUse=1 WtCom= 1.00D+00 WtEn= 0.00D+00
 Coeff-Com: -0.128D-01-0.471D-02 0.114D+00 0.363D+00 0.540D+00
 Coeff:     -0.128D-01-0.471D-02 0.114D+00 0.363D+00 0.540D+00
 Gap=     0.198 Goal=   None    Shift=    0.000
 RMSDP=4.36D-08 MaxDP=1.46D-06 DE=-1.00D-11 OVMax= 9.77D-07

 Cycle  12  Pass 1  IDiag  1:
 E= -3074.26506243629     Delta-E=       -0.000000000017 Rises=F Damp=F
 DIIS: error= 1.97D-08 at cycle   6 NSaved=   6.
 NSaved= 6 IEnMin= 6 EnMin= -3074.26506243629     IErMin= 6 ErrMin= 1.97D-08
 ErrMax= 1.97D-08  0.00D+00 EMaxC= 1.00D-01 BMatC= 1.37D-13 BMatP= 4.07D-12
 IDIUse=1 WtCom= 1.00D+00 WtEn= 0.00D+00
 Coeff-Com: -0.365D-02-0.854D-03-0.590D-02 0.542D-01 0.178D+00 0.778D+00
 Coeff:     -0.365D-02-0.854D-03-0.590D-02 0.542D-01 0.178D+00 0.778D+00
 Gap=     0.198 Goal=   None    Shift=    0.000
 RMSDP=1.74D-08 MaxDP=5.53D-07 DE=-1.73D-11 OVMax= 3.41D-07

 Cycle  13  Pass 1  IDiag  1:
 E= -3074.26506243628     Delta-E=        0.000000000005 Rises=F Damp=F
 DIIS: error= 7.32D-09 at cycle   7 NSaved=   7.
 NSaved= 7 IEnMin= 6 EnMin= -3074.26506243629     IErMin= 7 ErrMin= 7.32D-09
 ErrMax= 7.32D-09  0.00D+00 EMaxC= 1.00D-01 BMatC= 6.98D-15 BMatP= 1.37D-13
 IDIUse=1 WtCom= 1.00D+00 WtEn= 0.00D+00
 Coeff-Com: -0.139D-03-0.114D-03-0.582D-02-0.783D-02 0.175D-02 0.202D+00
 Coeff-Com:  0.810D+00
 Coeff:     -0.139D-03-0.114D-03-0.582D-02-0.783D-02 0.175D-02 0.202D+00
 Coeff:      0.810D+00
 Gap=     0.198 Goal=   None    Shift=    0.000
 RMSDP=3.80D-09 MaxDP=1.12D-07 DE= 5.00D-12 OVMax= 9.75D-08

 SCF Done:  E(RB3LYP) =  -3074.26506244     A.U. after   13 cycles
            NFock= 13  Conv=0.38D-08     -V/T= 2.0011
 KE= 3.071005410344D+03 PE=-7.794065678610D+03 EE= 1.429275020598D+03
 Leave Link  502 at Thu Oct 17 18:27:57 2019, MaxMem=   280000000 cpu:              34.4 elap:               1.7
 (Enter /home/soft/g16/l801.exe)
 DoSCS=F DFT=T ScalE2(SS,OS)=  1.000000  1.000000
 Range of M.O.s used for correlation:     1   134
 NBasis=   134 NAE=    31 NBE=    31 NFC=     0 NFV=     0
 NROrb=    134 NOA=    31 NOB=    31 NVA=   103 NVB=   103

 **** Warning!!: The largest alpha MO coefficient is  0.15154710D+02

 Leave Link  801 at Thu Oct 17 18:27:57 2019, MaxMem=   280000000 cpu:               0.9 elap:               0.1
 (Enter /home/soft/g16/l1101.exe)
 Using compressed storage, NAtomX=     6.
 Will process      7 centers per pass.
   6 Symmetry operations used in ECPInt.
 ECPInt:  NShTT=    1378 NPrTT=    5593 LenC2=    1345 LenP2D=    4440.
 LDataN:  DoStor=T MaxTD1= 7 Len=  274
 R6Disp: Adding Grimme-D3(BJ) dispersion energy 1st derivatives to the gradient.
 Leave Link 1101 at Thu Oct 17 18:27:57 2019, MaxMem=   280000000 cpu:               4.5 elap:               0.2
 (Enter /home/soft/g16/l1102.exe)
 Symmetrizing basis deriv contribution to polar:
 IMax=3 JMax=2 DiffMx= 0.00D+00
 Leave Link 1102 at Thu Oct 17 18:27:57 2019, MaxMem=   280000000 cpu:               0.5 elap:               0.0
 (Enter /home/soft/g16/l1110.exe)
 Forming Gx(P) for the SCF density, NAtomX=     6.
 Integral derivatives from FoFJK, PRISM(SPDF).
 Do as many integral derivatives as possible in FoFJK.
 G2DrvN: MDV=     279999420.
 G2DrvN: will do     7 centers at a time, making    1 passes.
 Calling FoFCou, ICntrl=  3107 FMM=F I1Cent=   0 AccDes= 0.00D+00.
 FoFJK:  IHMeth= 1 ICntrl=    3107 DoSepK=F KAlg= 0 I1Cent=           0 FoldK=F
 IRaf=         0 NMat=       1 IRICut=       1 DoRegI=T DoRafI=F ISym2E= 1 IDoP0=0 IntGTp=1.
 FoFCou: FMM=F IPFlag=           0 FMFlag=      100000 FMFlg1=           0
         NFxFlg=           0 DoJE=F BraDBF=F KetDBF=F FulRan=T
         wScrn=  0.000000 ICntrl=      3107 IOpCl=  0 I1Cent=           0 NGrid=           0
         NMat0=    1 NMatS0=      1 NMatT0=    0 NMatD0=    1 NMtDS0=    0 NMtDT0=    0
 Petite list used in FoFCou.
 End of G2Drv F.D. properties file   721 does not exist.
 End of G2Drv F.D. properties file   722 does not exist.
 End of G2Drv F.D. properties file   788 does not exist.
 Leave Link 1110 at Thu Oct 17 18:27:59 2019, MaxMem=   280000000 cpu:              36.1 elap:               1.5
 (Enter /home/soft/g16/l1002.exe)
 Minotr:  Closed shell wavefunction.
          IDoAtm=111111
          Direct CPHF calculation.
          Differentiating once with respect to electric field.
                with respect to dipole field.
          Differentiating once with respect to nuclear coordinates.
          Using symmetry in CPHF.
          Requested convergence is 1.0D-08 RMS, and 1.0D-07 maximum.
          Secondary convergence is 1.0D-12 RMS, and 1.0D-12 maximum.
          NewPWx=T KeepS1=F KeepF1=F KeepIn=T MapXYZ=F SortEE=F KeepMc=T.
         1761 words used for storage of precomputed grid.
 Keep R1 ints in memory in symmetry-blocked form, NReq=64256973.
 FoFCou: FMM=F IPFlag=           0 FMFlag=           0 FMFlg1=           0
         NFxFlg=           0 DoJE=F BraDBF=F KetDBF=F FulRan=T
         wScrn=  0.000000 ICntrl=       600 IOpCl=  0 I1Cent=           0 NGrid=           0
         NMat0=    1 NMatS0=   9045 NMatT0=    0 NMatD0=    1 NMtDS0=    0 NMtDT0=    0
 Petite list used in FoFCou.
          MDV=     280000000 using IRadAn=       1.
          Solving linear equations simultaneously, MaxMat=       0.
          There are    15 degrees of freedom in the 1st order CPHF.  IDoFFX=4 NUNeed=    15.
     15 vectors produced by pass  0 Test12= 2.13D-14 6.67D-09 XBig12= 1.30D+02 1.02D+01.
 AX will form    15 AO Fock derivatives at one time.
     15 vectors produced by pass  1 Test12= 2.13D-14 6.67D-09 XBig12= 2.26D+01 2.13D+00.
     15 vectors produced by pass  2 Test12= 2.13D-14 6.67D-09 XBig12= 1.02D+00 3.62D-01.
     15 vectors produced by pass  3 Test12= 2.13D-14 6.67D-09 XBig12= 2.50D-02 2.85D-02.
     15 vectors produced by pass  4 Test12= 2.13D-14 6.67D-09 XBig12= 4.78D-04 5.18D-03.
     15 vectors produced by pass  5 Test12= 2.13D-14 6.67D-09 XBig12= 3.79D-06 3.98D-04.
     10 vectors produced by pass  6 Test12= 2.13D-14 6.67D-09 XBig12= 5.99D-09 1.47D-05.
      3 vectors produced by pass  7 Test12= 2.13D-14 6.67D-09 XBig12= 5.76D-12 4.05D-07.
      1 vectors produced by pass  8 Test12= 2.13D-14 6.67D-09 XBig12= 9.07D-15 2.51D-08.
 InvSVY:  IOpt=1 It=  1 EMax= 1.78D-15
 Solved reduced A of dimension   104 with    15 vectors.
 FullF1:  Do perturbations      1 to      15.
 Isotropic polarizability for W=    0.000000       60.76 Bohr**3.
 End of Minotr F.D. properties file   721 does not exist.
 End of Minotr F.D. properties file   722 does not exist.
 End of Minotr F.D. properties file   788 does not exist.
 Leave Link 1002 at Thu Oct 17 18:28:03 2019, MaxMem=   280000000 cpu:              94.6 elap:               4.0
 (Enter /home/soft/g16/l701.exe)
 ... and contract with generalized density number  0.
 Compute integral second derivatives.
 R6Disp: Adding Grimme-D3(BJ) dispersion energy 2nd derivatives to the Hessian.
   6 Symmetry operations used in ECPInt.
 ECPInt:  NShTT=    1378 NPrTT=    5593 LenC2=    1345 LenP2D=    4440.
 LDataN:  DoStor=T MaxTD1= 8 Len=  415
 Leave Link  701 at Thu Oct 17 18:28:03 2019, MaxMem=   280000000 cpu:               5.0 elap:               0.2
 (Enter /home/soft/g16/l702.exe)
 L702 exits ... SP integral derivatives will be done elsewhere.
 Leave Link  702 at Thu Oct 17 18:28:03 2019, MaxMem=   280000000 cpu:               0.5 elap:               0.0
 (Enter /home/soft/g16/l703.exe)
 Integral derivatives from FoFJK, PRISM(SPDF).
 Compute integral second derivatives, UseDBF=F ICtDFT=           0.
 Calling FoFJK, ICntrl=    100127 FMM=F ISym2X=1 I1Cent= 0 IOpClX= 0 NMat=1 NMatS=1 NMatT=0.
 FoFJK:  IHMeth= 1 ICntrl=  100127 DoSepK=F KAlg= 0 I1Cent=           0 FoldK=F
 IRaf=         0 NMat=       1 IRICut=       1 DoRegI=T DoRafI=F ISym2E= 1 IDoP0=0 IntGTp=1.
 FoFCou: FMM=F IPFlag=           0 FMFlag=      100000 FMFlg1=         800
         NFxFlg=           0 DoJE=F BraDBF=F KetDBF=F FulRan=T
         wScrn=  0.000000 ICntrl=    100127 IOpCl=  0 I1Cent=           0 NGrid=           0
         NMat0=    1 NMatS0=      1 NMatT0=    0 NMatD0=    1 NMtDS0=    0 NMtDT0=    0
 Petite list used in FoFCou.
 Leave Link  703 at Thu Oct 17 18:28:07 2019, MaxMem=   280000000 cpu:              88.1 elap:               3.7
 (Enter /home/soft/g16/l716.exe)
 Dipole        = 8.39099869D-16-4.17720383D-16 1.81862754D-01
 Polarizability= 3.82853172D+01 7.30260148D-12 3.82846264D+01
                -5.03041093D-12 2.66044939D-04 1.05715234D+02
 ***** Axes restored to original set *****
 -------------------------------------------------------------------
 Center     Atomic                   Forces (Hartrees/Bohr)
 Number     Number              X              Y              Z
 -------------------------------------------------------------------
      1        6          -0.043537040    0.000000537    0.000000000
      2        1          -0.046848408   -0.019124562   -0.000000001
      3        1          -0.046848054    0.009563146    0.016562857
      4        1          -0.046848054    0.009563148   -0.016562856
      5       17          -0.090206019    0.000001112    0.000000000
      6       35           0.274287576   -0.000003380    0.000000000
 -------------------------------------------------------------------
 Cartesian Forces:  Max     0.274287576 RMS     0.071859369
 Force constants in Cartesian coordinates: 
                1             2             3             4             5 
      1  0.111255D+00
      2  0.696603D-05  0.600054D+00
      3  0.000000D+00  0.000000D+00  0.600055D+00
      4 -0.780816D-02  0.992214D-01  0.000000D+00  0.100673D+00
      5  0.100514D+00 -0.347759D+00  0.000000D+00 -0.718842D-01  0.358261D+00
      6  0.000000D+00  0.000000D+00 -0.521711D-01  0.000000D+00  0.000000D+00
      7 -0.781232D-02 -0.496144D-01 -0.859338D-01 -0.812442D-03  0.765709D-03
      8 -0.502607D-01 -0.126066D+00 -0.127991D+00 -0.826010D-03 -0.794929D-02
      9 -0.870530D-01 -0.127991D+00 -0.273860D+00 -0.407401D-03  0.152770D-02
     10 -0.781232D-02 -0.496144D-01  0.859338D-01 -0.812442D-03  0.765709D-03
     11 -0.502607D-01 -0.126066D+00  0.127991D+00 -0.826011D-03 -0.794929D-02
     12  0.870530D-01  0.127991D+00 -0.273860D+00  0.407401D-03 -0.152770D-02
     13 -0.224811D-01  0.000000D+00  0.000000D+00 -0.213136D-01 -0.356023D-02
     14  0.000000D+00 -0.201583D-01  0.000000D+00  0.979810D-02  0.752790D-02
     15  0.000000D+00  0.000000D+00 -0.201583D-01  0.000000D+00  0.000000D+00
     16 -0.653405D-01  0.156768D-05  0.000000D+00 -0.699267D-01 -0.266010D-01
     17  0.000000D+00  0.199957D-01  0.000000D+00 -0.354834D-01 -0.213124D-02
     18  0.000000D+00  0.000000D+00  0.199954D-01  0.000000D+00  0.000000D+00
                6             7             8             9            10 
      6  0.334494D-01
      7  0.511281D-03  0.100676D+00
      8 -0.226381D-01  0.359438D-01  0.114651D+00
      9  0.423882D-02  0.622580D-01  0.140646D+00  0.277056D+00
     10 -0.511281D-03 -0.812440D-03  0.602626D-04 -0.919129D-03  0.100676D+00
     11  0.226381D-01  0.602625D-04  0.103329D-01 -0.120829D-01  0.359438D-01
     12  0.423883D-02  0.919129D-03  0.120829D-01 -0.140433D-01 -0.622580D-01
     13  0.000000D+00 -0.213134D-01  0.178076D-02  0.308377D-02 -0.213134D-01
     14  0.000000D+00 -0.489858D-02  0.360770D-02  0.226335D-02 -0.489858D-02
     15  0.230087D-02 -0.848514D-02  0.226351D-02  0.622120D-02  0.848514D-02
     16  0.000000D+00 -0.699255D-01  0.133017D-01  0.230378D-01 -0.699255D-01
     17  0.000000D+00  0.177431D-01  0.542403D-02 -0.436291D-02  0.177431D-01
     18  0.794320D-02  0.307302D-01 -0.436300D-02  0.386918D-03 -0.307302D-01
               11            12            13            14            15 
     11  0.114651D+00
     12 -0.140646D+00  0.277056D+00
     13  0.178076D-02 -0.308377D-02  0.173007D+00
     14  0.360770D-02 -0.226335D-02 -0.210614D-05 -0.455677D-02
     15 -0.226351D-02  0.622120D-02  0.000000D+00  0.000000D+00 -0.455662D-02
     16  0.133017D-01 -0.230378D-01 -0.865862D-01  0.113353D-05  0.000000D+00
     17  0.542403D-02  0.436291D-02  0.142497D-05  0.997172D-02  0.000000D+00
     18  0.436300D-02  0.386919D-03  0.000000D+00  0.000000D+00  0.997161D-02
               16            17            18 
     16  0.361705D+00
     17 -0.501528D-05 -0.386842D-01
     18  0.000000D+00  0.000000D+00 -0.386843D-01
 FormGI is forming the generalized inverse of G from B-inverse, IUseBI=4.
 Force constants in internal coordinates: 
                1             2             3             4             5 
      1  0.375551D+00
      2  0.183963D-02  0.375551D+00
      3  0.183963D-02  0.183959D-02  0.375551D+00
      4  0.340515D-02  0.340474D-02  0.340474D-02  0.173007D+00
      5  0.297342D-02  0.297334D-02  0.297334D-02  0.865861D-01  0.361705D+00
      6  0.364774D-03  0.364749D-03 -0.112639D-02 -0.590761D-02  0.206959D-01
      7  0.314123D-03 -0.140201D-02  0.434761D-03 -0.972221D-02  0.340596D-01
      8 -0.121858D-02  0.970667D-03  0.791441D-03  0.808968D-02 -0.283408D-01
      9 -0.108318D-01  0.505464D-02  0.523387D-02 -0.809008D-02  0.283406D-01
     10 -0.140204D-02  0.314102D-03  0.434769D-03 -0.972206D-02  0.340596D-01
     11  0.970634D-03 -0.978127D-03  0.550940D-03  0.808975D-02 -0.283406D-01
     12  0.505457D-02 -0.105915D-01  0.499341D-02 -0.808954D-02  0.283407D-01
     13  0.997137D-03  0.756672D-03 -0.107627D-02  0.100857D-01 -0.353330D-01
     14  0.502807D-02  0.478768D-02 -0.104934D-01 -0.100855D-01  0.353331D-01
     15 -0.120504D-01  0.602531D-02  0.602531D-02  0.000000D+00  0.000000D+00
     16  0.000000D+00  0.104223D-01 -0.104223D-01  0.000000D+00  0.000000D+00
     17  0.273009D-03  0.273035D-03  0.835240D-03  0.205608D-01 -0.720304D-01
     18  0.295201D-03  0.434947D-03 -0.576318D-03  0.228925D-02 -0.802019D-02
     19 -0.379726D-02 -0.365752D-02  0.730101D-02 -0.228936D-02  0.802014D-02
     20 -0.249604D-03  0.684517D-03 -0.358047D-03  0.114473D-02 -0.401002D-02
     21  0.375166D-02 -0.740921D-02  0.358062D-02 -0.114461D-02  0.401007D-02
     22 -0.544805D-03  0.249569D-03  0.218270D-03 -0.114452D-02  0.401017D-02
     23  0.754893D-02 -0.375169D-02 -0.372039D-02  0.114475D-02 -0.401007D-02
                6             7             8             9            10 
      6  0.106191D-01
      7 -0.296416D-02  0.195391D-01
      8 -0.755486D-02 -0.125719D-01  0.482306D-01
      9  0.119816D-01  0.173083D-01 -0.352847D-01  0.862437D-01
     10 -0.296415D-02  0.386633D-02  0.907464D-02 -0.196222D-01  0.195391D-01
     11 -0.773157D-02  0.929232D-02 -0.219193D-01  0.158281D-01 -0.125576D-01
     12  0.118050D-01 -0.194046D-01  0.157856D-01 -0.424797D-01  0.173227D-01
     13  0.104266D-01 -0.178980D-01 -0.148610D-01  0.944067D-02 -0.176947D-01
     14 -0.189268D-01  0.232739D-01  0.804890D-02 -0.337481D-01  0.234772D-01
     15  0.442678D-02  0.473642D-02  0.129459D-01  0.509590D-01 -0.105476D-01
     16 -0.765721D-02  0.943212D-02 -0.413125D-03  0.142759D-02  0.619646D-03
     17 -0.940390D-02 -0.120358D-01  0.118905D-01 -0.135595D-01 -0.120359D-01
[...]
      1  0.247151D+00
      2  0.431541D-05  0.588470D+00
      3  0.000000D+00  0.000000D+00  0.588469D+00
      4 -0.565165D-01  0.839319D-01  0.000000D+00  0.712414D-01
      5  0.818946D-01 -0.320383D+00  0.000000D+00 -0.858698D-01  0.335034D+00
      6  0.000000D+00  0.000000D+00 -0.491809D-01  0.000000D+00  0.000000D+00
      7 -0.565197D-01 -0.419683D-01 -0.726915D-01  0.483703D-02  0.411499D-02
      8 -0.409497D-01 -0.116980D+00 -0.117432D+00 -0.868104D-02 -0.115962D-01
      9 -0.709269D-01 -0.117432D+00 -0.252581D+00  0.260096D-03  0.182570D-02
     10 -0.565197D-01 -0.419684D-01  0.726915D-01  0.483703D-02  0.411499D-02
     11 -0.409497D-01 -0.116980D+00  0.117432D+00 -0.868104D-02 -0.115962D-01
     12  0.709269D-01  0.117432D+00 -0.252581D+00 -0.260097D-03 -0.182570D-02
     13 -0.805075D-01  0.000000D+00  0.000000D+00 -0.231567D-01 -0.525179D-02
     14  0.000000D+00 -0.328446D-01  0.000000D+00  0.189284D-01  0.780988D-02
     15  0.000000D+00  0.000000D+00 -0.328443D-01  0.000000D+00  0.000000D+00
     16  0.291280D-02  0.000000D+00  0.000000D+00 -0.124220D-02  0.997117D-03
     17  0.000000D+00 -0.128228D-02  0.000000D+00  0.371536D-03  0.731546D-03
     18  0.000000D+00  0.000000D+00 -0.128231D-02  0.000000D+00  0.000000D+00
                6             7             8             9            10 
      6  0.457538D-01
      7  0.764755D-02  0.712446D-01
      8 -0.252909D-01  0.429371D-01  0.118072D+00
      9  0.195129D-02  0.743698D-01  0.125260D+00  0.262713D+00
     10 -0.764755D-02  0.483720D-02  0.456570D-02 -0.738796D-02  0.712446D-01
     11  0.252909D-01  0.456570D-02  0.872496D-02 -0.135582D-01  0.429371D-01
     12  0.195129D-02  0.738796D-02  0.135582D-01 -0.183701D-01 -0.743698D-01
     13  0.000000D+00 -0.231569D-01  0.262641D-02  0.454847D-02 -0.231569D-01
     14  0.000000D+00 -0.946370D-02  0.216358D-02  0.326001D-02 -0.946371D-02
     15  0.281285D-03 -0.163921D-01  0.326023D-02  0.592782D-02  0.163921D-01
     16  0.000000D+00 -0.124222D-02 -0.498529D-03 -0.863464D-03 -0.124222D-02
     17  0.000000D+00 -0.185741D-03 -0.384716D-03  0.644500D-03 -0.185741D-03
     18 -0.756818D-03 -0.321725D-03  0.644493D-03  0.359473D-03  0.321725D-03
               11            12            13            14            15 
     11  0.118072D+00
     12 -0.125260D+00  0.262713D+00
     13  0.262641D-02 -0.454847D-02  0.158232D+00
     14  0.216358D-02 -0.326002D-02 -0.175630D-05  0.197509D-01
     15 -0.326023D-02  0.592782D-02  0.000000D+00  0.000000D+00  0.197509D-01
     16 -0.498529D-03  0.863464D-03 -0.825387D-02  0.000000D+00  0.000000D+00
     17 -0.384716D-03 -0.644500D-03  0.000000D+00  0.956595D-03  0.000000D+00
     18 -0.644494D-03  0.359473D-03  0.000000D+00  0.000000D+00  0.956596D-03
               16            17            18 
     16  0.906769D-02
     17  0.000000D+00  0.363569D-03
     18  0.000000D+00  0.000000D+00  0.363569D-03
 FormGI is forming the generalized inverse of G from B-inverse, IUseBI=4.
 Force constants in internal coordinates: 
                1             2             3             4             5 
      1  0.360302D+00
      2  0.185149D-02  0.360302D+00
      3  0.185149D-02  0.185151D-02  0.360302D+00
      4  0.218311D-02  0.218312D-02  0.218312D-02  0.158232D+00
      5 -0.133297D-02 -0.133294D-02 -0.133294D-02  0.825383D-02  0.906769D-02
      6  0.313195D-02  0.313194D-02 -0.228435D-02 -0.642997D-02  0.237147D-03
      7  0.412815D-02 -0.206873D-02  0.455381D-02 -0.106854D-01  0.394092D-03
      8 -0.536751D-02  0.194242D-03 -0.441296D-03  0.907189D-02 -0.334584D-03
      9  0.309279D-02  0.943150D-03  0.157869D-02 -0.907187D-02  0.334589D-03
     10 -0.206874D-02  0.412815D-02  0.455381D-02 -0.106853D-01  0.394089D-03
     11  0.194226D-03 -0.532419D-02 -0.484641D-03  0.907175D-02 -0.334580D-03
     12  0.943135D-03  0.313606D-02  0.153539D-02 -0.907176D-02  0.334577D-03
     13 -0.314901D-03 -0.358229D-03 -0.628747D-02  0.112465D-01 -0.414789D-03
     14  0.145226D-02  0.140897D-02  0.409933D-02 -0.112465D-01  0.414786D-03
     15 -0.227472D-02  0.113739D-02  0.113739D-02  0.000000D+00  0.000000D+00
     16  0.000000D+00  0.196681D-02 -0.196681D-02  0.000000D+00  0.000000D+00
     17 -0.548244D-02 -0.548244D-02 -0.352919D-02  0.234188D-01 -0.863721D-03
     18  0.817952D-03  0.842407D-03 -0.324969D-02  0.256798D-02 -0.947108D-04
     19 -0.146009D-02 -0.143565D-02  0.448509D-02 -0.256798D-02  0.947122D-04
     20 -0.171972D-02  0.256211D-02 -0.163708D-02  0.128400D-02 -0.473560D-04
     21  0.236186D-02 -0.379751D-02  0.223032D-02 -0.128401D-02  0.473547D-04
     22 -0.253767D-02  0.171970D-02  0.161261D-02 -0.128398D-02  0.473548D-04
     23  0.382195D-02 -0.236186D-02 -0.225477D-02  0.128397D-02 -0.473575D-04
                6             7             8             9            10 
      6  0.924742D-02
      7 -0.257494D-02  0.150126D-01
      8 -0.714260D-02 -0.104253D-01  0.455207D-01
      9  0.429704D-02  0.739326D-02 -0.188513D-01  0.108610D-01
     10 -0.257494D-02 -0.222248D-03  0.100078D-01 -0.327286D-02  0.150126D-01
     11 -0.703438D-02  0.987549D-02 -0.202389D-01  0.640334D-02 -0.104338D-01
     12  0.440527D-02 -0.340520D-02  0.642876D-02 -0.193276D-02  0.738475D-02
     13  0.984516D-02 -0.123641D-01 -0.172895D-01  0.354928D-02 -0.124879D-01
     14 -0.437049D-02  0.892580D-02  0.443029D-02 -0.295743D-04  0.880198D-02
     15 -0.284555D-02 -0.303201D-02  0.266694D-01 -0.799029D-02  0.673496D-02
     16  0.492102D-02 -0.601697D-02  0.577430D-03 -0.577416D-03 -0.386741D-03
     17 -0.821911D-02 -0.718817D-02  0.946684D-02 -0.844068D-02 -0.718818D-02
     18  0.303484D-02 -0.338421D-02  0.574743D-02 -0.189845D-02 -0.331430D-02
     19 -0.612578D-02  0.532542D-02  0.151275D-02 -0.887381D-04  0.539533D-02
     20  0.154797D-02 -0.505454D-02 -0.349394D-02 -0.186256D-03  0.166553D-02
     21 -0.303234D-02  0.870760D-02 -0.430310D-02  0.271030D-02 -0.338698D-02
     22 -0.148687D-02 -0.167033D-02 -0.924137D-02  0.171219D-02  0.497983D-02
     23  0.309344D-02  0.338217D-02 -0.581584D-02  0.279903D-02 -0.878231D-02
               11            12            13            14            15 
     11  0.445281D-01
     12 -0.191976D-01  0.111612D-01
     13 -0.162624D-01  0.390457D-02  0.494168D-01
     14  0.476740D-02 -0.364250D-03 -0.233187D-01  0.145148D-01
     15 -0.138355D-01  0.449600D-02 -0.137402D-01  0.440071D-02  0.186791D-01
     16 -0.223623D-01  0.702990D-02  0.233523D-01 -0.801995D-02  0.000000D+00
     17  0.942784D-02 -0.847970D-02  0.499269D-02 -0.696698D-02  0.102615D-02
     18  0.531620D-02 -0.195038D-02 -0.719049D-02 -0.243116D-04  0.384898D-02
     19  0.117375D-02 -0.484451D-04 -0.754420D-02  0.499488D-02  0.142401D-02
     20  0.881946D-02 -0.176916D-02 -0.337921D-02  0.910634D-05 -0.368020D-02
     21  0.548189D-02 -0.276806D-02 -0.359790D-02  0.247687D-02 -0.159280D-02
     22  0.350325D-02  0.181223D-03  0.381128D-02  0.334179D-04 -0.752918D-02
     23  0.430814D-02 -0.271961D-02  0.394630D-02 -0.251801D-02 -0.301681D-02
               16            17            18            19            20 
     16  0.186211D-01
     17 -0.177465D-02  0.207533D-01
     18 -0.642507D-02  0.856254D-03  0.986921D-02
     19 -0.223141D-02  0.258412D-03 -0.579582D-02  0.723513D-02
     20 -0.632778D-02  0.417111D-03  0.485460D-02 -0.295188D-02  0.991431D-02
     21 -0.232872D-02  0.118199D-03 -0.295429D-02  0.358722D-02 -0.593379D-02
     22  0.972954D-04 -0.439142D-03 -0.501461D-02  0.284394D-02  0.505971D-02
     23 -0.973033D-04 -0.140213D-03  0.284152D-02 -0.364792D-02 -0.298191D-02
               21            22            23 
     21  0.746599D-02
     22 -0.297950D-02  0.100743D-01
     23  0.387877D-02 -0.582343D-02  0.752669D-02
 Leave Link  716 at Thu Oct 17 18:29:36 2019, MaxMem=   280000000 cpu:               2.8 elap:               0.2
 (Enter /home/soft/g16/l103.exe)

 GradGradGradGradGradGradGradGradGradGradGradGradGradGradGradGradGradGrad
 Berny optimization.
 Red2BG is reusing G-inverse.
 Internal  Forces:  Max     0.000004114 RMS     0.000000988
 Search for a local minimum.
 Step number   1 out of a maximum of    2
 All quantities printed in internal units (Hartrees-Bohrs-Radians)
 Second derivative matrix not updated -- analytic derivatives used.
 ITU=  0
     Eigenvalues ---    0.00416   0.00430   0.00821   0.02826   0.03153
     Eigenvalues ---    0.04095   0.10049   0.10254   0.17071   0.35891
     Eigenvalues ---    0.35893   0.36462
 Angle between quadratic step and forces=  31.00 degrees.
 Linear search not attempted -- first point.
 Iteration  1 RMS(Cart)=  0.00008798 RMS(Int)=  0.00000000
 Iteration  2 RMS(Cart)=  0.00000000 RMS(Int)=  0.00000000
 ITry= 1 IFail=0 DXMaxC= 3.85D-04 DCOld= 1.00D+10 DXMaxT= 3.00D-01 DXLimC= 3.00D+00 Rises=F
 ClnCor:  largest displacement from symmetrization is 6.29D-09 for atom     5.
 Variable       Old X    -DE/DX   Delta X   Delta X   Delta X     New X
                                 (Linear)    (Quad)   (Total)
    R1        2.04355  -0.00000   0.00000   0.00000   0.00000   2.04355
    R2        2.04355  -0.00000   0.00000   0.00000   0.00000   2.04355
    R3        2.04355  -0.00000   0.00000   0.00000   0.00000   2.04355
    R4        3.48481   0.00000   0.00000  -0.00001  -0.00001   3.48480
    R5        6.22941   0.00000   0.00000   0.00046   0.00046   6.22988
    A1        1.93470   0.00000   0.00000  -0.00000  -0.00000   1.93470
    A2        1.93470   0.00000   0.00000  -0.00000  -0.00000   1.93470
    A3        1.88590  -0.00000   0.00000   0.00000   0.00000   1.88590
    A4        1.25569   0.00000   0.00000  -0.00000  -0.00000   1.25569
    A5        1.93470   0.00000   0.00000  -0.00000  -0.00000   1.93470
    A6        1.88590  -0.00000   0.00000   0.00000   0.00000   1.88590
    A7        1.25569   0.00000   0.00000  -0.00000  -0.00000   1.25569
    A8        1.88590  -0.00000   0.00000   0.00000   0.00000   1.88590
    A9        1.25569   0.00000   0.00000  -0.00000  -0.00000   1.25569
   A10        3.14159   0.00000   0.00000  -0.00000   0.00000   3.14159
   A11        3.14159   0.00000   0.00000   0.00000   0.00000   3.14159
    D1       -2.15630  -0.00000   0.00000   0.00000   0.00000  -2.15630
    D2        2.09440  -0.00000   0.00000  -0.00000   0.00000   2.09440
    D3       -2.09440   0.00000   0.00000  -0.00000  -0.00000  -2.09440
    D4       -2.09440  -0.00000   0.00000   0.00000   0.00000  -2.09440
    D5        2.09440   0.00000   0.00000   0.00000   0.00000   2.09440
    D6        2.09440   0.00000   0.00000   0.00000   0.00000   2.09440
    D7       -2.09440  -0.00000   0.00000   0.00000   0.00000  -2.09440
         Item               Value     Threshold  Converged?
 Maximum Force            0.000004     0.000450     YES
 RMS     Force            0.000001     0.000300     YES
 Maximum Displacement     0.000385     0.001800     YES
 RMS     Displacement     0.000088     0.001200     YES
 Predicted change in Energy=-9.435769D-10
 Optimization completed.
    -- Stationary point found.
                           ----------------------------
                           !   Optimized Parameters   !
                           ! (Angstroms and Degrees)  !
 --------------------------                            --------------------------
 ! Name  Definition              Value          Derivative Info.                !
 --------------------------------------------------------------------------------
 ! R1    R(1,2)                  1.0814         -DE/DX =    0.0                 !
 ! R2    R(1,3)                  1.0814         -DE/DX =    0.0                 !
 ! R3    R(1,4)                  1.0814         -DE/DX =    0.0                 !
 ! R4    R(1,5)                  1.8441         -DE/DX =    0.0                 !
 ! R5    R(1,6)                  3.2965         -DE/DX =    0.0                 !
 ! A1    A(2,1,3)              110.8503         -DE/DX =    0.0                 !
 ! A2    A(2,1,4)              110.8503         -DE/DX =    0.0                 !
 ! A3    A(2,1,5)              108.0542         -DE/DX =    0.0                 !
 ! A4    A(2,1,6)               71.9458         -DE/DX =    0.0                 !
 ! A5    A(3,1,4)              110.8503         -DE/DX =    0.0                 !
 ! A6    A(3,1,5)              108.0542         -DE/DX =    0.0                 !
 ! A7    A(3,1,6)               71.9458         -DE/DX =    0.0                 !
 ! A8    A(4,1,5)              108.0542         -DE/DX =    0.0                 !
 ! A9    A(4,1,6)               71.9458         -DE/DX =    0.0                 !
 ! A10   L(5,1,6,2,-1)         180.0            -DE/DX =    0.0                 !
 ! A11   L(5,1,6,2,-2)         180.0            -DE/DX =    0.0                 !
 ! D1    D(2,1,4,3)           -123.547          -DE/DX =    0.0                 !
 ! D2    D(2,1,5,3)            120.0            -DE/DX =    0.0                 !
 ! D3    D(2,1,6,3)           -120.0            -DE/DX =    0.0                 !
 ! D4    D(2,1,5,4)           -120.0            -DE/DX =    0.0                 !
 ! D5    D(2,1,6,4)            120.0            -DE/DX =    0.0                 !
 ! D6    D(3,1,5,4)            120.0            -DE/DX =    0.0                 !
 ! D7    D(3,1,6,4)           -120.0            -DE/DX =    0.0                 !
 --------------------------------------------------------------------------------
 GradGradGradGradGradGradGradGradGradGradGradGradGradGradGradGradGradGrad

 Leave Link  103 at Thu Oct 17 18:29:36 2019, MaxMem=   280000000 cpu:               6.3 elap:               0.4
 (Enter /home/soft/g16/l9999.exe)

 ----------------------------------------------------------------------

 Electric dipole moment (input orientation):
 (Debye = 10**-18 statcoulomb cm , SI units = C m)
                  (au)            (Debye)         (10**-30 SI)
   Tot        0.187865D+01      0.477504D+01      0.159278D+02
   x         -0.187865D+01     -0.477504D+01     -0.159278D+02
   y          0.231514D-04      0.588450D-04      0.196286D-03
   z          0.000000D+00      0.000000D+00      0.000000D+00

 Dipole polarizability, Alpha (input orientation).
 (esu units = cm**3 , SI units = C**2 m**2 J**-1)
 Alpha(0;0):
               (au)            (10**-24 esu)      (10**-40 SI)
   iso        0.551051D+02      0.816574D+01      0.908561D+01
   aniso      0.467398D+02      0.692612D+01      0.770635D+01
   xx         0.862650D+02      0.127832D+02      0.142232D+02
   yx        -0.982845D-03     -0.145643D-03     -0.162049D-03
   yy         0.395264D+02      0.585721D+01      0.651703D+01
   zx         0.000000D+00      0.000000D+00      0.000000D+00
   zy         0.000000D+00      0.000000D+00      0.000000D+00
   zz         0.395240D+02      0.585685D+01      0.651663D+01

 ----------------------------------------------------------------------

 Dipole orientation:
     6         -0.00001956         -1.58700216          2.27235484
     1         -0.00004364         -3.52993272          1.63902653
     1          1.68261971         -0.61555773          1.63902653
     1         -1.68263475         -0.61551602          1.63902653
    17         -0.00001956         -1.58700216          5.75716302
    35         -0.00001956         -1.58700216         -3.95705639

 Electric dipole moment (dipole orientation):
 (Debye = 10**-18 statcoulomb cm , SI units = C m)
                  (au)            (Debye)         (10**-30 SI)
   Tot        0.187865D+01      0.477504D+01      0.159278D+02
   x          0.000000D+00      0.000000D+00      0.000000D+00
   y          0.000000D+00      0.000000D+00      0.000000D+00
   z          0.187865D+01      0.477504D+01      0.159278D+02

 Dipole polarizability, Alpha (dipole orientation).
 (esu units = cm**3 , SI units = C**2 m**2 J**-1)
 Alpha(0;0):
               (au)            (10**-24 esu)      (10**-40 SI)
   iso        0.551051D+02      0.816574D+01      0.908561D+01
   aniso      0.467398D+02      0.692612D+01      0.770635D+01
   xx         0.395240D+02      0.585685D+01      0.651663D+01
   yx         0.000000D+00      0.000000D+00      0.000000D+00
   yy         0.395264D+02      0.585721D+01      0.651703D+01
   zx         0.000000D+00      0.000000D+00      0.000000D+00
   zy         0.406866D-03      0.602913D-04      0.670831D-04
   zz         0.862650D+02      0.127832D+02      0.142232D+02

 ----------------------------------------------------------------------
 1\1\GINC-NODE03\Freq\RB3LYP\def2TZVP\C1H3Br1Cl1(1-)\ROOT\17-Oct-2019\0
 \\#P Geom=AllCheck Guess=TCheck SCRF=Check GenChk RB3LYP/def2TZVP Freq
 \\Title Card Required\\-1,1\C,-1.2024887431,-0.8397905565,0.\H,-0.8673
 585087,-1.8679492653,-0.0000000716\H,-0.8673395031,-0.3257174593,0.890
 4080201\H,-0.8673395031,-0.3257173352,-0.8904079484\Cl,-3.0465698174,-
 0.839767831,0.\Br,2.0939737155,-0.8398311802,0.\\Version=ES64L-G16RevA
 .03\State=1-A1\HF=-3074.4431229\RMSD=1.883e-09\RMSF=1.122e-06\ZeroPoin
 t=0.0377499\Thermal=0.0431978\Dipole=-1.8786469,0.0000232,0.\DipoleDer
 iv=1.469998,-0.0000044,0.,-0.0000139,0.0467613,0.,0.,0.,0.0467639,-0.0
 029943,0.0271822,0.,0.018788,-0.0072266,0.,0.,0.,0.0758905,-0.0029957,
 -0.0135899,-0.0235403,-0.0093934,0.0551117,-0.0359905,-0.0162726,-0.03
 59934,0.0135519,-0.0029957,-0.0135899,0.0235403,-0.0093934,0.0551117,0
 .0359905,0.0162726,0.0359934,0.0135519,-1.2674175,-0.0000009,0.,0.0000
 083,-0.2578682,0.,0.,0.,-0.2578662,-1.1935935,0.0000019,0.,0.0000045,-
 0.8918899,0.,0.,0.,-0.8918895\Polar=86.2649814,-0.0009828,39.5264331,0
 .,0.,39.524014\Quadrupole=-15.3985734,7.6992867,7.6992867,0.0002846,0.
 ,0.\PG=C03V [C3(Cl1C1Br1),3SGV(H1)]\NImag=0\\0.24715099,0.00000432,0.5
 8846980,0.,0.,0.58846921,-0.05651651,0.08393193,0.,0.07124138,0.081894
 55,-0.32038321,-0.00000002,-0.08586977,0.33503426,0.,-0.00000002,-0.04
 918085,0.,0.00000002,0.04575380,-0.05651974,-0.04196834,-0.07269146,0.
 00483703,0.00411499,0.00764755,0.07124456,-0.04094970,-0.11697988,-0.1
 1743224,-0.00868104,-0.01159623,-0.02529090,0.04293708,0.11807231,-0.0
 7092692,-0.11743237,-0.25258099,0.00026010,0.00182570,0.00195129,0.074
 36977,0.12526027,0.26271258,-0.05651974,-0.04196835,0.07269145,0.00483
 703,0.00411499,-0.00764755,0.00483720,0.00456570,-0.00738796,0.0712445
 6,-0.04094971,-0.11697991,0.11743226,-0.00868104,-0.01159624,0.0252908
 9,0.00456570,0.00872496,-0.01355816,0.04293709,0.11807235,0.07092691,0
 .11743239,-0.25258096,-0.00026010,-0.00182570,0.00195129,0.00738796,0.
 01355816,-0.01837008,-0.07436976,-0.12526029,0.26271254,-0.08050746,0.
 00000055,0.,-0.02315672,-0.00525179,0.,-0.02315686,0.00262641,0.004548
 47,-0.02315686,0.00262641,-0.00454847,0.15823155,0.00000074,-0.0328445
 6,0.,0.01892836,0.00780988,0.,-0.00946370,0.00216358,0.00326001,-0.009
 46371,0.00216358,-0.00326002,-0.00000176,0.01975088,0.,0.,-0.03284433,
 0.,0.,0.00028128,-0.01639212,0.00326023,0.00592782,0.01639212,-0.00326
 023,0.00592782,0.,0.,0.01975091,0.00291280,-0.00000009,0.,-0.00124220,
 0.00099712,0.,-0.00124222,-0.00049853,-0.00086346,-0.00124222,-0.00049
 853,0.00086346,-0.00825387,0.00000012,0.,0.00906769,-0.00000009,-0.001
 28228,0.,0.00037154,0.00073155,0.,-0.00018574,-0.00038472,0.00064450,-
 0.00018574,-0.00038472,-0.00064450,0.00000014,0.00095659,0.,-0.0000001
 1,0.00036357,0.,0.,-0.00128231,0.,0.,-0.00075682,-0.00032172,0.0006444
 9,0.00035947,0.00032172,-0.00064449,0.00035947,0.,0.,0.00095660,0.,0.,
 0.00036357\\-0.00000011,0.,0.,0.00000073,-0.00000003,0.,0.00000073,0.0
 0000001,0.00000003,0.00000073,0.00000001,-0.00000003,0.00000203,0.,0.,
 -0.00000411,0.,0.\\\@


 BREAD HAS TO MOLD IN ORDER TO GET PENICILLIN.
          -- JERRY BOATZ
 Job cpu time:       0 days  0 hours  4 minutes  0.7 seconds.
 Elapsed time:       0 days  0 hours  0 minutes 10.8 seconds.
 File lengths (MBytes):  RWF=    332 Int=      0 D2E=      0 Chk=      8 Scr=      8
 Normal termination of Gaussian 16 at Thu Oct 17 18:29:36 2019.
