Title Card Required                                                     
Freq      RB3LYP                                                      def2TZVP            
Number of atoms                            I                6
Info1-9                                    I   N=           9
          14          14        1002           0           1         100
           6          18        -502
Full Title                                 C   N=           2
Title Card Required     
Route                                      C   N=           8
#p opt=(calcall,ts,noeigen) freq b3lyp def2tzvp em=gd3bj scr
f=(cpcm,solvent=dichloromethane)    
Charge                                     I               -1
Multiplicity                               I                1
Number of electrons                        I               62
Number of alpha electrons                  I               31
Number of beta electrons                   I               31
Number of basis functions                  I              134
Number of independent functions            I              134
Number of point charges in /Mol/           I                0
Number of translation vectors              I                0
Atomic numbers                             I   N=           6
           6           1           1           1          17          35
Nuclear charges                            R   N=           6
  6.00000000E+00  1.00000000E+00  1.00000000E+00  1.00000000E+00  1.70000000E+01
  3.50000000E+01
Current cartesian coordinates              R   N=          18
 -1.40612320E+00 -9.29494898E-05  2.46453775E-03 -1.44087401E+00  1.73857974E+00
 -1.03181797E+00 -1.44101086E+00 -1.76531442E+00 -9.85840644E-01 -1.44097776E+00
  2.64540142E-02  2.02543600E+00 -5.92531894E+00  2.66011888E-05 -6.75256534E-04
  3.24257211E+00  1.10326852E-05 -3.16721567E-04
Number of symbols in /Mol/                 I                0
Force Field                                I                0
Atom Types                                 C   N=           6
                                                            
            
Int Atom Types                             I   N=           6
           0           0           0           0           0           0
MM charges                                 R   N=           6
  0.00000000E+00  0.00000000E+00  0.00000000E+00  0.00000000E+00  0.00000000E+00
  0.00000000E+00
Integer atomic weights                     I   N=           6
          12           1           1           1          35          79
Real atomic weights                        R   N=           6
  1.20000000E+01  1.00782504E+00  1.00782504E+00  1.00782504E+00  3.49688527E+01
  7.89183361E+01
Atom fragment info                         I   N=           6
           0           0           0           0           0           0
Atom residue num                           I   N=           6
           0           0           0           0           0           0
Nuclear spins                              I   N=           6
           0           1           1           1           3           3
Nuclear ZEff                               R   N=           6
 -3.60000000E+00 -1.00000000E+00 -1.00000000E+00 -1.00000000E+00 -1.42400000E+01
 -2.45000000E+01
Nuclear ZNuc                               R   N=           6
  6.00000000E+00  1.00000000E+00  1.00000000E+00  1.00000000E+00  1.70000000E+01
  3.50000000E+01
Nuclear QMom                               R   N=           6
  0.00000000E+00  0.00000000E+00  0.00000000E+00  0.00000000E+00 -8.16500000E+00
  3.13000000E+01
Nuclear GFac                               R   N=           6
  0.00000000E+00  2.79284600E+00  2.79284600E+00  2.79284600E+00  8.21874000E-01
  2.10639900E+00
MicOpt                                     I   N=           6
          -1          -1          -1          -1          -1          -1
Number of residues                         I                0
Number of secondary structures             I                0
Redundant internal dimensions              I   N=           4
          23           5          11           7
Redundant internal coordinate indices      I   N=          92
           1           2           0           0           1           3
           0           0           1           4           0           0
           1           5           0           0           1           6
           0           0           2           1           3           0
           2           1           4           0           2           1
           5           0           2           1           6           0
           3           1           4           0           3           1
           5           0           3           1           6           0
           4           1           5           0           4           1
           6           0           5           1           6         -21
           5           1           6         -22           2           1
           4           3           2           1           5           3
           2           1           6           3           2           1
           5           4           2           1           6           4
           3           1           5           4           3           1
           6           4
Redundant internal coordinates             R   N=          23
  2.02334640E+00  2.02335640E+00  2.02344586E+00  4.51919683E+00  4.64869615E+00
  2.09404759E+00  2.09380020E+00  1.55324264E+00  1.58764698E+00  2.09379796E+00
  1.55323668E+00  1.58776689E+00  1.55426449E+00  1.58862047E+00  3.14088962E+00
  3.14267915E+00  3.08198413E+00  2.09458145E+00 -2.09454287E+00 -2.09430296E+00
  2.09432052E+00  2.09430089E+00 -2.09432192E+00
ZRed-IntVec                                I   N=          23
           0           0           0           0           0           0
           0           0           0           0           0           0
           0           0           0           0           0           0
           0           0           0           0           0
ZRed-FPVec                                 R   N=          23
  0.00000000E+00  0.00000000E+00  0.00000000E+00  0.00000000E+00  0.00000000E+00
  0.00000000E+00  0.00000000E+00  0.00000000E+00  0.00000000E+00  0.00000000E+00
  0.00000000E+00  0.00000000E+00  0.00000000E+00  0.00000000E+00  0.00000000E+00
  0.00000000E+00  0.00000000E+00  0.00000000E+00  0.00000000E+00  0.00000000E+00
  0.00000000E+00  0.00000000E+00  0.00000000E+00
ZRed-Constraint1                           R   N=          23
  2.02334640E+00  2.02335640E+00  2.02344586E+00  4.51919683E+00  4.64869615E+00
  2.09404759E+00  2.09380020E+00  1.55324264E+00  1.58764698E+00  2.09379796E+00
  1.55323668E+00  1.58776689E+00  1.55426449E+00  1.58862047E+00  3.14088962E+00
  3.14267915E+00  3.08198413E+00  2.09458145E+00 -2.09454287E+00 -2.09430296E+00
  2.09432052E+00  2.09430089E+00 -2.09432192E+00
ZRed-Constraint2                           R   N=          23
  2.02149883E+00  2.02150032E+00  2.02152620E+00  4.61364733E+00  4.56930300E+00
  2.09003151E+00  2.08994594E+00  1.52012899E+00  1.62132282E+00  2.08994152E+00
  1.52013590E+00  1.62132903E+00  1.52037807E+00  1.62148316E+00  3.14145181E+00
  3.14182176E+00  2.96689774E+00  2.09446829E+00 -2.09444473E+00 -2.09436103E+00
  2.09437223E+00  2.09435599E+00 -2.09436834E+00
SymInf integers                            I   N=          26
           1           1           1           1           1           0
           0           0           0           0           0           0
           0           0           0           0           0           0
           0           0           0           0           0           0
           0           0
RotTr to input orientation                 R   N=          12
 -1.00000000E+00 -7.40358643E-06 -2.86652908E-05  6.24867353E-06 -9.99196392E-01
  4.00820395E-02 -2.89390060E-05  4.00820393E-02  9.99196392E-01 -1.25263923E-02
 -1.09542140E-04 -1.24892001E-03
Number of contracted shells                I               52
Number of primitive shells                 I              104
Pure/Cartesian d shells                    I                0
Pure/Cartesian f shells                    I                0
Highest angular momentum                   I                3
Largest degree of contraction              I                8
Shell types                                I   N=          52
           0           0           0           0           0           1
           1           1          -2          -2          -3           0
           0           0           1           0           0           0
           1           0           0           0           1           0
           0           0           0           0           1           1
           1           1           1          -2          -2          -3
           0           0           0           0           0           0
           1           1           1           1           1          -2
          -2          -2          -2          -3
Number of primitives per shell             I   N=          52
           6           2           1           1           1           4
           1           1           1           1           1           3
           1           1           1           3           1           1
           1           3           1           1           1           7
           3           2           1           1           5           1
           1           1           1           2           1           1
           8           4           2           1           1           1
           6           4           1           1           1           5
           1           1           1           1
Shell to atom map                          I   N=          52
           1           1           1           1           1           1
           1           1           1           1           1           2
           2           2           2           3           3           3
           3           4           4           4           4           5
           5           5           5           5           5           5
           5           5           5           5           5           5
           6           6           6           6           6           6
           6           6           6           6           6           6
           6           6           6           6
Primitive exponents                        R   N=         104
  1.35753497E+04  2.03523337E+03  4.63225624E+02  1.31200196E+02  4.28530159E+01
  1.55841858E+01  6.20671385E+00  2.57648965E+00  5.76963394E-01  2.29728314E-01
  9.51644400E-02  3.46972322E+01  7.95826228E+00  2.37808269E+00  8.14332082E-01
  2.88875473E-01  1.00568237E-01  1.09700000E+00  3.18000000E-01  7.61000000E-01
  3.40613410E+01  5.12357460E+00  1.16466260E+00  3.27230410E-01  1.03072410E-01
  8.00000000E-01  3.40613410E+01  5.12357460E+00  1.16466260E+00  3.27230410E-01
  1.03072410E-01  8.00000000E-01  3.40613410E+01  5.12357460E+00  1.16466260E+00
  3.27230410E-01  1.03072410E-01  8.00000000E-01  6.95079909E+04  1.04261569E+04
  2.37323341E+03  6.71564201E+02  2.18419998E+02  7.75722497E+01  2.88888153E+01
  1.27105272E+02  3.93395830E+01  7.67406800E+00  3.87456276E+00  1.83858326E+00
  5.02290575E-01  1.79627234E-01  6.66504233E+02  1.57642417E+02  5.02625210E+01
  1.85360781E+01  7.29405328E+00  2.94332490E+00  1.04049708E+00  3.84564151E-01
  1.30696427E-01  4.61000000E+00  1.01100000E+00  3.39000000E-01  7.06000000E-01
  5.65073253E+05  8.47017232E+04  1.92762719E+04  5.45642846E+03  1.77695035E+03
  6.39193983E+02  2.48788240E+02  9.86783055E+01  6.06078246E+02  1.88455985E+02
  3.14971445E+01  1.37360083E+01  2.12032128E+01  3.76164202E+00  1.77359340E+00
  4.51974137E-01  1.66133771E-01  3.01969557E+03  7.15354811E+02  2.29983288E+02
  8.61678446E+01  3.46678708E+01  1.41138703E+01  5.70856531E+01  8.81938458E+00
  3.93403029E+00  1.79988304E+00  6.68994105E-01  2.71362382E-01  1.00837902E-01
  1.68853703E+02  4.99779499E+01  1.82749133E+01  7.24556946E+00  2.85623150E+00
  1.04596211E+00  5.68656550E-01  2.20314900E-01  5.70833120E-01
Contraction coefficients                   R   N=         104
  6.06455036E-04  4.69790889E-03  2.43324776E-02  9.73999683E-02  3.01955843E-01
  6.62336091E-01  6.55953085E-01  3.75856333E-01  1.00000000E+00  1.00000000E+00
  1.00000000E+00  1.13272200E-02  7.61696592E-02  3.01922522E-01  7.27850273E-01
  1.00000000E+00  1.00000000E+00  1.00000000E+00  1.00000000E+00  1.00000000E+00
  2.54393072E-02  1.90085949E-01  8.52441130E-01  1.00000000E+00  1.00000000E+00
  1.00000000E+00  2.54393072E-02  1.90085949E-01  8.52441130E-01  1.00000000E+00
  1.00000000E+00  1.00000000E+00  2.54393072E-02  1.90085949E-01  8.52441130E-01
  1.00000000E+00  1.00000000E+00  1.00000000E+00  5.14573896E-04  3.97813448E-03
  2.04561787E-02  8.01481029E-02  2.34547703E-01  4.45433686E-01  3.54668425E-01
  1.12936881E-01  4.83735142E-01 -1.22922974E+00  6.72968216E-01  3.49560514E-01
  1.00000000E+00  1.00000000E+00  3.35025082E-03  2.67639704E-02  1.23626824E-01
  3.58457879E-01  6.16772964E-01  1.00000000E+00  1.00000000E+00  1.00000000E+00
  1.00000000E+00  1.82658350E-01  9.13291752E-01  1.00000000E+00  1.00000000E+00
  2.31399680E-04  1.79448090E-03  9.33663283E-03  3.80221412E-02  1.24386082E-01
  2.97682655E-01  4.35124787E-01  2.38454326E-01 -2.58029981E-02 -1.21437702E-01
  5.49271541E-01  5.40386743E-01 -4.18976571E-01  1.19629220E+00  1.00000000E+00
  1.00000000E+00  1.00000000E+00  2.69789672E-03  2.20611770E-02  1.04688630E-01
  3.03097102E-01  4.81931819E-01  2.63728834E-01 -1.92881876E-02  2.88644595E-01
  5.10580635E-01  2.96268745E-01  1.00000000E+00  1.00000000E+00  1.00000000E+00
  9.84282772E-03  6.81283771E-02  2.35738015E-01  4.42779544E-01  4.63345555E-01
  1.00000000E+00  1.00000000E+00  1.00000000E+00  1.00000000E+00
Coordinates of each shell                  R   N=         156
 -1.40612320E+00 -9.29494898E-05  2.46453775E-03 -1.40612320E+00 -9.29494898E-05
  2.46453775E-03 -1.40612320E+00 -9.29494898E-05  2.46453775E-03 -1.40612320E+00
 -9.29494898E-05  2.46453775E-03 -1.40612320E+00 -9.29494898E-05  2.46453775E-03
 -1.40612320E+00 -9.29494898E-05  2.46453775E-03 -1.40612320E+00 -9.29494898E-05
  2.46453775E-03 -1.40612320E+00 -9.29494898E-05  2.46453775E-03 -1.40612320E+00
 -9.29494898E-05  2.46453775E-03 -1.40612320E+00 -9.29494898E-05  2.46453775E-03
 -1.40612320E+00 -9.29494898E-05  2.46453775E-03 -1.44087401E+00  1.73857974E+00
 -1.03181797E+00 -1.44087401E+00  1.73857974E+00 -1.03181797E+00 -1.44087401E+00
  1.73857974E+00 -1.03181797E+00 -1.44087401E+00  1.73857974E+00 -1.03181797E+00
 -1.44101086E+00 -1.76531442E+00 -9.85840644E-01 -1.44101086E+00 -1.76531442E+00
 -9.85840644E-01 -1.44101086E+00 -1.76531442E+00 -9.85840644E-01 -1.44101086E+00
 -1.76531442E+00 -9.85840644E-01 -1.44097776E+00  2.64540142E-02  2.02543600E+00
 -1.44097776E+00  2.64540142E-02  2.02543600E+00 -1.44097776E+00  2.64540142E-02
  2.02543600E+00 -1.44097776E+00  2.64540142E-02  2.02543600E+00 -5.92531894E+00
  2.66011888E-05 -6.75256534E-04 -5.92531894E+00  2.66011888E-05 -6.75256534E-04
 -5.92531894E+00  2.66011888E-05 -6.75256534E-04 -5.92531894E+00  2.66011888E-05
 -6.75256534E-04 -5.92531894E+00  2.66011888E-05 -6.75256534E-04 -5.92531894E+00
  2.66011888E-05 -6.75256534E-04 -5.92531894E+00  2.66011888E-05 -6.75256534E-04
 -5.92531894E+00  2.66011888E-05 -6.75256534E-04 -5.92531894E+00  2.66011888E-05
 -6.75256534E-04 -5.92531894E+00  2.66011888E-05 -6.75256534E-04 -5.92531894E+00
  2.66011888E-05 -6.75256534E-04 -5.92531894E+00  2.66011888E-05 -6.75256534E-04
 -5.92531894E+00  2.66011888E-05 -6.75256534E-04  3.24257211E+00  1.10326852E-05
 -3.16721567E-04  3.24257211E+00  1.10326852E-05 -3.16721567E-04  3.24257211E+00
  1.10326852E-05 -3.16721567E-04  3.24257211E+00  1.10326852E-05 -3.16721567E-04
  3.24257211E+00  1.10326852E-05 -3.16721567E-04  3.24257211E+00  1.10326852E-05
 -3.16721567E-04  3.24257211E+00  1.10326852E-05 -3.16721567E-04  3.24257211E+00
  1.10326852E-05 -3.16721567E-04  3.24257211E+00  1.10326852E-05 -3.16721567E-04
  3.24257211E+00  1.10326852E-05 -3.16721567E-04  3.24257211E+00  1.10326852E-05
 -3.16721567E-04  3.24257211E+00  1.10326852E-05 -3.16721567E-04  3.24257211E+00
  1.10326852E-05 -3.16721567E-04  3.24257211E+00  1.10326852E-05 -3.16721567E-04
  3.24257211E+00  1.10326852E-05 -3.16721567E-04  3.24257211E+00  1.10326852E-05
 -3.16721567E-04
Num ILSW                                   I              100
ILSW                                       I   N=         100
           0           0           0           0           2           0
           0           0           0           0         402          -1
           5           0           0           0           2           0
           0           0           0           0           1           0
           1           0           0           0           0           0
           0           0      100000           0          -1           0
           0           0           0           0           0           0
           0           0           0           1           0           0
           0 -2000000000           1           0           0           0
           0           0         141          52           0           0
           0           0           5           0           0           0
           0           0           0           6           0           1
           0           0           0           0           0           0
           0           0           0           0           0           0
           0           0           0           0           0           0
           0           0           0           0           0           0
           0           0           0           0
Num RLSW                                   I               52
RLSW                                       R   N=          52
  8.00000000E-01  7.20000000E-01  1.00000000E+00  8.10000000E-01  2.00000000E-01
  0.00000000E+00  0.00000000E+00  1.00000000E+00  0.00000000E+00  0.00000000E+00
  0.00000000E+00  0.00000000E+00  1.00000000E+00  0.00000000E+00  0.00000000E+00
  0.00000000E+00  0.00000000E+00  1.00000000E+00  0.00000000E+00  0.00000000E+00
  0.00000000E+00  0.00000000E+00  1.00000000E+00  0.00000000E+00  0.00000000E+00
  0.00000000E+00  0.00000000E+00  1.00000000E+00  0.00000000E+00  0.00000000E+00
  0.00000000E+00  0.00000000E+00  1.00000000E+00  0.00000000E+00  0.00000000E+00
  0.00000000E+00  0.00000000E+00  0.00000000E+00  1.00000000E+00  1.00000000E+00
  0.00000000E+00  1.00000000E+00  0.00000000E+00  0.00000000E+00  0.00000000E+00
  0.00000000E+00  0.00000000E+00  0.00000000E+00  0.00000000E+00  0.00000000E+00
  0.00000000E+00  0.00000000E+00
ECP-MxAtEC                                 I           250000
ECP-MaxLECP                                I               10
ECP-MaxAtL                                 I          2250000
ECP-MxTECP                                 I         11250000
ECP-LenNCZ                                 I                0
ECP-KFirst                                 I   N=          60
           0           0           0           0           0           0
           0           0           0           0           0           0
           0           0           0           0           0           0
           0           0           0           0           0           0
           0           0           0           0           0           0
           0           0           0           0           0           0
           0           0           0           0           0           0
           0           0           0           0           0           0
           0           0           0           0           0           0
           0           0           0           0           0           0
ECP-KLast                                  I   N=          60
           0           0           0           0           0           0
           0           0           0           0           0           0
           0           0           0           0           0           0
           0           0           0           0           0           0
           0           0           0           0           0           0
           0           0           0           0           0           0
           0           0           0           0           0           0
           0           0           0           0           0           0
           0           0           0           0           0           0
           0           0           0           0           0           0
ECP-LMax                                   I   N=           6
           0           0           0           0           0           0
ECP-LPSkip                                 I   N=           6
           1           1           1           1           1           1
ECP-RNFroz                                 R   N=           6
  0.00000000E+00  0.00000000E+00  0.00000000E+00  0.00000000E+00  0.00000000E+00
  0.00000000E+00
ECP-NLP                                    I                0
ECP-CLP1                                   R      0.000000000000000E+00
ECP-CLP2                                   R      0.000000000000000E+00
ECP-ZLP                                    R      0.000000000000000E+00
MxBond                                     I                5
NBond                                      I   N=           6
           5           1           1           1           1           1
IBond                                      I   N=          30
           2           3           4           5           6           1
           0           0           0           0           1           0
           0           0           0           1           0           0
           0           0           1           0           0           0
           0           1           0           0           0           0
RBond                                      R   N=          30
  1.00000000E+00  1.00000000E+00  1.00000000E+00  1.00000000E-01  1.00000000E-01
  1.00000000E+00  0.00000000E+00  0.00000000E+00  0.00000000E+00  0.00000000E+00
  1.00000000E+00  0.00000000E+00  0.00000000E+00  0.00000000E+00  0.00000000E+00
  1.00000000E+00  0.00000000E+00  0.00000000E+00  0.00000000E+00  0.00000000E+00
  1.00000000E-01  0.00000000E+00  0.00000000E+00  0.00000000E+00  0.00000000E+00
  1.00000000E-01  0.00000000E+00  0.00000000E+00  0.00000000E+00  0.00000000E+00
Virial Ratio                               R      2.001523392848050E+00
SCF Energy                                 R     -3.074500795398475E+03
Total Energy                               R     -3.074500795398475E+03
RMS Force                                  R      2.799018279584454E-06
RMS Density                                R      1.113541443772084E-09
NImag                                      I                1
Job Status                                 I                1
Nuclear derivative order                   I                2
PCM-NSphere                                I                6
PCM-NGenSphere                             I                6
PCM-NOrd                                   I   N=           6
           1           2           3           4           5           6
PCM-SphereRadii                            R   N=           6
  4.00253442E+00  2.99956228E+00  2.99956228E+00  2.99956228E+00  4.10231196E+00
  4.35383450E+00
PCM-SphereLoc                              R   N=          18
 -1.40612320E+00 -9.29494898E-05  2.46453775E-03 -1.44087401E+00  1.73857974E+00
 -1.03181797E+00 -1.44101086E+00 -1.76531442E+00 -9.85840644E-01 -1.44097776E+00
  2.64540142E-02  2.02543600E+00 -5.92531894E+00  2.66011888E-05 -6.75256534E-04
  3.24257211E+00  1.10326852E-05 -3.16721567E-04
External E-field                           R   N=          35
  0.00000000E+00  0.00000000E+00  0.00000000E+00  0.00000000E+00  0.00000000E+00
  0.00000000E+00  0.00000000E+00  0.00000000E+00  0.00000000E+00  0.00000000E+00
  0.00000000E+00  0.00000000E+00  0.00000000E+00  0.00000000E+00  0.00000000E+00
  0.00000000E+00  0.00000000E+00  0.00000000E+00  0.00000000E+00  0.00000000E+00
  0.00000000E+00  0.00000000E+00  0.00000000E+00  0.00000000E+00  0.00000000E+00
  0.00000000E+00  0.00000000E+00  0.00000000E+00  0.00000000E+00  0.00000000E+00
  0.00000000E+00  0.00000000E+00  0.00000000E+00  0.00000000E+00  0.00000000E+00
IOpCl                                      I                0
IROHF                                      I                0
Alpha Orbital Energies                     R   N=         134
 -4.82774600E+02 -1.01419830E+02 -6.24231660E+01 -5.62379075E+01 -5.62364017E+01
 -5.62364016E+01 -1.02152190E+01 -9.35194168E+00 -8.61402824E+00 -7.10992503E+00
 -7.10670900E+00 -7.10670799E+00 -6.43929164E+00 -6.43466853E+00 -6.43466814E+00
 -2.55445946E+00 -2.55321411E+00 -2.55321388E+00 -2.54953465E+00 -2.54953437E+00
 -7.29061683E-01 -6.96031075E-01 -6.49373240E-01 -4.30971158E-01 -4.30955468E-01
 -3.04564525E-01 -2.45091658E-01 -2.45079951E-01 -2.35842696E-01 -2.35832575E-01
 -2.25379081E-01 -2.51556902E-02  7.13446445E-02  1.33067612E-01  1.33090380E-01
  2.09854923E-01  2.17616226E-01  2.17618615E-01  2.77345936E-01  2.86703181E-01
  2.86711300E-01  3.38753558E-01  3.38759055E-01  3.52440084E-01  3.64043977E-01
  3.64051004E-01  4.12314890E-01  4.12334317E-01  4.14428742E-01  4.48525379E-01
  4.80043676E-01  4.80111923E-01  5.01472383E-01  5.22746218E-01  5.22844331E-01
  5.27314523E-01  5.27350098E-01  5.59223717E-01  7.91643358E-01  7.91678515E-01
  7.95173885E-01  9.76975822E-01  9.77009406E-01  9.84746036E-01  1.12181078E+00
  1.37110257E+00  1.39051030E+00  1.39052522E+00  1.40870180E+00  1.40874235E+00
  1.45792110E+00  1.46898474E+00  1.46906567E+00  1.47294137E+00  1.48414777E+00
  1.57985079E+00  1.57985483E+00  1.59061230E+00  1.59105106E+00  1.64008658E+00
  1.64008988E+00  1.65433448E+00  1.68529083E+00  1.68543424E+00  1.79656636E+00
  1.79657410E+00  1.82829052E+00  1.83780743E+00  1.83785092E+00  1.93510159E+00
  1.93525763E+00  1.96373791E+00  2.04805369E+00  2.07178093E+00  2.07185548E+00
  2.15098525E+00  2.15100020E+00  2.16792529E+00  2.16907054E+00  2.26441528E+00
  2.26448996E+00  2.29090854E+00  2.29103680E+00  2.29968412E+00  2.32803828E+00
  2.47534900E+00  2.47578611E+00  2.64389301E+00  2.67840910E+00  2.67854438E+00
  2.80205646E+00  3.07948197E+00  3.07953068E+00  3.21646333E+00  3.21654019E+00
  3.27037486E+00  3.30042373E+00  3.30052788E+00  3.63342807E+00  3.86300361E+00
  4.04574264E+00  4.04576899E+00  4.07699330E+00  4.07701632E+00  4.16689197E+00
  4.16705677E+00  4.26311771E+00  4.70835922E+00  7.42299446E+00  1.07599990E+01
  1.07600121E+01  1.08874528E+01  2.21077650E+01  2.46037404E+01
Alpha MO coefficients                      R   N=       17956
  3.79880095E-07 -1.16095924E-06 -1.91021949E-05  2.33859246E-04 -8.09687107E-04
  1.41529581E-05  1.38060679E-09 -1.96320605E-08 -4.22172534E-05 -5.11089585E-10
 -1.68562876E-08 -3.06389625E-04 -7.45081164E-09  1.04052407E-07 -7.38916528E-06
 -3.04192428E-08 -1.32274972E-09  1.27799140E-05  1.76188075E-09  5.23314741E-05
  1.22345047E-07 -2.50802488E-10 -9.06962345E-05 -4.53788180E-09  8.54356513E-06
  5.82224828E-06  4.13377091E-07  6.65448804E-06 -9.28150524E-10 -7.51956615E-06
  1.05115536E-07 -1.42224929E-05 -1.00027690E-06  1.50417479E-04  1.19582637E-05
  9.88148073E-06 -5.88183364E-06 -1.42245918E-05 -9.96910815E-07  1.50411664E-04
  1.19588075E-05 -1.00300357E-05 -5.61909480E-06 -1.42394827E-05 -8.79560577E-07
  1.50388336E-04  1.19691029E-05  1.50271081E-07  1.14561184E-05  3.50382613E-06
 -9.62070889E-06 -1.89075454E-05  3.75397475E-05 -6.58799086E-05 -1.10540283E-06
  2.14935014E-10 -4.53426971E-09  4.51926956E-06 -8.41546637E-10  1.77154339E-08
 -1.20502946E-05  2.04100717E-09 -4.24995070E-08  2.06317126E-05 -3.40145420E-09
  6.60474036E-08 -3.29705107E-05  4.96757153E-09 -7.67116107E-08  7.57536068E-07
 -1.85646761E-09 -6.20428773E-11 -1.31622723E-06 -2.68539084E-10 -4.08530168E-06
  1.16953116E-08  1.61668740E-10  7.08655392E-06  4.75823677E-10 -3.61587841E-07
 -3.36617741E-06 -1.67333666E-08 -2.56118756E-07  5.05360547E-11  4.34811146E-06
 -4.93811929E-09  9.97348776E-01  7.60155928E-03 -3.74743780E-03  3.21278941E-03
 -1.36233853E-03  8.80214306E-04  5.89449210E-07 -5.30991311E-11  1.07840440E-09
 -7.29537454E-06 -1.21867490E-11  2.15694562E-09  3.77072696E-05  6.06394713E-11
 -1.22050356E-08 -3.94218807E-05  1.16544544E-09 -3.42851146E-09 -2.70087143E-04
 -1.01197276E-08  2.19411557E-07  2.56552757E-06  7.99518834E-09 -1.02383980E-10
 -4.44510735E-06 -3.98504912E-10 -2.34721002E-05 -7.02708758E-08  8.01873324E-10
  4.06666106E-05  3.41104887E-09  5.11486641E-05  1.46042313E-07 -1.45726895E-09
 -8.86135818E-05 -6.87269975E-09 -9.00650687E-05 -2.33413283E-07  1.53771943E-09
  1.56020524E-04  1.01963182E-08 -5.13483797E-07  1.53348500E-05 -2.31781571E-08
 -3.46564150E-07 -2.54777231E-10 -1.98010192E-05 -7.62030677E-09 -2.44833001E-07
  7.03576637E-07  1.12275487E-04 -8.88096838E-04  2.60251889E-03  3.43258054E-05
 -1.59686503E-10  7.85627018E-08 -5.57525419E-05 -1.26349988E-08 -2.26983385E-07
 -9.49410682E-04  1.77250916E-08 -4.09566375E-07  2.50352621E-05 -1.18104916E-07
  4.15057565E-10 -4.33048878E-05  2.11477492E-09 -1.64264026E-04  4.43757687E-07
  7.46283789E-09  2.84324573E-04 -1.67457034E-08 -3.57935229E-05  2.23640262E-05
 -1.72999825E-06 -2.78349663E-05  2.37679924E-09 -2.88656013E-05 -4.43311835E-07
  5.34201237E-05  1.37063535E-05 -5.43399630E-04  4.35414161E-05 -3.52013054E-05
  2.09426385E-05  5.34190177E-05  1.36741938E-05 -5.43389171E-04  4.35439453E-05
  3.57314342E-05  2.00102338E-05  5.34863264E-05  1.38749515E-05 -5.43553342E-04