Title Card Required                                                     
FOpt      RB3LYP                                                      def2TZVP            
Number of atoms                            I                6
Info1-9                                    I   N=           9
          15          15           0           0           0         100
           2          18        -502
Full Title                                 C   N=           2
Title Card Required     
Route                                      C   N=           8
#p irc=(calcfc,recalc=5,maxpoint=30) b3lyp scrf=(cpcm,solven
t=benzene) def2tzvp em=gd3bj        
Charge                                     I               -1
Multiplicity                               I                1
Number of electrons                        I               62
Number of alpha electrons                  I               31
Number of beta electrons                   I               31
Number of basis functions                  I              134
Number of independent functions            I              134
Number of point charges in /Mol/           I                0
Number of translation vectors              I                0
Atomic numbers                             I   N=           6
           6           1           1           1          17          35
Nuclear charges                            R   N=           6
  6.00000000E+00  1.00000000E+00  1.00000000E+00  1.00000000E+00  1.70000000E+01
  3.50000000E+01
Current cartesian coordinates              R   N=          18
 -6.58397433E-01  2.87199478E-03 -9.56529053E-03 -1.25551137E+00  1.65976340E+00
 -1.04206980E+00 -1.25873340E+00 -1.71744822E+00 -9.30370486E-01 -1.26488079E+00
  6.77145684E-02  1.93866704E+00 -6.69569883E+00 -4.50365567E-04  3.69418988E-03
  3.11591344E+00 -3.65890936E-04  2.38656212E-04
Number of symbols in /Mol/                 I                0
Force Field                                I                0
Atom Types                                 C   N=           6
                                                            
            
Int Atom Types                             I   N=           6
           0           0           0           0           0           0
MM charges                                 R   N=           6
  0.00000000E+00  0.00000000E+00  0.00000000E+00  0.00000000E+00  0.00000000E+00
  0.00000000E+00
Integer atomic weights                     I   N=           6
          12           1           1           1          35          79
Real atomic weights                        R   N=           6
  1.20000000E+01  1.00782504E+00  1.00782504E+00  1.00782504E+00  3.49688527E+01
  7.89183361E+01
Atom fragment info                         I   N=           6
           0           0           0           0           0           0
Atom residue num                           I   N=           6
           0           0           0           0           0           0
Nuclear spins                              I   N=           6
           0           1           1           1           3           3
Nuclear ZEff                               R   N=           6
 -3.60000000E+00 -1.00000000E+00 -1.00000000E+00 -1.00000000E+00 -1.42400000E+01
 -2.45000000E+01
Nuclear ZNuc                               R   N=           6
  6.00000000E+00  1.00000000E+00  1.00000000E+00  1.00000000E+00  1.70000000E+01
  3.50000000E+01
Nuclear QMom                               R   N=           6
  0.00000000E+00  0.00000000E+00  0.00000000E+00  0.00000000E+00 -8.16500000E+00
  3.13000000E+01
Nuclear GFac                               R   N=           6
  0.00000000E+00  2.79284600E+00  2.79284600E+00  2.79284600E+00  8.21874000E-01
  2.10639900E+00
MicOpt                                     I   N=           6
          -1          -1          -1          -1          -1          -1
Number of residues                         I                0
Number of secondary structures             I                0
SymInf integers                            I   N=          26
           1           1           1           1           1           0
           0           0           0           0           0           0
           0           0           0           0           0           0
           0           0           0           0           0           0
           0           0
RotTr to input orientation                 R   N=          12
 -1.00000000E+00  6.45107067E-07 -1.38872805E-05 -1.70400873E-06 -9.97078362E-01
  7.63854693E-02 -1.37974301E-05  7.63854693E-02  9.97078362E-01 -8.87630387E-03
 -6.41765226E-05 -8.22786246E-04
Number of contracted shells                I               52
Number of primitive shells                 I              104
Pure/Cartesian d shells                    I                0
Pure/Cartesian f shells                    I                0
Highest angular momentum                   I                3
Largest degree of contraction              I                8
Shell types                                I   N=          52
           0           0           0           0           0           1
           1           1          -2          -2          -3           0
           0           0           1           0           0           0
           1           0           0           0           1           0
           0           0           0           0           1           1
           1           1           1          -2          -2          -3
           0           0           0           0           0           0
           1           1           1           1           1          -2
          -2          -2          -2          -3
Number of primitives per shell             I   N=          52
           6           2           1           1           1           4
           1           1           1           1           1           3
           1           1           1           3           1           1
           1           3           1           1           1           7
           3           2           1           1           5           1
           1           1           1           2           1           1
           8           4           2           1           1           1
           6           4           1           1           1           5
           1           1           1           1
Shell to atom map                          I   N=          52
           1           1           1           1           1           1
           1           1           1           1           1           2
           2           2           2           3           3           3
           3           4           4           4           4           5
           5           5           5           5           5           5
           5           5           5           5           5           5
           6           6           6           6           6           6
           6           6           6           6           6           6
           6           6           6           6
Primitive exponents                        R   N=         104
  1.35753497E+04  2.03523337E+03  4.63225624E+02  1.31200196E+02  4.28530159E+01
  1.55841858E+01  6.20671385E+00  2.57648965E+00  5.76963394E-01  2.29728314E-01
  9.51644400E-02  3.46972322E+01  7.95826228E+00  2.37808269E+00  8.14332082E-01
  2.88875473E-01  1.00568237E-01  1.09700000E+00  3.18000000E-01  7.61000000E-01
  3.40613410E+01  5.12357460E+00  1.16466260E+00  3.27230410E-01  1.03072410E-01
  8.00000000E-01  3.40613410E+01  5.12357460E+00  1.16466260E+00  3.27230410E-01
  1.03072410E-01  8.00000000E-01  3.40613410E+01  5.12357460E+00  1.16466260E+00
  3.27230410E-01  1.03072410E-01  8.00000000E-01  6.95079909E+04  1.04261569E+04
  2.37323341E+03  6.71564201E+02  2.18419998E+02  7.75722497E+01  2.88888153E+01
  1.27105272E+02  3.93395830E+01  7.67406800E+00  3.87456276E+00  1.83858326E+00
  5.02290575E-01  1.79627234E-01  6.66504233E+02  1.57642417E+02  5.02625210E+01
  1.85360781E+01  7.29405328E+00  2.94332490E+00  1.04049708E+00  3.84564151E-01
  1.30696427E-01  4.61000000E+00  1.01100000E+00  3.39000000E-01  7.06000000E-01
  5.65073253E+05  8.47017232E+04  1.92762719E+04  5.45642846E+03  1.77695035E+03
  6.39193983E+02  2.48788240E+02  9.86783055E+01  6.06078246E+02  1.88455985E+02
  3.14971445E+01  1.37360083E+01  2.12032128E+01  3.76164202E+00  1.77359340E+00
  4.51974137E-01  1.66133771E-01  3.01969557E+03  7.15354811E+02  2.29983288E+02
  8.61678446E+01  3.46678708E+01  1.41138703E+01  5.70856531E+01  8.81938458E+00
  3.93403029E+00  1.79988304E+00  6.68994105E-01  2.71362382E-01  1.00837902E-01
  1.68853703E+02  4.99779499E+01  1.82749133E+01  7.24556946E+00  2.85623150E+00
  1.04596211E+00  5.68656550E-01  2.20314900E-01  5.70833120E-01
Contraction coefficients                   R   N=         104
  6.06455036E-04  4.69790889E-03  2.43324776E-02  9.73999683E-02  3.01955843E-01
  6.62336091E-01  6.55953085E-01  3.75856333E-01  1.00000000E+00  1.00000000E+00
  1.00000000E+00  1.13272200E-02  7.61696592E-02  3.01922522E-01  7.27850273E-01
  1.00000000E+00  1.00000000E+00  1.00000000E+00  1.00000000E+00  1.00000000E+00
  2.54393072E-02  1.90085949E-01  8.52441130E-01  1.00000000E+00  1.00000000E+00
  1.00000000E+00  2.54393072E-02  1.90085949E-01  8.52441130E-01  1.00000000E+00
  1.00000000E+00  1.00000000E+00  2.54393072E-02  1.90085949E-01  8.52441130E-01
  1.00000000E+00  1.00000000E+00  1.00000000E+00  5.14573896E-04  3.97813448E-03
  2.04561787E-02  8.01481029E-02  2.34547703E-01  4.45433686E-01  3.54668425E-01
  1.12936881E-01  4.83735142E-01 -1.22922974E+00  6.72968216E-01  3.49560514E-01
  1.00000000E+00  1.00000000E+00  3.35025082E-03  2.67639704E-02  1.23626824E-01
  3.58457879E-01  6.16772964E-01  1.00000000E+00  1.00000000E+00  1.00000000E+00
  1.00000000E+00  1.82658350E-01  9.13291752E-01  1.00000000E+00  1.00000000E+00
  2.31399680E-04  1.79448090E-03  9.33663283E-03  3.80221412E-02  1.24386082E-01
  2.97682655E-01  4.35124787E-01  2.38454326E-01 -2.58029981E-02 -1.21437702E-01
  5.49271541E-01  5.40386743E-01 -4.18976571E-01  1.19629220E+00  1.00000000E+00
  1.00000000E+00  1.00000000E+00  2.69789672E-03  2.20611770E-02  1.04688630E-01
  3.03097102E-01  4.81931819E-01  2.63728834E-01 -1.92881876E-02  2.88644595E-01
  5.10580635E-01  2.96268745E-01  1.00000000E+00  1.00000000E+00  1.00000000E+00
  9.84282772E-03  6.81283771E-02  2.35738015E-01  4.42779544E-01  4.63345555E-01
  1.00000000E+00  1.00000000E+00  1.00000000E+00  1.00000000E+00
Coordinates of each shell                  R   N=         156
 -6.58397433E-01  2.87199478E-03 -9.56529053E-03 -6.58397433E-01  2.87199478E-03
 -9.56529053E-03 -6.58397433E-01  2.87199478E-03 -9.56529053E-03 -6.58397433E-01
  2.87199478E-03 -9.56529053E-03 -6.58397433E-01  2.87199478E-03 -9.56529053E-03
 -6.58397433E-01  2.87199478E-03 -9.56529053E-03 -6.58397433E-01  2.87199478E-03
 -9.56529053E-03 -6.58397433E-01  2.87199478E-03 -9.56529053E-03 -6.58397433E-01
  2.87199478E-03 -9.56529053E-03 -6.58397433E-01  2.87199478E-03 -9.56529053E-03
 -6.58397433E-01  2.87199478E-03 -9.56529053E-03 -1.25551137E+00  1.65976340E+00
 -1.04206980E+00 -1.25551137E+00  1.65976340E+00 -1.04206980E+00 -1.25551137E+00
  1.65976340E+00 -1.04206980E+00 -1.25551137E+00  1.65976340E+00 -1.04206980E+00
 -1.25873340E+00 -1.71744822E+00 -9.30370486E-01 -1.25873340E+00 -1.71744822E+00
 -9.30370486E-01 -1.25873340E+00 -1.71744822E+00 -9.30370486E-01 -1.25873340E+00
 -1.71744822E+00 -9.30370486E-01 -1.26488079E+00  6.77145684E-02  1.93866704E+00
 -1.26488079E+00  6.77145684E-02  1.93866704E+00 -1.26488079E+00  6.77145684E-02
  1.93866704E+00 -1.26488079E+00  6.77145684E-02  1.93866704E+00 -6.69569883E+00
 -4.50365567E-04  3.69418988E-03 -6.69569883E+00 -4.50365567E-04  3.69418988E-03
 -6.69569883E+00 -4.50365567E-04  3.69418988E-03 -6.69569883E+00 -4.50365567E-04
  3.69418988E-03 -6.69569883E+00 -4.50365567E-04  3.69418988E-03 -6.69569883E+00
 -4.50365567E-04  3.69418988E-03 -6.69569883E+00 -4.50365567E-04  3.69418988E-03
 -6.69569883E+00 -4.50365567E-04  3.69418988E-03 -6.69569883E+00 -4.50365567E-04
  3.69418988E-03 -6.69569883E+00 -4.50365567E-04  3.69418988E-03 -6.69569883E+00
 -4.50365567E-04  3.69418988E-03 -6.69569883E+00 -4.50365567E-04  3.69418988E-03
 -6.69569883E+00 -4.50365567E-04  3.69418988E-03  3.11591344E+00 -3.65890936E-04
  2.38656212E-04  3.11591344E+00 -3.65890936E-04  2.38656212E-04  3.11591344E+00
 -3.65890936E-04  2.38656212E-04  3.11591344E+00 -3.65890936E-04  2.38656212E-04
  3.11591344E+00 -3.65890936E-04  2.38656212E-04  3.11591344E+00 -3.65890936E-04
  2.38656212E-04  3.11591344E+00 -3.65890936E-04  2.38656212E-04  3.11591344E+00
 -3.65890936E-04  2.38656212E-04  3.11591344E+00 -3.65890936E-04  2.38656212E-04
  3.11591344E+00 -3.65890936E-04  2.38656212E-04  3.11591344E+00 -3.65890936E-04
  2.38656212E-04  3.11591344E+00 -3.65890936E-04  2.38656212E-04  3.11591344E+00
 -3.65890936E-04  2.38656212E-04  3.11591344E+00 -3.65890936E-04  2.38656212E-04
  3.11591344E+00 -3.65890936E-04  2.38656212E-04  3.11591344E+00 -3.65890936E-04
  2.38656212E-04
Num ILSW                                   I              100
ILSW                                       I   N=         100
           0           0           0           0           2           0
           0           0           0           0         402          -1
           5           0           0           0           0           0
           0           0           0           0           0           1
           0           1           0           0           0           0
           0           0      100000           0          -1           0
           0           0           0           0           0           0
           0           0           0           1           0           0
           0 -2000000000           1           0           0           0
           0           0         141          52           0           0
           0           0           5           0           0           0
           0           0           0           6           0           1
           0           0           0           0           0           0
           0           0           0           0           0           0
           0           0           0           0           0           0
           0           0           0           0           0           0
           0           0           0           0
Num RLSW                                   I               52
RLSW                                       R   N=          52
  8.00000000E-01  7.20000000E-01  1.00000000E+00  8.10000000E-01  2.00000000E-01
  0.00000000E+00  0.00000000E+00  1.00000000E+00  0.00000000E+00  0.00000000E+00
  0.00000000E+00  0.00000000E+00  1.00000000E+00  0.00000000E+00  0.00000000E+00
  0.00000000E+00  0.00000000E+00  1.00000000E+00  0.00000000E+00  0.00000000E+00
  0.00000000E+00  0.00000000E+00  1.00000000E+00  0.00000000E+00  0.00000000E+00
  0.00000000E+00  0.00000000E+00  1.00000000E+00  0.00000000E+00  0.00000000E+00
  0.00000000E+00  0.00000000E+00  1.00000000E+00  0.00000000E+00  0.00000000E+00
  0.00000000E+00  0.00000000E+00  0.00000000E+00  1.00000000E+00  1.00000000E+00
  0.00000000E+00  1.00000000E+00  0.00000000E+00  0.00000000E+00  0.00000000E+00
  0.00000000E+00  0.00000000E+00  0.00000000E+00  0.00000000E+00  0.00000000E+00
  0.00000000E+00  0.00000000E+00
ECP-MxAtEC                                 I           250000
ECP-MaxLECP                                I               10
ECP-MaxAtL                                 I          2250000
ECP-MxTECP                                 I         11250000
ECP-LenNCZ                                 I                0
ECP-KFirst                                 I   N=          60
           0           0           0           0           0           0
           0           0           0           0           0           0
           0           0           0           0           0           0
           0           0           0           0           0           0
           0           0           0           0           0           0
           0           0           0           0           0           0
           0           0           0           0           0           0
           0           0           0           0           0           0
           0           0           0           0           0           0
           0           0           0           0           0           0
ECP-KLast                                  I   N=          60
           0           0           0           0           0           0
           0           0           0           0           0           0
           0           0           0           0           0           0
           0           0           0           0           0           0
           0           0           0           0           0           0
           0           0           0           0           0           0
           0           0           0           0           0           0
           0           0           0           0           0           0
           0           0           0           0           0           0
           0           0           0           0           0           0
ECP-LMax                                   I   N=           6
           0           0           0           0           0           0
ECP-LPSkip                                 I   N=           6
           1           1           1           1           1           1
ECP-RNFroz                                 R   N=           6
  0.00000000E+00  0.00000000E+00  0.00000000E+00  0.00000000E+00  0.00000000E+00
  0.00000000E+00
ECP-NLP                                    I                0
ECP-CLP1                                   R      0.000000000000000E+00
ECP-CLP2                                   R      0.000000000000000E+00
ECP-ZLP                                    R      0.000000000000000E+00
MxBond                                     I                3
NBond                                      I   N=           6
           3           1           1           1           0           0
IBond                                      I   N=          18
           2           3           4           1           0           0
           1           0           0           1           0           0
           0           0           0           0           0           0
RBond                                      R   N=          18
  1.00000000E+00  1.00000000E+00  1.00000000E+00  1.00000000E+00  0.00000000E+00
  0.00000000E+00  1.00000000E+00  0.00000000E+00  0.00000000E+00  1.00000000E+00
  0.00000000E+00  0.00000000E+00  0.00000000E+00  0.00000000E+00  0.00000000E+00
  0.00000000E+00  0.00000000E+00  0.00000000E+00
Virial Ratio                               R      2.001519465186516E+00
SCF Energy                                 R     -3.074484734956844E+03
Total Energy                               R     -3.074484734956844E+03
RMS Force                                  R      8.445864191657663E-05
RMS Density                                R      3.088394909422165E-09
Job Status                                 I               -1
Nuclear derivative order                   I                1
PCM-NSphere                                I                6
PCM-NGenSphere                             I                6
PCM-NOrd                                   I   N=           6
           1           2           3           4           5           6
PCM-SphereRadii                            R   N=           6
  4.00253442E+00  2.99956228E+00  2.99956228E+00  2.99956228E+00  4.10231196E+00
  4.35383450E+00
PCM-SphereLoc                              R   N=          18
 -6.58397433E-01  2.87199478E-03 -9.56529053E-03 -1.25551137E+00  1.65976340E+00
 -1.04206980E+00 -1.25873340E+00 -1.71744822E+00 -9.30370486E-01 -1.26488079E+00
  6.77145684E-02  1.93866704E+00 -6.69569883E+00 -4.50365567E-04  3.69418988E-03
  3.11591344E+00 -3.65890936E-04  2.38656212E-04
External E-field                           R   N=          35
  0.00000000E+00  0.00000000E+00  0.00000000E+00  0.00000000E+00  0.00000000E+00
  0.00000000E+00  0.00000000E+00  0.00000000E+00  0.00000000E+00  0.00000000E+00
  0.00000000E+00  0.00000000E+00  0.00000000E+00  0.00000000E+00  0.00000000E+00
  0.00000000E+00  0.00000000E+00  0.00000000E+00  0.00000000E+00  0.00000000E+00
  0.00000000E+00  0.00000000E+00  0.00000000E+00  0.00000000E+00  0.00000000E+00
  0.00000000E+00  0.00000000E+00  0.00000000E+00  0.00000000E+00  0.00000000E+00
  0.00000000E+00  0.00000000E+00  0.00000000E+00  0.00000000E+00  0.00000000E+00
IOpCl                                      I                0
IROHF                                      I                0
Alpha Orbital Energies                     R   N=         134
 -4.82790208E+02 -1.01310300E+02 -6.24383901E+01 -5.62542840E+01 -5.62510960E+01
 -5.62510960E+01 -1.01547059E+01 -9.24216877E+00 -8.62946005E+00 -6.99825404E+00
 -6.99800102E+00 -6.99799991E+00 -6.45819698E+00 -6.44828617E+00 -6.44828598E+00
 -2.57281891E+00 -2.56999025E+00 -2.56999010E+00 -2.56206330E+00 -2.56206320E+00
 -7.39196817E-01 -6.11265346E-01 -5.94095752E-01 -3.76339467E-01 -3.76298121E-01
 -3.19413483E-01 -2.28841228E-01 -2.28836346E-01 -1.44720366E-01 -1.44714095E-01
 -1.44278519E-01  4.92151544E-02  1.17527760E-01  1.70910681E-01  1.71078027E-01
  2.25730025E-01  2.63144621E-01  2.63212275E-01  2.97886392E-01  3.07702712E-01
  3.07710117E-01  3.60771828E-01  3.60774736E-01  4.15322973E-01  4.15398273E-01
  4.36216743E-01  4.84362078E-01  4.84391620E-01  5.17047288E-01  5.23891624E-01
  5.30603051E-01  5.30728169E-01  5.67169308E-01  6.08278102E-01  6.08335916E-01
  6.24421868E-01  6.24708198E-01  6.31995117E-01  8.30349429E-01  8.30377871E-01
  8.90292617E-01  9.55990363E-01  9.90842509E-01  9.91110919E-01  1.03566843E+00
  1.35853607E+00  1.35854134E+00  1.39434474E+00  1.39520335E+00  1.39520657E+00
  1.49613498E+00  1.49614736E+00  1.56682964E+00  1.56738085E+00  1.58810302E+00
  1.59019997E+00  1.61323528E+00  1.61329452E+00  1.64971407E+00  1.65018412E+00
  1.65020009E+00  1.69731738E+00  1.70011311E+00  1.70022480E+00  1.85905382E+00
  1.90496170E+00  1.90497809E+00  1.92053912E+00  1.92054441E+00  2.06133720E+00
  2.07363928E+00  2.07379884E+00  2.17602326E+00  2.26456049E+00  2.26462107E+00
  2.26988973E+00  2.27001855E+00  2.27055351E+00  2.27055458E+00  2.28103479E+00
  2.28115686E+00  2.33513338E+00  2.37113491E+00  2.37122382E+00  2.41900817E+00
  2.49464297E+00  2.49470444E+00  2.63641916E+00  2.63686077E+00  2.75095913E+00
  2.84027124E+00  3.08621718E+00  3.08627505E+00  3.31371511E+00  3.31382405E+00
  3.34534679E+00  3.44522743E+00  3.52946131E+00  3.52950890E+00  3.66440883E+00
  4.04444152E+00  4.04444507E+00  4.13700527E+00  4.13702203E+00  4.26056469E+00
  4.26071027E+00  4.50541364E+00  4.56963914E+00  7.52517736E+00  1.08582110E+01
  1.08582648E+01  1.08927552E+01  2.21825843E+01  2.41270827E+01
Alpha MO coefficients                      R   N=       17956
 -2.54834268E-06  7.24732520E-06 -1.88521651E-05  4.38024354E-05 -7.81351853E-04
 -8.12962646E-06  1.11001657E-08 -3.48408876E-08 -7.05606410E-05 -2.89030128E-08
  1.14660651E-07 -2.34538939E-04  2.19273230E-07 -5.79401316E-07  3.99772195E-06
 -1.23461313E-08  2.09485459E-09 -6.91264597E-06  5.17810205E-09  3.92173872E-06
 -1.93004933E-07  6.46341160E-08 -6.49196072E-06  5.83340531E-08 -7.26715219E-06
 -1.97883909E-05 -8.54363971E-07 -5.38433607E-06 -1.73801243E-09  2.55362661E-05
 -2.87041093E-07 -3.46315687E-06  2.37188405E-05  1.19541347E-04  1.41206590E-05
  5.31886135E-06 -3.28683402E-06 -3.47333829E-06  2.34847317E-05  1.19757908E-04
  1.40990704E-05 -5.58381228E-06 -2.94592580E-06 -3.49334685E-06  2.29853505E-05
  1.20141392E-04  1.40564771E-05  1.99729080E-07  6.43065690E-06  2.93402035E-06
 -8.03485404E-06 -1.59353078E-05  3.39587045E-05 -4.59409050E-05 -8.87877879E-07
 -1.71515893E-09  6.21044260E-09  3.56309292E-06  6.68388274E-09 -2.42296629E-08
 -9.31895971E-06 -1.60993995E-08  5.85582884E-08  1.98502034E-05  2.75888467E-08
 -1.01359611E-07 -3.98740101E-05 -3.26691849E-08  1.24313319E-07 -2.07785039E-06
 -1.98462249E-08  3.77655246E-09  3.61781473E-06  5.22824474E-09  5.18971080E-06
  4.42449333E-08 -8.61504075E-09 -9.03189266E-06 -1.15193521E-08 -1.22860793E-07
  4.30979841E-07 -1.41226988E-08 -8.78351503E-08 -2.40264813E-09 -5.66260405E-07
 -5.31602704E-09  9.97347735E-01  7.59691711E-03 -3.76697438E-03  3.25486654E-03
 -1.43586780E-03  1.04717067E-03 -1.91572223E-06  2.38777173E-09 -7.36248834E-09
 -7.57366586E-06  4.73517526E-09 -1.40194751E-08  4.05073617E-05 -2.57732915E-08
  7.63352281E-08 -5.63965901E-05  2.76830317E-08 -7.88956998E-08 -3.01874014E-04
  2.83189792E-07 -8.78016054E-07  2.76024537E-06 -2.90571163E-08  5.04269769E-10
 -4.77859996E-06  9.32649272E-09 -2.55845017E-05  2.63268110E-07 -4.15822194E-09
  4.42951088E-05 -8.47826887E-08  5.28560373E-05 -5.33963731E-07  8.26014001E-09
 -9.15128876E-05  1.72263747E-07 -8.50665344E-05  8.14170155E-07 -1.19343576E-08
  1.47287899E-04 -2.63708387E-07 -4.80950865E-07  8.81140079E-06 -7.18430329E-08
 -4.79806893E-07  4.92810383E-09 -1.13576189E-05  1.01922895E-08  5.30182434E-06
 -1.70647106E-05  1.33175076E-04 -3.93314208E-04  1.14718353E-03 -3.54559556E-05
  8.33404369E-08 -2.74937057E-07  1.44183267E-04 -9.18324289E-07  3.00391462E-06
 -6.94631097E-04  5.84587441E-07 -2.06834363E-06  7.02922790E-06  3.38749940E-07
  2.38133794E-08 -1.20685923E-05 -9.78785070E-08 -1.23536602E-05 -1.74133083E-06
  5.19029890E-07  2.39480074E-05  5.20186220E-07 -8.85960126E-06  9.16863999E-07
 -1.09384668E-06 -6.99099663E-06 -1.06897755E-07 -1.62502022E-06 -2.51574722E-07
  5.02366710E-05 -1.56685362E-04 -2.60614766E-04  3.74889823E-05  7.38983770E-06
 -4.60067388E-06  5.00945771E-05 -1.58797619E-04 -2.58494560E-04  3.73875570E-05
 -7.98047392E-06 -4.27297814E-06  4.97789345E-05 -1.63142150E-04 -2.53721549E-04
  3.71591467E-05  3.28773129E-07  9.73238037E-06  1.00018879E+00 -3.22768324E-02
 -1.02025587E-02  3.08190536E-03 -1.51312072E-03 -4.37974677E-06 -3.05642139E-09
  6.48830315E-09  2.79428826E-05  2.59689778E-08 -9.31978490E-08 -7.87085539E-05
 -7.27057923E-08  2.68543089E-07  1.73997322E-04  1.48871067E-07 -5.58608456E-07
 -3.42075610E-04 -2.54310102E-07  9.72747767E-07 -2.37172711E-05 -2.31778940E-07
 -1.85296239E-09  4.10722322E-05  5.98244313E-08  5.87718634E-05  5.54902221E-07
  2.77981991E-09 -1.01786154E-04 -1.42881466E-07  2.22263168E-07  9.19614413E-06
  4.07906874E-08  2.97714488E-07  9.15028904E-10 -1.18692831E-05 -1.56239050E-08
 -2.29496510E-06 -9.82346007E-06 -4.17000492E-05  9.24235937E-05 -1.61096777E-04
  2.92133673E-04  1.21782358E-06  3.90255624E-09 -1.37361675E-08 -4.88930342E-06
 -1.62252936E-08  5.70345341E-08  1.89641429E-05  9.67284590E-08 -3.35757163E-07
 -2.61209893E-05 -2.38565392E-07  8.18335441E-07 -6.96365233E-05  3.63854913E-07
 -1.17181589E-06  8.72612741E-08 -4.90418295E-08  5.96401478E-09 -1.21474823E-07
  1.49554659E-08 -1.71524007E-06  3.86583266E-07 -4.81584667E-08  2.73125518E-06
 -1.18305989E-07  4.41810738E-06 -6.74889700E-07  9.27570501E-08 -7.19034724E-06
  2.07506845E-07  2.01412421E-06  3.78242203E-07 -1.21510358E-07 -4.09708793E-06
 -1.19846500E-07  1.46830592E-06 -5.95863545E-06  2.08384296E-07  1.38426421E-06
  3.14646549E-08  7.82545074E-06 -8.39269417E-09  9.73503832E-06 -3.30879494E-05
  1.23416193E-04 -3.03626186E-04  3.96071981E-03  5.11436265E-05 -6.41200416E-08
  2.00321232E-07  3.05433055E-04  1.79806079E-07 -6.74536720E-07  1.18191934E-03
 -1.10439670E-06  2.91598245E-06 -1.96461216E-05  6.20255164E-08 -9.80552249E-09
  3.39723064E-05 -2.59310815E-08 -7.03632914E-06  8.43957569E-07 -3.19277537E-07
  1.07012544E-05 -2.51628928E-07  3.35787104E-05  1.04985660E-04  3.92598321E-06
  2.47039044E-05  1.20108546E-08 -1.35472174E-04  1.36773952E-06  1.74601270E-05
 -1.12174240E-04 -6.06796787E-04 -6.70554117E-05 -2.95359137E-05  1.82725225E-05
  1.75086381E-05 -1.11012098E-04 -6.07881608E-04 -6.69428967E-05  3.09663005E-05
  1.63683502E-05  1.76035389E-05 -1.08534331E-04 -6.09798153E-04 -6.67228601E-05
 -1.11545272E-06 -3.55937107E-05 -1.21624077E-05  3.08630510E-05  6.82278797E-05
 -1.65002013E-04  2.28389419E-04  3.84599070E-06  7.45707116E-09 -2.69939275E-08
 -1.64282530E-05 -3.09705713E-08  1.12231480E-07  4.50358953E-05  7.82048871E-08
 -2.84337641E-07 -9.87521419E-05 -1.37958101E-07  5.06604238E-07  2.00682141E-04
  1.65512853E-07 -6.29377327E-07  1.04275993E-05  1.01254413E-07 -1.85645521E-08
 -1.81539349E-05 -2.67192525E-08 -2.62275017E-05 -2.26983872E-07  4.28744609E-08
  4.56416781E-05  5.91925753E-08  6.02828307E-07 -2.23503121E-06  6.89970864E-08
  4.28324691E-07  1.17350855E-08  2.93364064E-06  2.65918504E-08 -3.26104390E-01
  1.03986446E+00  4.98425678E-02 -2.24385844E-02  7.65344580E-03 -5.31824006E-03
 -7.43196741E-04  6.88802207E-07 -2.09233798E-06 -1.43955610E-06  1.21330276E-08
 -3.85028389E-08 -1.60981369E-04  9.28294975E-08 -2.72626850E-07  2.06980854E-04
 -7.41282201E-08  1.99679182E-07  1.53267724E-03 -1.43640309E-06  4.45258933E-06
 -3.77077751E-05  3.67433627E-07 -2.88486398E-09  6.53000335E-05 -1.20081063E-07
  1.51052769E-04 -1.52571036E-06  2.06830513E-08 -2.61540782E-04  4.93297931E-07
 -2.87931578E-04  2.88181073E-06 -4.10031163E-08  4.98533530E-04 -9.31577585E-07
  4.21093904E-04 -4.03308651E-06  5.92514970E-08 -7.29099882E-04  1.30616985E-06
  2.41912851E-06 -3.58069785E-05  3.47634408E-07  2.30263543E-06 -2.41105675E-08
  4.61386843E-05 -2.50324657E-08 -6.65394933E-06  2.78896210E-05 -8.81551424E-04
  2.30828591E-03  2.06793531E-03 -2.68959767E-04  2.15711158E-07 -6.52166801E-07
  1.97631059E-03 -1.40740682E-06  4.10530191E-06  4.82165108E-04 -5.12603512E-07