 Entering Gaussian System, Link 0=g16
 Input=ts_def2tzvp_scrf_smd_dichloromethane.gjf
 Output=ts_def2tzvp_scrf_smd_dichloromethane.log
 Initial command:
 /share/home/wli/program/opt/Chem_soft/g16/l1.exe "/scratch/wli/Gau-8307.inp" -scrdir="/scratch/wli/"
 Entering Link 1 = /share/home/wli/program/opt/Chem_soft/g16/l1.exe PID=      8308.
  
 Copyright (c) 1988,1990,1992,1993,1995,1998,2003,2009,2016,
            Gaussian, Inc.  All Rights Reserved.
  
 This is part of the Gaussian(R) 16 program.  It is based on
 the Gaussian(R) 09 system (copyright 2009, Gaussian, Inc.),
 the Gaussian(R) 03 system (copyright 2003, Gaussian, Inc.),
 the Gaussian(R) 98 system (copyright 1998, Gaussian, Inc.),
 the Gaussian(R) 94 system (copyright 1995, Gaussian, Inc.),
 the Gaussian 92(TM) system (copyright 1992, Gaussian, Inc.),
 the Gaussian 90(TM) system (copyright 1990, Gaussian, Inc.),
 the Gaussian 88(TM) system (copyright 1988, Gaussian, Inc.),
 the Gaussian 86(TM) system (copyright 1986, Carnegie Mellon
 University), and the Gaussian 82(TM) system (copyright 1983,
 Carnegie Mellon University). Gaussian is a federally registered
 trademark of Gaussian, Inc.
  
 This software contains proprietary and confidential information,
 including trade secrets, belonging to Gaussian, Inc.
  
 This software is provided under written license and may be
 used, copied, transmitted, or stored only in accord with that
 written license.
  
 The following legend is applicable only to US Government
 contracts under FAR:
  
                    RESTRICTED RIGHTS LEGEND
  
 Use, reproduction and disclosure by the US Government is
 subject to restrictions as set forth in subparagraphs (a)
 and (c) of the Commercial Computer Software - Restricted
 Rights clause in FAR 52.227-19.
  
 Gaussian, Inc.
 340 Quinnipiac St., Bldg. 40, Wallingford CT 06492
  
  
 ---------------------------------------------------------------
 Warning -- This program may not be used in any manner that
 competes with the business of Gaussian, Inc. or will provide
 assistance to any competitor of Gaussian, Inc.  The licensee
 of this program is prohibited from giving any competitor of
 Gaussian, Inc. access to this program.  By using this program,
 the user acknowledges that Gaussian, Inc. is engaged in the
 business of creating and licensing software in the field of
 computational chemistry and represents and warrants to the
 licensee that it is not a competitor of Gaussian, Inc. and that
 it will not use this program in any manner prohibited above.
 ---------------------------------------------------------------
  

 Cite this work as:
 Gaussian 16, Revision A.03,
 M. J. Frisch, G. W. Trucks, H. B. Schlegel, G. E. Scuseria, 
 M. A. Robb, J. R. Cheeseman, G. Scalmani, V. Barone, 
 G. A. Petersson, H. Nakatsuji, X. Li, M. Caricato, A. V. Marenich, 
 J. Bloino, B. G. Janesko, R. Gomperts, B. Mennucci, H. P. Hratchian, 
 J. V. Ortiz, A. F. Izmaylov, J. L. Sonnenberg, D. Williams-Young, 
 F. Ding, F. Lipparini, F. Egidi, J. Goings, B. Peng, A. Petrone, 
 T. Henderson, D. Ranasinghe, V. G. Zakrzewski, J. Gao, N. Rega, 
 G. Zheng, W. Liang, M. Hada, M. Ehara, K. Toyota, R. Fukuda, 
 J. Hasegawa, M. Ishida, T. Nakajima, Y. Honda, O. Kitao, H. Nakai, 
 T. Vreven, K. Throssell, J. A. Montgomery, Jr., J. E. Peralta, 
 F. Ogliaro, M. J. Bearpark, J. J. Heyd, E. N. Brothers, K. N. Kudin, 
 V. N. Staroverov, T. A. Keith, R. Kobayashi, J. Normand, 
 K. Raghavachari, A. P. Rendell, J. C. Burant, S. S. Iyengar, 
 J. Tomasi, M. Cossi, J. M. Millam, M. Klene, C. Adamo, R. Cammi, 
 J. W. Ochterski, R. L. Martin, K. Morokuma, O. Farkas, 
 J. B. Foresman, and D. J. Fox, Gaussian, Inc., Wallingford CT, 2016.
 
 ******************************************
 Gaussian 16:  ES64L-G16RevA.03 25-Dec-2016
                18-Oct-2019 
 ******************************************
 %chk=ts_smd_dichloromethane_maugccpvtz.chk
 %nprocshared=24
 Will use up to   24 processors via shared memory.
 ----------------------------------------------------------------------
 #p opt=(calcall,ts,noeigen) freq b3lyp def2tzvp em=gd3bj scrf=(smd,sol
 vent=dichloromethane)
 ----------------------------------------------------------------------
 1/5=1,10=4,11=1,18=20,26=3,38=1/1,3;
 2/9=110,12=2,17=6,18=5,40=1/2;
 3/5=44,7=101,11=2,25=1,30=1,70=32201,71=2,72=9,74=-5,124=41,140=1/1,2,3;
 4//1;
 5/5=2,38=5,53=9/2;
 8/6=4,10=90,11=11/1;
 11/6=1,8=1,9=11,15=111,16=1/1,2,10;
 10/6=1/2;
 6/7=2,8=2,9=2,10=2,18=1,28=1/1;
 7/10=1,25=1/1,2,3,16;
 1/5=1,10=4,11=1,18=20,26=3/3(3);
 2/9=110/2;
 7/8=1,9=1,25=1,44=-1/16;
 99//99;
 2/9=110/2;
 3/5=44,7=101,11=2,25=1,30=1,70=32205,71=2,72=9,74=-5,124=41,140=1/1,2,3;
 4/5=5,16=3,69=1/1;
 5/5=2,38=5,53=9/2;
 8/6=4,10=90,11=11/1;
 11/6=1,8=1,9=11,15=111,16=1/1,2,10;
 10/6=1/2;
 7/10=1,25=1/1,2,3,16;
 1/5=1,10=4,11=1,18=20,26=3/3(-8);
 2/9=110/2;
 6/7=2,8=2,9=2,10=2,18=1,19=2,28=1/1;
 7/8=1,9=1,25=1,44=-1/16;
 99//99;
 Leave Link    1 at Fri Oct 18 01:10:28 2019, MaxMem=           0 cpu:              10.2 elap:               0.4
 (Enter /share/home/wli/program/opt/Chem_soft/g16/l101.exe)
 -------------------
 Title Card Required
 -------------------
 Symbolic Z-matrix:
 Charge = -1 Multiplicity = 1
 C                     0.7043    0.00002   0.00027 
 H                     0.7584   -0.9393   -0.50874 
 H                     0.7584    0.91052  -0.55864 
 H                     0.75836   0.02883   1.06826 
 Cl                    3.14574  0.        -0.00007 
 Br                   -1.71367  0.        -0.00004 
 
 Add virtual bond connecting atoms Br6        and C1         Dist= 4.57D+00.
 Add virtual bond connecting atoms Cl5        and C1         Dist= 4.61D+00.
 ITRead=  0  0  0  0  0  0
 MicOpt= -1 -1 -1 -1 -1 -1
 NAtoms=      6 NQM=        6 NQMF=       0 NMMI=      0 NMMIF=      0
                NMic=       0 NMicF=      0.
                    Isotopes and Nuclear Properties:
 (Nuclear quadrupole moments (NQMom) in fm**2, nuclear magnetic moments (NMagM)
  in nuclear magnetons)

  Atom         1           2           3           4           5           6
 IAtWgt=          12           1           1           1          35          79
 AtmWgt=  12.0000000   1.0078250   1.0078250   1.0078250  34.9688527  78.9183361
 NucSpn=           0           1           1           1           3           3
 AtZEff=  -0.0000000  -0.0000000  -0.0000000  -0.0000000  -0.0000000  -0.0000000
 NQMom=    0.0000000   0.0000000   0.0000000   0.0000000  -8.1650000  31.3000000
 NMagM=    0.0000000   2.7928460   2.7928460   2.7928460   0.8218740   2.1063990
 AtZNuc=   6.0000000   1.0000000   1.0000000   1.0000000  17.0000000  35.0000000
 Leave Link  101 at Fri Oct 18 01:10:28 2019, MaxMem=   104857600 cpu:               4.5 elap:               0.2
 (Enter /share/home/wli/program/opt/Chem_soft/g16/l103.exe)

 GradGradGradGradGradGradGradGradGradGradGradGradGradGradGradGradGradGrad
 Berny optimization.
 Initialization pass.
                           ----------------------------
                           !    Initial Parameters    !
                           ! (Angstroms and Degrees)  !
 --------------------------                            --------------------------
 ! Name  Definition              Value          Derivative Info.                !
 --------------------------------------------------------------------------------
 ! R1    R(1,2)                  1.0697         calculate D2E/DX2 analytically  !
 ! R2    R(1,3)                  1.0697         calculate D2E/DX2 analytically  !
 ! R3    R(1,4)                  1.0697         calculate D2E/DX2 analytically  !
 ! R4    R(1,5)                  2.4414         calculate D2E/DX2 analytically  !
 ! R5    R(1,6)                  2.418          calculate D2E/DX2 analytically  !
 ! A1    A(2,1,3)              119.75           calculate D2E/DX2 analytically  !
 ! A2    A(2,1,4)              119.7451         calculate D2E/DX2 analytically  !
 ! A3    A(2,1,5)               87.097          calculate D2E/DX2 analytically  !
 ! A4    A(2,1,6)               92.895          calculate D2E/DX2 analytically  !
 ! A5    A(3,1,4)              119.7448         calculate D2E/DX2 analytically  !
 ! A6    A(3,1,5)               87.0974         calculate D2E/DX2 analytically  !
 ! A7    A(3,1,6)               92.8953         calculate D2E/DX2 analytically  !
 ! A8    A(4,1,5)               87.1112         calculate D2E/DX2 analytically  !
 ! A9    A(4,1,6)               92.9041         calculate D2E/DX2 analytically  !
 ! A10   L(5,1,6,2,-1)         179.9919         calculate D2E/DX2 analytically  !
 ! A11   L(5,1,6,2,-2)         180.0131         calculate D2E/DX2 analytically  !
 ! D1    D(2,1,4,3)            169.9907         calculate D2E/DX2 analytically  !
 ! D2    D(2,1,5,3)            120.0042         calculate D2E/DX2 analytically  !
 ! D3    D(2,1,6,3)           -120.0028         calculate D2E/DX2 analytically  !
 ! D4    D(2,1,5,4)           -119.998          calculate D2E/DX2 analytically  !
 ! D5    D(2,1,6,4)            119.9987         calculate D2E/DX2 analytically  !
 ! D6    D(3,1,5,4)            119.9978         calculate D2E/DX2 analytically  !
 ! D7    D(3,1,6,4)           -119.9985         calculate D2E/DX2 analytically  !
 --------------------------------------------------------------------------------
 Trust Radius=3.00D-01 FncErr=1.00D-07 GrdErr=1.00D-06 EigMax=2.50D+02 EigMin=1.00D-04
 Number of steps in this run=     33 maximum allowed number of steps=    100.
 Search for a saddle point of order  1.
 GradGradGradGradGradGradGradGradGradGradGradGradGradGradGradGradGradGrad

 Leave Link  103 at Fri Oct 18 01:10:28 2019, MaxMem=   104857600 cpu:               0.9 elap:               0.1
 (Enter /share/home/wli/program/opt/Chem_soft/g16/l202.exe)
                          Input orientation:                          
 ---------------------------------------------------------------------
 Center     Atomic      Atomic             Coordinates (Angstroms)
 Number     Number       Type             X           Y           Z
 ---------------------------------------------------------------------
      1          6           0        0.704300    0.000015    0.000271
      2          1           0        0.758398   -0.939298   -0.508737
      3          1           0        0.758398    0.910520   -0.558639
      4          1           0        0.758363    0.028828    1.068261
      5         17           0        3.145737   -0.000004   -0.000074
      6         35           0       -1.713671   -0.000002   -0.000036
 ---------------------------------------------------------------------
                    Distance matrix (angstroms):
                    1          2          3          4          5
     1  C    0.000000
     2  H    1.069731   0.000000
     3  H    1.069732   1.850491   0.000000
     4  H    1.069746   1.850457   1.850455   0.000000
     5  Cl   2.441437   2.615416   2.615423   2.615669   0.000000
     6  Br   2.417971   2.692987   2.692993   2.693147   4.859408
                    6
     6  Br   0.000000
 This structure is nearly, but not quite of a higher symmetry.
 Consider Symm=Loose if the higher symmetry is desired.
 Stoichiometry    CH3BrCl(1-)
 Framework group  C1[X(CH3BrCl)]
 Deg. of freedom    12
 Full point group                 C1      NOp   1
 Largest Abelian subgroup         C1      NOp   1
 Largest concise Abelian subgroup C1      NOp   1
                         Standard orientation:                         
 ---------------------------------------------------------------------
 Center     Atomic      Atomic             Coordinates (Angstroms)
 Number     Number       Type             X           Y           Z
 ---------------------------------------------------------------------
      1          6           0        0.000249    0.003906    0.704289
      2          1           0       -0.513980    0.940658    0.753158
      3          1           0       -0.553586   -0.909380    0.763454
      4          1           0        1.068382   -0.018660    0.758512
      5         17           0       -0.000171    0.017512    3.145688
      6         35           0        0.000017   -0.009536   -1.713645
 ---------------------------------------------------------------------
 Rotational constants (GHZ):         146.4430850           0.8630335           0.8630334
 Leave Link  202 at Fri Oct 18 01:10:28 2019, MaxMem=   104857600 cpu:               1.8 elap:               0.1
 (Enter /share/home/wli/program/opt/Chem_soft/g16/l301.exe)
 Standard basis: def2TZVP (5D, 7F)
 Ernie: Thresh=  0.10000D-02 Tol=  0.10000D-05 Strict=F.
 There are   151 symmetry adapted cartesian basis functions of A   symmetry.
 There are   134 symmetry adapted basis functions of A   symmetry.
   134 basis functions,   258 primitive gaussians,   151 cartesian basis functions
    31 alpha electrons       31 beta electrons
       nuclear repulsion energy       173.5741035171 Hartrees.
 IExCor=  402 DFT=T Ex+Corr=B3LYP ExCW=0 ScaHFX=  0.200000
 ScaDFX=  0.800000  0.720000  1.000000  0.810000 ScalE2=  1.000000  1.000000
 IRadAn=      5 IRanWt=     -1 IRanGd=            0 ICorTp=0 IEmpDi=141
 NAtoms=    6 NActive=    6 NUniq=    6 SFac= 1.00D+00 NAtFMM=   60 NAOKFM=F Big=F
 Integral buffers will be    131072 words long.
 Raffenetti 2 integral format.
 Two-electron integral symmetry is turned on.
 R6Disp:  Grimme-D3(BJ) Dispersion energy=       -0.0069969608 Hartrees.
 Nuclear repulsion after empirical dispersion term =      173.5671065563 Hartrees.
 Force inversion solution in PCM.
 ------------------------------------------------------------------------------
 Polarizable Continuum Model (PCM)
 =================================
 Model                : PCM.
 Atomic radii         : SMD-Coulomb.
 Polarization charges : Total charges.
 Charge compensation  : None.
 Solution method      : Matrix inversion.
 Cavity type          : VdW (van der Waals Surface) (Alpha=1.000).
 Cavity algorithm     : GePol (No added spheres)
                        Default sphere list used, NSphG=    6.
                        Lebedev-Laikov grids with approx.  5.0 points / Ang**2.
                        Smoothing algorithm: York/Karplus (Gamma=1.0000).
                        Polarization charges: spherical gaussians, with
                                              point-specific exponents (IZeta= 3).
                        Self-potential: point-specific (ISelfS= 7).
                        Self-field    : sphere-specific E.n sum rule (ISelfD= 2).
 1st derivatives      : Analytical E(r).r(x)/FMM algorithm (CHGder, D1EAlg=3).
                        Cavity 1st derivative terms included.
 2nd derivatives      : Analytical E(r).r(xy)/FMM algorithm (CHGder, D2EAlg=3).
                        Cavity 2nd derivative terms included.
 Solvent              : Dichloromethane, Eps=   8.930000 Eps(inf)=   2.028346
 ------------------------------------------------------------------------------
 Spheres list:
 ISph  on   Nord     Re0    Alpha      Xe            Ye            Ze
    1   C      1    1.8500  1.000      0.000249      0.003906      0.704289
    2   H      2    1.2000  1.000     -0.513980      0.940658      0.753158
    3   H      3    1.2000  1.000     -0.553586     -0.909380      0.763454
    4   H      4    1.2000  1.000      1.068382     -0.018660      0.758512
    5  Cl      5    2.3800  1.000     -0.000171      0.017512      3.145688
    6  Br      6    3.0600  1.000      0.000017     -0.009536     -1.713645
 ------------------------------------------------------------------------------
 GePol: Number of generator spheres                  =       6
 GePol: Total number of spheres                      =       6
 GePol: Number of exposed spheres                    =       6 (100.00%)
 GePol: Number of points                             =    1023
 GePol: Average weight of points                     =       0.17
 GePol: Minimum weight of points                     =   0.23D-06
 GePol: Maximum weight of points                     =    0.22025
 GePol: Number of points with low weight             =      16
 GePol: Fraction of low-weight points (<1% of avg)   =       1.56%
 GePol: Cavity surface area                          =    176.412 Ang**2
 GePol: Cavity volume                                =    179.468 Ang**3
 ------------------------------------------------------------------------------
 Atomic radii for non-electrostatic terms: SMD-CDS.
 ------------------------------------------------------------------------------
 PCM non-electrostatic energy =        -0.0048273826 Hartrees.
 Nuclear repulsion after PCM non-electrostatic terms =      173.5622791737 Hartrees.
 Leave Link  301 at Fri Oct 18 01:10:28 2019, MaxMem=   104857600 cpu:               3.9 elap:               0.2
 (Enter /share/home/wli/program/opt/Chem_soft/g16/l302.exe)
 NPDir=0 NMtPBC=     1 NCelOv=     1 NCel=       1 NClECP=     1 NCelD=      1
         NCelK=      1 NCelE2=     1 NClLst=     1 CellRange=     0.0.
 One-electron integrals computed using PRISM.
 One-electron integral symmetry used in STVInt
 PrsmSu:  requested number of processors reduced to:  13 ShMem   1 Linda.
   1 Symmetry operations used in ECPInt.
 ECPInt:  NShTT=    1378 NPrTT=    5593 LenC2=    1324 LenP2D=    4259.
 LDataN:  DoStor=T MaxTD1= 6 Len=  172
 NBasis=   134 RedAO= T EigKep=  1.43D-03  NBF=   134
 NBsUse=   134 1.00D-06 EigRej= -1.00D+00 NBFU=   134
 Precomputing XC quadrature grid using
 IXCGrd= 4 IRadAn=           5 IRanWt=          -1 IRanGd=           0 AccXCQ= 0.00D+00.
 Generated NRdTot=       0 NPtTot=           0 NUsed=           0 NTot=          32
 NSgBfM=   150   150   150   150   150 MxSgAt=     6 MxSgA2=     6.
 Leave Link  302 at Fri Oct 18 01:10:30 2019, MaxMem=   104857600 cpu:              33.3 elap:               1.5
 (Enter /share/home/wli/program/opt/Chem_soft/g16/l303.exe)
 DipDrv:  MaxL=1.
 Leave Link  303 at Fri Oct 18 01:10:30 2019, MaxMem=   104857600 cpu:               3.6 elap:               0.2
 (Enter /share/home/wli/program/opt/Chem_soft/g16/l401.exe)
 ExpMin= 9.52D-02 ExpMax= 5.65D+05 ExpMxC= 5.46D+03 IAcc=3 IRadAn=         5 AccDes= 0.00D+00
 Harris functional with IExCor=  402 and IRadAn=       5 diagonalized for initial guess.
 HarFok:  IExCor=  402 AccDes= 0.00D+00 IRadAn=         5 IDoV= 1 UseB2=F ITyADJ=14
 ICtDFT=  3500011 ScaDFX=  1.000000  1.000000  1.000000  1.000000
 FoFCou: FMM=F IPFlag=           0 FMFlag=      100000 FMFlg1=           0
         NFxFlg=           0 DoJE=T BraDBF=F KetDBF=T FulRan=T
         wScrn=  0.000000 ICntrl=       500 IOpCl=  0 I1Cent=   200000004 NGrid=           0
         NMat0=    1 NMatS0=      1 NMatT0=    0 NMatD0=    1 NMtDS0=    0 NMtDT0=    0
 Petite list used in FoFCou.
 Harris En= -3074.57060494613    
 JPrj=0 DoOrth=F DoCkMO=F.
 Leave Link  401 at Fri Oct 18 01:10:30 2019, MaxMem=   104857600 cpu:               8.9 elap:               0.4
 (Enter /share/home/wli/program/opt/Chem_soft/g16/l502.exe)
 Keep R1 ints in memory in canonical form, NReq=64315121.
 FoFCou: FMM=F IPFlag=           0 FMFlag=           0 FMFlg1=           0
         NFxFlg=           0 DoJE=F BraDBF=F KetDBF=F FulRan=T
         wScrn=  0.000000 ICntrl=       600 IOpCl=  0 I1Cent=           0 NGrid=           0
         NMat0=    1 NMatS0=   9045 NMatT0=    0 NMatD0=    1 NMtDS0=    0 NMtDT0=    0
 Symmetry not used in FoFCou.
 Two-electron integral symmetry not used.
 Closed shell SCF:
 Using DIIS extrapolation, IDIIS=  1040.
 NGot=   104857600 LenX=    63896377 LenY=    63873135
 Requested convergence on RMS density matrix=1.00D-08 within 128 cycles.
 Requested convergence on MAX density matrix=1.00D-06.
 Requested convergence on             energy=1.00D-06.
 No special actions if energy rises.

 Cycle   1  Pass 1  IDiag  1:
 CoulSu:  requested number of processors reduced to:  17 ShMem   1 Linda.
 Inv3:  Mode=1 IEnd=     3139587.
 Iteration    1 A*A^-1 deviation from unit magnitude is 4.66D-15 for   1014.
 Iteration    1 A*A^-1 deviation from orthogonality  is 2.02D-15 for   1018    738.
 Iteration    1 A^-1*A deviation from unit magnitude is 4.66D-15 for   1014.
 Iteration    1 A^-1*A deviation from orthogonality  is 4.65D-14 for    520     80.
 CoulSu:  requested number of processors reduced to:  17 ShMem   1 Linda.
 CoulSu:  requested number of processors reduced to:  17 ShMem   1 Linda.
 E= -3074.40060208708    
 DIIS: error= 5.06D-02 at cycle   1 NSaved=   1.
 NSaved= 1 IEnMin= 1 EnMin= -3074.40060208708     IErMin= 1 ErrMin= 5.06D-02
 ErrMax= 5.06D-02  0.00D+00 EMaxC= 1.00D-01 BMatC= 2.14D-01 BMatP= 2.14D-01
 IDIUse=3 WtCom= 4.94D-01 WtEn= 5.06D-01
 Coeff-Com:  0.100D+01
 Coeff-En:   0.100D+01
 Coeff:      0.100D+01
 Gap=     0.314 Goal=   None    Shift=    0.000
 GapD=    0.314 DampG=1.000 DampE=0.500 DampFc=0.5000 IDamp=-1.
 Damping current iteration by 5.00D-01
 RMSDP=4.50D-03 MaxDP=1.33D-01              OVMax= 2.74D-01

 Cycle   2  Pass 1  IDiag  1:
 E= -3074.44652132479     Delta-E=       -0.045919237710 Rises=F Damp=T
 DIIS: error= 2.05D-02 at cycle   2 NSaved=   2.
 NSaved= 2 IEnMin= 2 EnMin= -3074.44652132479     IErMin= 2 ErrMin= 2.05D-02
 ErrMax= 2.05D-02  0.00D+00 EMaxC= 1.00D-01 BMatC= 2.57D-02 BMatP= 2.14D-01
 IDIUse=3 WtCom= 7.95D-01 WtEn= 2.05D-01
 Coeff-Com: -0.202D+00 0.120D+01
 Coeff-En:   0.000D+00 0.100D+01
 Coeff:     -0.161D+00 0.116D+01
 Gap=     0.185 Goal=   None    Shift=    0.000
 RMSDP=1.50D-03 MaxDP=4.01D-02 DE=-4.59D-02 OVMax= 1.93D-01

 Cycle   3  Pass 1  IDiag  1:
 E= -3074.47699851039     Delta-E=       -0.030477185605 Rises=F Damp=F
 DIIS: error= 1.34D-02 at cycle   3 NSaved=   3.
 NSaved= 3 IEnMin= 3 EnMin= -3074.47699851039     IErMin= 3 ErrMin= 1.34D-02
 ErrMax= 1.34D-02  0.00D+00 EMaxC= 1.00D-01 BMatC= 1.87D-02 BMatP= 2.57D-02
 IDIUse=3 WtCom= 8.66D-01 WtEn= 1.34D-01
 Coeff-Com: -0.194D+00 0.643D+00 0.551D+00
 Coeff-En:   0.000D+00 0.000D+00 0.100D+01
 Coeff:     -0.168D+00 0.557D+00 0.611D+00
 Gap=     0.208 Goal=   None    Shift=    0.000
 RMSDP=1.00D-03 MaxDP=2.55D-02 DE=-3.05D-02 OVMax= 1.14D-01

 Cycle   4  Pass 1  IDiag  1:
 E= -3074.49439007363     Delta-E=       -0.017391563234 Rises=F Damp=F
 DIIS: error= 5.26D-03 at cycle   4 NSaved=   4.
 NSaved= 4 IEnMin= 4 EnMin= -3074.49439007363     IErMin= 4 ErrMin= 5.26D-03
 ErrMax= 5.26D-03  0.00D+00 EMaxC= 1.00D-01 BMatC= 3.09D-03 BMatP= 1.87D-02
 IDIUse=3 WtCom= 9.47D-01 WtEn= 5.26D-02
 Coeff-Com: -0.200D-01 0.758D-01 0.304D+00 0.640D+00
 Coeff-En:   0.000D+00 0.000D+00 0.167D+00 0.833D+00
 Coeff:     -0.190D-01 0.718D-01 0.297D+00 0.650D+00
 Gap=     0.198 Goal=   None    Shift=    0.000
 RMSDP=3.95D-04 MaxDP=1.22D-02 DE=-1.74D-02 OVMax= 3.29D-02

 Cycle   5  Pass 1  IDiag  1:
 E= -3074.49787338393     Delta-E=       -0.003483310302 Rises=F Damp=F
 DIIS: error= 1.03D-03 at cycle   5 NSaved=   5.
 NSaved= 5 IEnMin= 5 EnMin= -3074.49787338393     IErMin= 5 ErrMin= 1.03D-03
 ErrMax= 1.03D-03  0.00D+00 EMaxC= 1.00D-01 BMatC= 1.65D-04 BMatP= 3.09D-03
 IDIUse=3 WtCom= 9.90D-01 WtEn= 1.03D-02
 Coeff-Com: -0.104D-01 0.220D-01 0.154D+00 0.353D+00 0.482D+00
 Coeff-En:   0.000D+00 0.000D+00 0.000D+00 0.000D+00 0.100D+01
 Coeff:     -0.103D-01 0.217D-01 0.152D+00 0.349D+00 0.487D+00
 Gap=     0.199 Goal=   None    Shift=    0.000
 RMSDP=1.13D-04 MaxDP=4.31D-03 DE=-3.48D-03 OVMax= 7.23D-03

 Cycle   6  Pass 1  IDiag  1:
 E= -3074.49800731820     Delta-E=       -0.000133934272 Rises=F Damp=F
 DIIS: error= 1.75D-04 at cycle   6 NSaved=   6.
 NSaved= 6 IEnMin= 6 EnMin= -3074.49800731820     IErMin= 6 ErrMin= 1.75D-04
 ErrMax= 1.75D-04  0.00D+00 EMaxC= 1.00D-01 BMatC= 5.08D-06 BMatP= 1.65D-04
 IDIUse=3 WtCom= 9.98D-01 WtEn= 1.75D-03
 Coeff-Com: -0.125D-02 0.929D-03 0.278D-01 0.641D-01 0.177D+00 0.732D+00
 Coeff-En:   0.000D+00 0.000D+00 0.000D+00 0.000D+00 0.000D+00 0.100D+01
 Coeff:     -0.124D-02 0.927D-03 0.278D-01 0.640D-01 0.176D+00 0.732D+00
 Gap=     0.199 Goal=   None    Shift=    0.000
 RMSDP=2.34D-05 MaxDP=7.58D-04 DE=-1.34D-04 OVMax= 2.04D-03

 Cycle   7  Pass 1  IDiag  1:
 E= -3074.49801197589     Delta-E=       -0.000004657687 Rises=F Damp=F
 DIIS: error= 1.07D-04 at cycle   7 NSaved=   7.
 NSaved= 7 IEnMin= 7 EnMin= -3074.49801197589     IErMin= 7 ErrMin= 1.07D-04
 ErrMax= 1.07D-04  0.00D+00 EMaxC= 1.00D-01 BMatC= 8.28D-07 BMatP= 5.08D-06
 IDIUse=3 WtCom= 9.99D-01 WtEn= 1.07D-03
 Coeff-Com:  0.677D-03-0.178D-02-0.555D-02-0.141D-01 0.206D-01 0.348D+00
 Coeff-Com:  0.652D+00
 Coeff-En:   0.000D+00 0.000D+00 0.000D+00 0.000D+00 0.000D+00 0.531D-01
 Coeff-En:   0.947D+00
 Coeff:      0.676D-03-0.178D-02-0.554D-02-0.141D-01 0.206D-01 0.348D+00
 Coeff:      0.652D+00
 Gap=     0.199 Goal=   None    Shift=    0.000
 RMSDP=7.99D-06 MaxDP=3.44D-04 DE=-4.66D-06 OVMax= 3.86D-04

 Cycle   8  Pass 1  IDiag  1:
 E= -3074.49801272415     Delta-E=       -0.000000748261 Rises=F Damp=F
 DIIS: error= 6.91D-06 at cycle   8 NSaved=   8.
 NSaved= 8 IEnMin= 8 EnMin= -3074.49801272415     IErMin= 8 ErrMin= 6.91D-06
 ErrMax= 6.91D-06  0.00D+00 EMaxC= 1.00D-01 BMatC= 6.68D-09 BMatP= 8.28D-07
 IDIUse=1 WtCom= 1.00D+00 WtEn= 0.00D+00
 Coeff-Com:  0.146D-03-0.278D-03-0.138D-02-0.356D-02-0.328D-02 0.185D-01
 Coeff-Com:  0.114D+00 0.875D+00
 Coeff:      0.146D-03-0.278D-03-0.138D-02-0.356D-02-0.328D-02 0.185D-01
 Coeff:      0.114D+00 0.875D+00
 Gap=     0.199 Goal=   None    Shift=    0.000
 RMSDP=8.63D-07 MaxDP=3.00D-05 DE=-7.48D-07 OVMax= 6.06D-05

 Cycle   9  Pass 1  IDiag  1:
 E= -3074.49801273228     Delta-E=       -0.000000008134 Rises=F Damp=F
 DIIS: error= 1.84D-06 at cycle   9 NSaved=   9.
 NSaved= 9 IEnMin= 9 EnMin= -3074.49801273228     IErMin= 9 ErrMin= 1.84D-06
 ErrMax= 1.84D-06  0.00D+00 EMaxC= 1.00D-01 BMatC= 3.61D-10 BMatP= 6.68D-09
 IDIUse=1 WtCom= 1.00D+00 WtEn= 0.00D+00
 Coeff-Com:  0.476D-04-0.859D-04-0.340D-03-0.880D-03-0.177D-02-0.263D-02
 Coeff-Com:  0.166D-01 0.296D+00 0.694D+00
 Coeff:      0.476D-04-0.859D-04-0.340D-03-0.880D-03-0.177D-02-0.263D-02
 Coeff:      0.166D-01 0.296D+00 0.694D+00
 Gap=     0.199 Goal=   None    Shift=    0.000
 RMSDP=1.30D-07 MaxDP=3.54D-06 DE=-8.13D-09 OVMax= 5.03D-06

 Cycle  10  Pass 1  IDiag  1:
 E= -3074.49801273264     Delta-E=       -0.000000000362 Rises=F Damp=F
 DIIS: error= 4.05D-07 at cycle  10 NSaved=  10.
 NSaved=10 IEnMin=10 EnMin= -3074.49801273264     IErMin=10 ErrMin= 4.05D-07
 ErrMax= 4.05D-07  0.00D+00 EMaxC= 1.00D-01 BMatC= 1.64D-11 BMatP= 3.61D-10
 IDIUse=1 WtCom= 1.00D+00 WtEn= 0.00D+00
 Coeff-Com:  0.353D-05-0.735D-05 0.120D-04 0.197D-04-0.323D-03-0.208D-02
 Coeff-Com: -0.540D-02 0.194D-01 0.163D+00 0.826D+00
 Coeff:      0.353D-05-0.735D-05 0.120D-04 0.197D-04-0.323D-03-0.208D-02
 Coeff:     -0.540D-02 0.194D-01 0.163D+00 0.826D+00
 Gap=     0.199 Goal=   None    Shift=    0.000
 RMSDP=4.22D-08 MaxDP=1.15D-06 DE=-3.62D-10 OVMax= 2.19D-06

 Cycle  11  Pass 1  IDiag  1:
 E= -3074.49801273269     Delta-E=       -0.000000000042 Rises=F Damp=F
 DIIS: error= 4.99D-08 at cycle  11 NSaved=  11.
 NSaved=11 IEnMin=11 EnMin= -3074.49801273269     IErMin=11 ErrMin= 4.99D-08
 ErrMax= 4.99D-08  0.00D+00 EMaxC= 1.00D-01 BMatC= 2.83D-13 BMatP= 1.64D-11
 IDIUse=1 WtCom= 1.00D+00 WtEn= 0.00D+00
 Coeff-Com: -0.321D-06 0.613D-06 0.493D-05 0.122D-04-0.188D-04-0.230D-03
 Coeff-Com: -0.826D-03-0.967D-03 0.151D-01 0.164D+00 0.823D+00
 Coeff:     -0.321D-06 0.613D-06 0.493D-05 0.122D-04-0.188D-04-0.230D-03
 Coeff:     -0.826D-03-0.967D-03 0.151D-01 0.164D+00 0.823D+00
 Gap=     0.199 Goal=   None    Shift=    0.000
 RMSDP=4.35D-09 MaxDP=1.30D-07 DE=-4.18D-11 OVMax= 3.26D-07

 CoulSu:  requested number of processors reduced to:  17 ShMem   1 Linda.
 CoulSu:  requested number of processors reduced to:  16 ShMem   1 Linda.
 Error on total polarization charges =  0.00601
 SCF Done:  E(RB3LYP) =  -3074.49801273     A.U. after   11 cycles
            NFock= 11  Conv=0.44D-08     -V/T= 2.0015
 KE= 3.069812679118D+03 PE=-7.700019258278D+03 EE= 1.382146287254D+03
 SMD-CDS (non-electrostatic) energy       (kcal/mol) =      -3.03
 (included in total energy above)
 Leave Link  502 at Fri Oct 18 01:10:37 2019, MaxMem=   104857600 cpu:             130.3 elap:               6.2
 (Enter /share/home/wli/program/opt/Chem_soft/g16/l801.exe)
 DoSCS=F DFT=T ScalE2(SS,OS)=  1.000000  1.000000
 Range of M.O.s used for correlation:     1   134
 NBasis=   134 NAE=    31 NBE=    31 NFC=     0 NFV=     0
 NROrb=    134 NOA=    31 NOB=    31 NVA=   103 NVB=   103
 Leave Link  801 at Fri Oct 18 01:10:37 2019, MaxMem=   104857600 cpu:               1.1 elap:               0.1
 (Enter /share/home/wli/program/opt/Chem_soft/g16/l1101.exe)
 Using compressed storage, NAtomX=     6.
 Will process      7 centers per pass.
 PrsmSu:  requested number of processors reduced to:  11 ShMem   1 Linda.
   1 Symmetry operations used in ECPInt.
 ECPInt:  NShTT=    1378 NPrTT=    5593 LenC2=    1324 LenP2D=    4259.
 LDataN:  DoStor=T MaxTD1= 7 Len=  274
 Number of processors reduced to  18 by ecpmxn.
 R6Disp: Adding Grimme-D3(BJ) dispersion energy 1st derivatives to the gradient.
 Leave Link 1101 at Fri Oct 18 01:10:37 2019, MaxMem=   104857600 cpu:               8.6 elap:               0.4
 (Enter /share/home/wli/program/opt/Chem_soft/g16/l1102.exe)
 Symmetrizing basis deriv contribution to polar:
 IMax=3 JMax=2 DiffMx= 0.00D+00
 Leave Link 1102 at Fri Oct 18 01:10:37 2019, MaxMem=   104857600 cpu:               2.6 elap:               0.1
 (Enter /share/home/wli/program/opt/Chem_soft/g16/l1110.exe)
 Forming Gx(P) for the SCF density, NAtomX=     6.
 Integral derivatives from FoFJK, PRISM(SPDF).
 Do as many integral derivatives as possible in FoFJK.
 G2DrvN: MDV=     104857020.
 G2DrvN: will do     7 centers at a time, making    1 passes.
 Calling FoFCou, ICntrl=  3107 FMM=F I1Cent=   0 AccDes= 0.00D+00.
 FoFJK:  IHMeth= 1 ICntrl=    3107 DoSepK=F KAlg= 0 I1Cent=           0 FoldK=F
 IRaf=         0 NMat=       1 IRICut=       1 DoRegI=T DoRafI=F ISym2E= 0 IDoP0=0 IntGTp=1.
 FoFCou: FMM=F IPFlag=           0 FMFlag=      100000 FMFlg1=           0
         NFxFlg=           0 DoJE=F BraDBF=F KetDBF=F FulRan=T
         wScrn=  0.000000 ICntrl=      3107 IOpCl=  0 I1Cent=           0 NGrid=           0
         NMat0=    1 NMatS0=      1 NMatT0=    0 NMatD0=    1 NMtDS0=    0 NMtDT0=    0
 Symmetry not used in FoFCou.
 NEqPCM:  Using equilibrium solvation (IEInf=0, Eps=   8.9300, EpsInf=   2.0283)
 G2PCM: DoFxE=T DoFxN=T DoGrad=T DoDP/DQ/DG/TGxP=FFFF NFrqRd=   0 IEInf=0 SqF1=F DoCFld=F IF1Alg=4.
 GePol: Maximum number of non-zero 1st derivatives   =     563
 CoulSu:  requested number of processors reduced to:  13 ShMem   1 Linda.
 CoulSu:  requested number of processors reduced to:  13 ShMem   1 Linda.
 CoulSu:  requested number of processors reduced to:  13 ShMem   1 Linda.
 CoulSu:  requested number of processors reduced to:  17 ShMem   1 Linda.
 CoulSu:  requested number of processors reduced to:  23 ShMem   1 Linda.
 CoulSu:  requested number of processors reduced to:  13 ShMem   1 Linda.
 CoulSu:  requested number of processors reduced to:  13 ShMem   1 Linda.
 CoulSu:  requested number of processors reduced to:  13 ShMem   1 Linda.
 CoulSu:  requested number of processors reduced to:  13 ShMem   1 Linda.
 End of G2Drv F.D. properties file   721 does not exist.
 End of G2Drv F.D. properties file   722 does not exist.
 End of G2Drv F.D. properties file   788 does not exist.
 Leave Link 1110 at Fri Oct 18 01:10:43 2019, MaxMem=   104857600 cpu:             130.5 elap:               5.7
 (Enter /share/home/wli/program/opt/Chem_soft/g16/l1002.exe)
 Minotr:  Closed shell wavefunction.
          IDoAtm=111111
 NEqPCM:  Using equilibrium solvation (IEInf=0, Eps=   8.9300, EpsInf=   2.0283)
          Direct CPHF calculation.
          Differentiating once with respect to electric field.
                with respect to dipole field.
          Differentiating once with respect to nuclear coordinates.
          Requested convergence is 1.0D-08 RMS, and 1.0D-07 maximum.
          Secondary convergence is 1.0D-12 RMS, and 1.0D-12 maximum.
          NewPWx=T KeepS1=F KeepF1=F KeepIn=T MapXYZ=F SortEE=F KeepMc=T.
         1761 words used for storage of precomputed grid.
 Keep R1 ints in memory in canonical form, NReq=64236638.
 FoFCou: FMM=F IPFlag=           0 FMFlag=           0 FMFlg1=           0
         NFxFlg=           0 DoJE=F BraDBF=F KetDBF=F FulRan=T
         wScrn=  0.000000 ICntrl=       600 IOpCl=  0 I1Cent=           0 NGrid=           0
         NMat0=    1 NMatS0=   9045 NMatT0=    0 NMatD0=    1 NMtDS0=    0 NMtDT0=    0
 Symmetry not used in FoFCou.
 Two-electron integral symmetry not used.
          MDV=     104857600 using IRadAn=       1.
          Solving linear equations simultaneously, MaxMat=       0.
 CoulSu:  requested number of processors reduced to:  13 ShMem   1 Linda.
 CoulSu:  requested number of processors reduced to:  13 ShMem   1 Linda.
          There are    21 degrees of freedom in the 1st order CPHF.  IDoFFX=6 NUNeed=     3.
     18 vectors produced by pass  0 Test12= 1.52D-14 4.76D-09 XBig12= 2.19D+02 1.42D+01.
 AX will form    18 AO Fock derivatives at one time.
 CoulSu:  requested number of processors reduced to:  14 ShMem   1 Linda.
 CoulSu:  requested number of processors reduced to:  14 ShMem   1 Linda.
     18 vectors produced by pass  1 Test12= 1.52D-14 4.76D-09 XBig12= 3.51D+01 2.09D+00.
 CoulSu:  requested number of processors reduced to:  14 ShMem   1 Linda.
 CoulSu:  requested number of processors reduced to:  14 ShMem   1 Linda.
     18 vectors produced by pass  2 Test12= 1.52D-14 4.76D-09 XBig12= 1.53D+00 2.74D-01.
 CoulSu:  requested number of processors reduced to:  14 ShMem   1 Linda.
 CoulSu:  requested number of processors reduced to:  14 ShMem   1 Linda.
     18 vectors produced by pass  3 Test12= 1.52D-14 4.76D-09 XBig12= 3.89D-02 4.10D-02.
 CoulSu:  requested number of processors reduced to:  14 ShMem   1 Linda.
 CoulSu:  requested number of processors reduced to:  14 ShMem   1 Linda.
     18 vectors produced by pass  4 Test12= 1.52D-14 4.76D-09 XBig12= 5.88D-04 5.42D-03.
 CoulSu:  requested number of processors reduced to:  14 ShMem   1 Linda.
 CoulSu:  requested number of processors reduced to:  14 ShMem   1 Linda.
     14 vectors produced by pass  5 Test12= 1.52D-14 4.76D-09 XBig12= 1.74D-06 2.36D-04.
 CoulSu:  requested number of processors reduced to:  17 ShMem   1 Linda.
 CoulSu:  requested number of processors reduced to:  16 ShMem   1 Linda.
      5 vectors produced by pass  6 Test12= 1.52D-14 4.76D-09 XBig12= 2.98D-09 9.39D-06.
      2 vectors produced by pass  7 Test12= 1.52D-14 4.76D-09 XBig12= 5.41D-12 3.71D-07.
      1 vectors produced by pass  8 Test12= 1.52D-14 4.76D-09 XBig12= 1.51D-14 2.13D-08.
 InvSVY:  IOpt=1 It=  1 EMax= 1.78D-14
 Solved reduced A of dimension   112 with    21 vectors.
 FullF1:  Do perturbations      1 to       3.
 Isotropic polarizability for W=    0.000000       84.70 Bohr**3.
 End of Minotr F.D. properties file   721 does not exist.
 End of Minotr F.D. properties file   722 does not exist.
 End of Minotr F.D. properties file   788 does not exist.
 Leave Link 1002 at Fri Oct 18 01:10:49 2019, MaxMem=   104857600 cpu:             127.7 elap:               6.0
 (Enter /share/home/wli/program/opt/Chem_soft/g16/l601.exe)
 Copying SCF densities to generalized density rwf, IOpCl= 0 IROHF=0.

 **********************************************************************

            Population analysis using the SCF density.

 **********************************************************************

 Orbital symmetries:
       Occupied  (A) (A) (A) (A) (A) (A) (A) (A) (A) (A) (A) (A)
                 (A) (A) (A) (A) (A) (A) (A) (A) (A) (A) (A) (A)
                 (A) (A) (A) (A) (A) (A) (A)
       Virtual   (A) (A) (A) (A) (A) (A) (A) (A) (A) (A) (A) (A)
                 (A) (A) (A) (A) (A) (A) (A) (A) (A) (A) (A) (A)
                 (A) (A) (A) (A) (A) (A) (A) (A) (A) (A) (A) (A)
                 (A) (A) (A) (A) (A) (A) (A) (A) (A) (A) (A) (A)
                 (A) (A) (A) (A) (A) (A) (A) (A) (A) (A) (A) (A)
                 (A) (A) (A) (A) (A) (A) (A) (A) (A) (A) (A) (A)
                 (A) (A) (A) (A) (A) (A) (A) (A) (A) (A) (A) (A)
                 (A) (A) (A) (A) (A) (A) (A) (A) (A) (A) (A) (A)
                 (A) (A) (A) (A) (A) (A) (A)
 The electronic state is 1-A.
 Alpha  occ. eigenvalues -- -482.76238-101.40010 -62.41077 -56.22577 -56.22391
 Alpha  occ. eigenvalues --  -56.22391 -10.20022  -9.33228  -8.60153  -7.08986
 Alpha  occ. eigenvalues --   -7.08725  -7.08725  -6.42747  -6.42180  -6.42180
 Alpha  occ. eigenvalues --   -2.54249  -2.54096  -2.54096  -2.53645  -2.53645
 Alpha  occ. eigenvalues --   -0.71252  -0.68115  -0.63454  -0.41750  -0.41747
 Alpha  occ. eigenvalues --   -0.28924  -0.22798  -0.22797  -0.21936  -0.21936
 Alpha  occ. eigenvalues --   -0.20989
 Alpha virt. eigenvalues --   -0.01082   0.07967   0.14158   0.14159   0.22357
 Alpha virt. eigenvalues --    0.22715   0.22718   0.29162   0.30378   0.30378
 Alpha virt. eigenvalues --    0.35410   0.35411   0.36455   0.38324   0.38324
 Alpha virt. eigenvalues --    0.42715   0.42715   0.43254   0.46568   0.49322
 Alpha virt. eigenvalues --    0.49323   0.51611   0.53942   0.53945   0.54192
 Alpha virt. eigenvalues --    0.54192   0.56764   0.80277   0.80278   0.80906
 Alpha virt. eigenvalues --    0.98793   0.98796   0.99540   1.13208   1.37634
 Alpha virt. eigenvalues --    1.40655   1.40656   1.41857   1.41858   1.47474
 Alpha virt. eigenvalues --    1.48523   1.48524   1.48642   1.49858   1.59170
 Alpha virt. eigenvalues --    1.59171   1.60662   1.60706   1.65518   1.65520
 Alpha virt. eigenvalues --    1.66834   1.69898   1.69900   1.81864   1.81864
 Alpha virt. eigenvalues --    1.84682   1.85553   1.85553   1.96291   1.96294
 Alpha virt. eigenvalues --    1.98730   2.06109   2.08119   2.08119   2.17333
 Alpha virt. eigenvalues --    2.17334   2.18585   2.18699   2.27922   2.27923
 Alpha virt. eigenvalues --    2.30677   2.30679   2.31779   2.36437   2.47327
 Alpha virt. eigenvalues --    2.47336   2.64481   2.68787   2.68789   2.80935
 Alpha virt. eigenvalues --    3.09468   3.09470   3.22734   3.22736   3.25679
 Alpha virt. eigenvalues --    3.31912   3.31912   3.64136   3.86265   4.06097
 Alpha virt. eigenvalues --    4.06100   4.09594   4.09594   4.18011   4.18011
 Alpha virt. eigenvalues --    4.29920   4.71973   7.44382  10.77787  10.77787
 Alpha virt. eigenvalues --   10.88996  22.12569  24.58295
          Condensed to atoms (all electrons):
               1          2          3          4          5          6
     1  C    4.891115   0.408654   0.408652   0.408600   0.003011   0.055561
     2  H    0.408654   0.489031  -0.021592  -0.021603  -0.003697  -0.014336
     3  H    0.408652  -0.021592   0.489110  -0.021617  -0.003701  -0.014335
     4  H    0.408600  -0.021603  -0.021617   0.489022  -0.003709  -0.014307
     5  Cl   0.003011  -0.003697  -0.003701  -0.003709  17.727793   0.009735
     6  Br   0.055561  -0.014336  -0.014335  -0.014307   0.009735  35.563302
 Mulliken charges:
               1
     1  C   -0.175592
     2  H    0.163544
     3  H    0.163483
     4  H    0.163615
     5  Cl  -0.729430
     6  Br  -0.585619
 Sum of Mulliken charges =  -1.00000
 Mulliken charges with hydrogens summed into heavy atoms:
               1
     1  C    0.315049
     5  Cl  -0.729430
     6  Br  -0.585619
 APT charges:
               1
     1  C    1.345296
     2  H   -0.014356
     3  H   -0.014609
     4  H   -0.014859
     5  Cl  -1.227315
     6  Br  -1.074158
 Sum of APT charges =  -1.00000
 APT charges with hydrogens summed into heavy atoms:
               1
     1  C    1.301473
     5  Cl  -1.227315
     6  Br  -1.074158
 Electronic spatial extent (au):  <R**2>=           1124.1541
 Charge=             -1.0000 electrons
 Dipole moment (field-independent basis, Debye):
    X=              0.0013    Y=             -0.0282    Z=             -5.1261  Tot=              5.1262
 Quadrupole moment (field-independent basis, Debye-Ang):
   XX=            -42.4616   YY=            -42.4635   ZZ=            -86.3554
   XY=             -0.0000   XZ=              0.0038   YZ=             -0.2440
 Traceless Quadrupole moment (field-independent basis, Debye-Ang):
   XX=             14.6319   YY=             14.6300   ZZ=            -29.2619
   XY=             -0.0000   XZ=              0.0038   YZ=             -0.2440
 Octapole moment (field-independent basis, Debye-Ang**2):
  XXX=              1.0885  YYY=             -0.1938  ZZZ=           -152.0315  XYY=             -1.0851
  XXY=             -0.1577  XXZ=            -15.8285  XZZ=              0.0077  YZZ=             -0.6690
  YYZ=            -15.8335  XYZ=              0.0060
 Hexadecapole moment (field-independent basis, Debye-Ang**3):
 XXXX=            -61.1726 YYYY=            -61.2145 ZZZZ=          -1693.0201 XXXY=              0.0045
 XXXZ=              0.8333 YYYX=             -0.0135 YYYZ=             -3.5493 ZZZX=              0.0472
 ZZZY=             -5.4791 XXYY=            -20.3994 XXZZ=           -236.0884 YYZZ=           -236.1087
 XXYZ=             -1.2523 YYXZ=             -0.7995 ZZXY=              0.0091
 N-N= 1.735622791737D+02 E-N=-7.700019255866D+03  KE= 3.069812679118D+03
  Exact polarizability:  45.878  -0.002  45.893  -0.013   0.646 162.316
 Approx polarizability:  60.410   0.000  60.416  -0.003   0.786 201.692
 No NMR shielding tensors so no spin-rotation constants.
 Leave Link  601 at Fri Oct 18 01:10:49 2019, MaxMem=   104857600 cpu:              12.1 elap:               0.6
 (Enter /share/home/wli/program/opt/Chem_soft/g16/l701.exe)
 ... and contract with generalized density number  0.
 Compute integral second derivatives.
 R6Disp: Adding Grimme-D3(BJ) dispersion energy 2nd derivatives to the Hessian.
 PrsmSu:  requested number of processors reduced to:   9 ShMem   1 Linda.
 PrsmSu:  requested number of processors reduced to:  13 ShMem   1 Linda.
   1 Symmetry operations used in ECPInt.
 ECPInt:  NShTT=    1378 NPrTT=    5593 LenC2=    1324 LenP2D=    4259.
 LDataN:  DoStor=T MaxTD1= 8 Len=  415
 D2PCM: PCM CHGder 2nd derivatives, FixD1E=F FixD2E=F DoIter=F DoCFld=F I1PDM=0
 GePol: Maximum number of non-zero 2nd derivatives   =     563
 CoulSu:  requested number of processors reduced to:  13 ShMem   1 Linda.
 CoulSu:  requested number of processors reduced to:  13 ShMem   1 Linda.
 CoulSu:  requested number of processors reduced to:  13 ShMem   1 Linda.
 CoulSu:  requested number of processors reduced to:  13 ShMem   1 Linda.
 CoulSu:  requested number of processors reduced to:  13 ShMem   1 Linda.
 CoulSu:  requested number of processors reduced to:  11 ShMem   1 Linda.
 CoulSu:  requested number of processors reduced to:  13 ShMem   1 Linda.
 CoulSu:  requested number of processors reduced to:  11 ShMem   1 Linda.
 CoulSu:  requested number of processors reduced to:  13 ShMem   1 Linda.
 CoulSu:  requested number of processors reduced to:  11 ShMem   1 Linda.
 CoulSu:  requested number of processors reduced to:  11 ShMem   1 Linda.
 CoulSu:  requested number of processors reduced to:  13 ShMem   1 Linda.
 CoulSu:  requested number of processors reduced to:  13 ShMem   1 Linda.
 CoulSu:  requested number of processors reduced to:  13 ShMem   1 Linda.
 CoulSu:  requested number of processors reduced to:  13 ShMem   1 Linda.
 CoulSu:  requested number of processors reduced to:  13 ShMem   1 Linda.
 Leave Link  701 at Fri Oct 18 01:10:53 2019, MaxMem=   104857600 cpu:              65.2 elap:               3.6
 (Enter /share/home/wli/program/opt/Chem_soft/g16/l702.exe)
 L702 exits ... SP integral derivatives will be done elsewhere.
 Leave Link  702 at Fri Oct 18 01:10:53 2019, MaxMem=   104857600 cpu:               1.1 elap:               0.1
 (Enter /share/home/wli/program/opt/Chem_soft/g16/l703.exe)
 Integral derivatives from FoFJK, PRISM(SPDF).
 Compute integral second derivatives, UseDBF=F ICtDFT=           0.
 Calling FoFJK, ICntrl=    100127 FMM=F ISym2X=0 I1Cent= 0 IOpClX= 0 NMat=1 NMatS=1 NMatT=0.
 FoFJK:  IHMeth= 1 ICntrl=  100127 DoSepK=F KAlg= 0 I1Cent=           0 FoldK=F
 IRaf=         0 NMat=       1 IRICut=       1 DoRegI=T DoRafI=F ISym2E= 0 IDoP0=0 IntGTp=1.
 FoFCou: FMM=F IPFlag=           0 FMFlag=      100000 FMFlg1=         800
         NFxFlg=           0 DoJE=F BraDBF=F KetDBF=F FulRan=T
         wScrn=  0.000000 ICntrl=    100127 IOpCl=  0 I1Cent=           0 NGrid=           0
         NMat0=    1 NMatS0=      1 NMatT0=    0 NMatD0=    1 NMtDS0=    0 NMtDT0=    0
 Symmetry not used in FoFCou.
 CoulSu:  requested number of processors reduced to:  13 ShMem   1 Linda.
 Leave Link  703 at Fri Oct 18 01:10:59 2019, MaxMem=   104857600 cpu:             112.0 elap:               5.9
 (Enter /share/home/wli/program/opt/Chem_soft/g16/l716.exe)
 Dipole        = 5.21372425D-04-1.10880022D-02-2.01675950D+00
 Polarizability= 4.58779229D+01-2.09392834D-03 4.58930901D+01
                -1.26239268D-02 6.46190244D-01 1.62316185D+02
 ***** Axes restored to original set *****
 -------------------------------------------------------------------
 Center     Atomic                   Forces (Hartrees/Bohr)
 Number     Number              X              Y              Z
 -------------------------------------------------------------------
      1        6          -0.010607727   -0.000006874    0.000068430
      2        1           0.000289383   -0.000992719   -0.000543718
      3        1           0.000277345    0.000983014   -0.000596602
      4        1           0.000264641    0.000013213    0.001200071
      5       17           0.004725053    0.000013765   -0.000139659
      6       35           0.005051305   -0.000010398    0.000011479
 -------------------------------------------------------------------
 Cartesian Forces:  Max     0.010607727 RMS     0.003024573
 Force constants in Cartesian coordinates: 
                1             2             3             4             5 
      1 -0.441947D-01
      2 -0.575450D-04  0.680115D+00
      3  0.136219D-03  0.736553D-04  0.680353D+00
      4 -0.104895D-01  0.163220D-01  0.885041D-02  0.342812D-01
      5  0.143136D-01 -0.309182D+00 -0.138336D+00 -0.149731D-01  0.312524D+00
      6  0.774058D-02 -0.138290D+00 -0.128745D+00 -0.813823D-02  0.145432D+00
      7 -0.105375D-01 -0.158295D-01  0.977645D-02  0.277886D-02  0.151743D-02
      8 -0.138489D-01 -0.293829D+00  0.147226D+00 -0.156747D-02 -0.117493D-01
      9  0.855502D-02  0.147146D+00 -0.144204D+00 -0.921932D-03 -0.127261D-01
     10 -0.105376D-01 -0.490351D-03 -0.185677D-01  0.278926D-02 -0.154253D-04
     11 -0.440950D-03 -0.540651D-01 -0.891616D-02 -0.163631D-02  0.436374D-02
     12 -0.162474D-01 -0.890078D-02 -0.383909D+00 -0.814497D-03  0.342134D-02
     13  0.361707D-01  0.987318D-04 -0.896606D-04 -0.133302D-01  0.181283D-02
     14  0.750161D-04 -0.906946D-02 -0.236166D-04 -0.511545D-02  0.206852D-02
     15 -0.172788D-03 -0.444149D-04 -0.946547D-02 -0.269963D-02  0.108018D-02
     16  0.395887D-01 -0.433738D-04 -0.105733D-03 -0.160296D-01 -0.265538D-02
     17 -0.412755D-04 -0.139700D-01 -0.238041D-04  0.697028D-02  0.197500D-02
     18 -0.115841D-04  0.161163D-04 -0.140297D-01  0.372387D-02  0.112927D-02
                6             7             8             9            10 
      6  0.122965D+00
      7 -0.100729D-02  0.343926D-01
      8  0.139156D-01  0.145710D-01  0.296137D+00
      9  0.104160D-01 -0.920596D-02 -0.154822D+00  0.139198D+00
     10  0.182157D-02  0.278857D-02  0.113332D-03  0.181874D-02  0.348164D-01
     11 -0.232459D-01  0.157927D-02  0.539995D-02  0.226421D-01  0.550684D-03
     12 -0.569386D-02 -0.896163D-03 -0.401987D-02 -0.672265D-02  0.174151D-01
     13  0.104378D-02 -0.133938D-01 -0.181944D-02  0.128735D-02 -0.139102D-01
     14  0.105318D-02  0.493205D-02  0.192703D-02 -0.109878D-02  0.575840D-04
     15  0.516724D-03 -0.282962D-02 -0.112644D-02  0.564007D-03  0.566510D-02
     16 -0.146041D-02 -0.160287D-01  0.255145D-02 -0.153321D-02 -0.159464D-01
     17  0.113553D-02 -0.677026D-02  0.211382D-02 -0.114092D-02 -0.215824D-03
     18  0.540707D-03  0.416259D-02 -0.117372D-02  0.749158D-03 -0.815281D-02
               11            12            13            14            15 
     11  0.446227D-01
     12  0.956733D-02  0.390758D+00
     13 -0.141046D-03 -0.220815D-02  0.283394D-01
     14 -0.209872D-03 -0.135602D-03  0.476492D-04  0.389281D-02
     15 -0.112260D-03  0.240433D-02 -0.226722D-04  0.202352D-03  0.457370D-02
     16  0.883529D-04  0.275117D-02 -0.238759D-01  0.315180D-05  0.596032D-04
     17 -0.111406D-03  0.675723D-04  0.128112D-05  0.139097D-02  0.000000D+00
     18  0.648242D-04  0.316344D-02 -0.106458D-04  0.246496D-05  0.140671D-02
               16            17            18 
     16  0.322919D-01
     17  0.557986D-04  0.860164D-02
     18  0.288578D-03 -0.389535D-04  0.816971D-02
 FormGI is forming the generalized inverse of G from B-inverse, IUseBI=4.
 Force constants in internal coordinates: 
                1             2             3             4             5 
      1  0.392150D+00
      2 -0.186039D-03  0.392072D+00
      3 -0.178824D-03 -0.184071D-03  0.391867D+00
      4 -0.276342D-02 -0.289877D-02 -0.291031D-02  0.283394D-01
      5 -0.221670D-02 -0.216250D-02 -0.194205D-02  0.238759D-01  0.322920D-01
      6  0.162526D-02  0.159394D-02 -0.315954D-02  0.471584D-03 -0.539553D-03
      7  0.166337D-02 -0.314806D-02  0.171004D-02  0.947917D-03 -0.117232D-02
      8 -0.300779D-02  0.204323D-02  0.194730D-02  0.439025D-02 -0.559659D-02
      9 -0.365732D-02  0.154002D-02  0.133918D-02 -0.433946D-02  0.532421D-02
     10 -0.315043D-02  0.168067D-02  0.160884D-02  0.966108D-03 -0.115609D-02
     11  0.193269D-02 -0.316302D-02  0.226624D-02  0.436822D-02 -0.555302D-02
     12  0.144257D-02 -0.362409D-02  0.153523D-02 -0.442985D-02  0.539400D-02
     13  0.186757D-02  0.184542D-02 -0.330105D-02  0.491428D-02 -0.528763D-02
     14  0.142284D-02  0.135894D-02 -0.378802D-02 -0.490351D-02  0.571914D-02
     15 -0.666510D-02  0.358325D-02  0.328648D-02  0.507901D-04 -0.272379D-03
     16 -0.485492D-04  0.577609D-02 -0.629637D-02  0.417574D-04  0.341518D-03
     17  0.106580D-02  0.986585D-03  0.721025D-03  0.156146D-01 -0.187690D-01
     18  0.172802D-02  0.170048D-02 -0.354585D-02 -0.295297D-03  0.437005D-03
     19 -0.143954D-02 -0.141952D-02  0.292387D-02  0.294196D-03 -0.396603D-03
     20 -0.177141D-02  0.350482D-02 -0.183775D-02 -0.137512D-03  0.224715D-03
     21  0.147563D-02 -0.290985D-02  0.150420D-02  0.141946D-03 -0.209546D-03
     22 -0.349943D-02  0.180433D-02  0.170810D-02  0.157785D-03 -0.212290D-03
     23  0.291516D-02 -0.149033D-02 -0.141967D-02 -0.152250D-03  0.187057D-03
                6             7             8             9            10 
      6  0.682176D-02
      7 -0.340605D-02  0.696733D-02
      8  0.872132D-03  0.119988D-02  0.259681D-01
      9 -0.951875D-03 -0.137069D-02 -0.160375D-01  0.323924D-01
     10 -0.340109D-02 -0.335726D-02 -0.128202D-02  0.154860D-02  0.696151D-02
     11  0.881974D-03 -0.130470D-02 -0.106235D-01  0.580460D-02  0.120670D-02
     12 -0.104958D-02  0.156219D-02  0.593028D-02 -0.139316D-01 -0.129773D-02
     13 -0.166938D-02  0.127370D-02 -0.108176D-01  0.579742D-02  0.123922D-02
     14  0.191829D-02 -0.136114D-02  0.557994D-02 -0.140257D-01 -0.141562D-02
     15 -0.797439D-04 -0.170816D-03  0.993054D-02  0.163549D-01  0.266579D-03
     16  0.241708D-03 -0.199910D-03 -0.315451D-03 -0.589213D-04 -0.497939D-04
     17  0.783523D-03  0.987764D-03  0.524294D-02 -0.514645D-02  0.982648D-03
     18  0.670268D-02 -0.341431D-02 -0.471110D-03 -0.579933D-04 -0.341192D-02
     19 -0.668124D-02  0.340666D-02  0.884685D-05 -0.660503D-03  0.339646D-02
     20  0.335340D-02 -0.678617D-02  0.118736D-03  0.482090D-03  0.337083D-02
     21 -0.333883D-02  0.676333D-02  0.287614D-03  0.235684D-03 -0.336264D-02
     22 -0.334928D-02 -0.337186D-02  0.589846D-03  0.540083D-03  0.678275D-02
     23  0.334241D-02  0.335667D-02  0.278767D-03  0.896187D-03 -0.675910D-02
               11            12            13            14            15 
     11  0.256567D-01
     12 -0.162018D-01  0.324957D-01
     13 -0.105406D-01  0.577205D-02  0.261941D-01
     14  0.590424D-02 -0.140650D-01 -0.164049D-01  0.330124D-01
     15 -0.481891D-02 -0.800136D-02 -0.502017D-02 -0.844573D-02  0.262854D-01
     16 -0.814584D-02 -0.142133D-01  0.841603D-02  0.143187D-01 -0.374372D-03
     17  0.520474D-02 -0.522904D-02  0.533609D-02 -0.540832D-02  0.964895D-04
     18 -0.434018D-03 -0.152719D-03  0.198055D-03  0.919418D-03 -0.529103D-03
     19  0.242721D-04 -0.571188D-03  0.664415D-03  0.532647D-03 -0.651656D-03
     20 -0.542906D-03 -0.544892D-03  0.696652D-04  0.418080D-03  0.600826D-03
     21 -0.284208D-03 -0.885836D-03  0.350692D-03  0.295339D-03  0.523298D-03
     22 -0.108889D-03 -0.392174D-03 -0.128390D-03 -0.501338D-03  0.112993D-02
     23 -0.308480D-03 -0.314648D-03 -0.313723D-03 -0.237308D-03  0.117495D-02
               16            17            18            19            20 
     16  0.260686D-01
     17 -0.277949D-04  0.180495D-01
     18  0.986161D-03 -0.130130D-03  0.681657D-02
     19  0.100727D-02  0.121365D-03 -0.671843D-02  0.682323D-02
     20  0.911283D-03 -0.659302D-04  0.340786D-02 -0.336501D-02  0.683731D-02
     21  0.104935D-02  0.669048D-04 -0.335626D-02  0.341282D-02 -0.674193D-02
     22 -0.748790D-04  0.641997D-04 -0.340871D-02  0.335341D-02  0.342945D-02
     23  0.420776D-04 -0.544607D-04  0.336217D-02 -0.341041D-02 -0.337691D-02
               21            22            23 
     21  0.684453D-02
     22 -0.338567D-02  0.683816D-02
     23  0.343171D-02 -0.673908D-02  0.684212D-02
 Leave Link  716 at Fri Oct 18 01:10:59 2019, MaxMem=   104857600 cpu:               2.6 elap:               0.1
 (Enter /share/home/wli/program/opt/Chem_soft/g16/l103.exe)

 GradGradGradGradGradGradGradGradGradGradGradGradGradGradGradGradGradGrad
 Berny optimization.
 Red2BG is reusing G-inverse.
 Internal  Forces:  Max     0.005051304 RMS     0.001505441
 Search for a saddle point.
 Step number   1 out of a maximum of   33
 All quantities printed in internal units (Hartrees-Bohrs-Radians)
 Swapping is turned off.
 Second derivative matrix not updated -- analytic derivatives used.
 ITU=  0
     Eigenvalues ---   -0.01484   0.03000   0.03020   0.04209   0.04351
     Eigenvalues ---    0.04711   0.05574   0.06637   0.06709   0.39178
     Eigenvalues ---    0.39269   0.39284
 Eigenvectors required to have negative eigenvalues:
                          R4        R5        D1        A9        A3
   1                   -0.57719   0.57622   0.46965  -0.13920   0.13734
                          A6        A8        A7        A4        A5
   1                    0.13711   0.13625  -0.13600  -0.13550   0.02570
 RFO step:  Lambda0=2.016283385D-03 Lambda=-2.97311791D-04.
 Linear search not attempted -- option 19 set.
 Iteration  1 RMS(Cart)=  0.02887726 RMS(Int)=  0.00346210
 Iteration  2 RMS(Cart)=  0.00178255 RMS(Int)=  0.00240152
 Iteration  3 RMS(Cart)=  0.00000670 RMS(Int)=  0.00240149
 Iteration  4 RMS(Cart)=  0.00000002 RMS(Int)=  0.00240149
 ITry= 1 IFail=0 DXMaxC= 1.19D-01 DCOld= 1.00D+10 DXMaxT= 3.00D-01 DXLimC= 3.00D+00 Rises=F
 Variable       Old X    -DE/DX   Delta X   Delta X   Delta X     New X
                                 (Linear)    (Quad)   (Total)
    R1        2.02150   0.00115   0.00000   0.00182   0.00182   2.02332
    R2        2.02150   0.00116   0.00000   0.00183   0.00183   2.02333
    R3        2.02153   0.00121   0.00000   0.00208   0.00208   2.02361
    R4        4.61365   0.00473   0.00000  -0.16770  -0.16770   4.44594
    R5        4.56930  -0.00505   0.00000   0.16870   0.16870   4.73800
    A1        2.09003  -0.00001   0.00000   0.01082   0.00426   2.09429
    A2        2.08995  -0.00002   0.00000   0.01070   0.00403   2.09398
    A3        1.52013  -0.00013   0.00000   0.06098   0.06067   1.58080
    A4        1.62132   0.00006   0.00000  -0.06222  -0.06191   1.55942
    A5        2.08994  -0.00001   0.00000   0.01099   0.00432   2.09426
    A6        1.52014  -0.00014   0.00000   0.06075   0.06044   1.58057
    A7        1.62133   0.00005   0.00000  -0.06240  -0.06209   1.55924
    A8        1.52038   0.00005   0.00000   0.06457   0.06426   1.58464
    A9        1.62148   0.00012   0.00000  -0.06168  -0.06137   1.56011
   A10        3.14145  -0.00008   0.00000  -0.00123  -0.00123   3.14022
   A11        3.14182   0.00015   0.00000   0.00263   0.00263   3.14445
    D1        2.96690  -0.00025   0.00000   0.21320   0.21351  -3.10277
    D2        2.09447   0.00001   0.00000   0.00018  -0.00000   2.09446
    D3       -2.09444   0.00000   0.00000   0.00004  -0.00008  -2.09452
    D4       -2.09436   0.00001   0.00000   0.00025   0.00014  -2.09422
    D5        2.09437  -0.00000   0.00000  -0.00012  -0.00019   2.09419
    D6        2.09436  -0.00000   0.00000   0.00006   0.00014   2.09450
    D7       -2.09437  -0.00000   0.00000  -0.00016  -0.00011  -2.09448
         Item               Value     Threshold  Converged?
 Maximum Force            0.005051     0.000450     NO 
 RMS     Force            0.001505     0.000300     NO 
 Maximum Displacement     0.118511     0.001800     NO 
 RMS     Displacement     0.028914     0.001200     NO 
 Predicted change in Energy= 9.788467D-04
 Lowest energy point so far.  Saving SCF results.
 GradGradGradGradGradGradGradGradGradGradGradGradGradGradGradGradGradGrad

 Leave Link  103 at Fri Oct 18 01:11:00 2019, MaxMem=   104857600 cpu:              17.0 elap:               0.8
 (Enter /share/home/wli/program/opt/Chem_soft/g16/l202.exe)
                          Input orientation:                          
 ---------------------------------------------------------------------
 Center     Atomic      Atomic             Coordinates (Angstroms)
 Number     Number       Type             X           Y           Z
 ---------------------------------------------------------------------
      1          6           0        0.767013   -0.000028    0.001412
      2          1           0        0.755467   -0.941372   -0.508613
      3          1           0        0.755482    0.912399   -0.558713
      4          1           0        0.754088    0.028746    1.071796
      5         17           0        3.119702    0.000153   -0.002761
      6         35           0       -1.740228    0.000160   -0.002075
 ---------------------------------------------------------------------
                    Distance matrix (angstroms):
                    1          2          3          4          5
     1  C    0.000000
     2  H    1.070695   0.000000
     3  H    1.070699   1.854449   0.000000
     4  H    1.070848   1.854407   1.854563   0.000000
     5  Cl   2.352693   2.594603   2.594381   2.598388   0.000000
     6  Br   2.507244   2.715062   2.714884   2.715810   4.859930
                    6
     6  Br   0.000000
 Stoichiometry    CH3BrCl(1-)
 Framework group  C1[X(CH3BrCl)]
 Deg. of freedom    12
 Full point group                 C1      NOp   1
 RotChk:  IX=2 Diff= 2.24D+00
 Largest Abelian subgroup         C1      NOp   1
 Largest concise Abelian subgroup C1      NOp   1
                         Standard orientation:                         
 ---------------------------------------------------------------------
 Center     Atomic      Atomic             Coordinates (Angstroms)
 Number     Number       Type             X           Y           Z
 ---------------------------------------------------------------------
      1          6           0       -0.783504    0.002878    0.001405
      2          1           0       -0.771989    0.007926   -1.069217
      3          1           0       -0.771994   -0.926782    0.532439
      4          1           0       -0.770526    0.927760    0.540977
      5         17           0       -3.136193   -0.000776   -0.000373
      6         35           0        1.723737   -0.000371   -0.000180
 ---------------------------------------------------------------------
 Rotational constants (GHZ):         145.8032302           0.8599714           0.8599707
 Leave Link  202 at Fri Oct 18 01:11:00 2019, MaxMem=   104857600 cpu:               1.8 elap:               0.1
 (Enter /share/home/wli/program/opt/Chem_soft/g16/l301.exe)
 Standard basis: def2TZVP (5D, 7F)
 Ernie: Thresh=  0.10000D-02 Tol=  0.10000D-05 Strict=F.
 There are   151 symmetry adapted cartesian basis functions of A   symmetry.
 There are   134 symmetry adapted basis functions of A   symmetry.
   134 basis functions,   258 primitive gaussians,   151 cartesian basis functions
    31 alpha electrons       31 beta electrons
       nuclear repulsion energy       172.6640012515 Hartrees.
 IExCor=  402 DFT=T Ex+Corr=B3LYP ExCW=0 ScaHFX=  0.200000
 ScaDFX=  0.800000  0.720000  1.000000  0.810000 ScalE2=  1.000000  1.000000
 IRadAn=      5 IRanWt=     -1 IRanGd=            0 ICorTp=0 IEmpDi=141
 NAtoms=    6 NActive=    6 NUniq=    6 SFac= 1.00D+00 NAtFMM=   60 NAOKFM=F Big=F
 Integral buffers will be    131072 words long.
 Raffenetti 2 integral format.
 Two-electron integral symmetry is turned on.
 R6Disp:  Grimme-D3(BJ) Dispersion energy=       -0.0069818020 Hartrees.
 Nuclear repulsion after empirical dispersion term =      172.6570194495 Hartrees.
 Force inversion solution in PCM.
 ------------------------------------------------------------------------------
 Polarizable Continuum Model (PCM)
 =================================
 Model                : PCM.
 Atomic radii         : SMD-Coulomb.
 Polarization charges : Total charges.
 Charge compensation  : None.
 Solution method      : Matrix inversion.
 Cavity type          : VdW (van der Waals Surface) (Alpha=1.000).
 Cavity algorithm     : GePol (No added spheres)
                        Default sphere list used, NSphG=    6.
                        Lebedev-Laikov grids with approx.  5.0 points / Ang**2.
                        Smoothing algorithm: York/Karplus (Gamma=1.0000).
                        Polarization charges: spherical gaussians, with
                                              point-specific exponents (IZeta= 3).
                        Self-potential: point-specific (ISelfS= 7).
                        Self-field    : sphere-specific E.n sum rule (ISelfD= 2).
 1st derivatives      : Analytical E(r).r(x)/FMM algorithm (CHGder, D1EAlg=3).
                        Cavity 1st derivative terms included.
 2nd derivatives      : Analytical E(r).r(xy)/FMM algorithm (CHGder, D2EAlg=3).
                        Cavity 2nd derivative terms included.
 Solvent              : Dichloromethane, Eps=   8.930000 Eps(inf)=   2.028346
 ------------------------------------------------------------------------------
 Spheres list:
 ISph  on   Nord     Re0    Alpha      Xe            Ye            Ze
    1   C      1    1.8500  1.000     -0.783504      0.002878      0.001405
    2   H      2    1.2000  1.000     -0.771989      0.007926     -1.069217
    3   H      3    1.2000  1.000     -0.771994     -0.926782      0.532439
    4   H      4    1.2000  1.000     -0.770526      0.927760      0.540977
    5  Cl      5    2.3800  1.000     -3.136193     -0.000776     -0.000373
    6  Br      6    3.0600  1.000      1.723737     -0.000371     -0.000180
 ------------------------------------------------------------------------------
 GePol: Number of generator spheres                  =       6
 GePol: Total number of spheres                      =       6
 GePol: Number of exposed spheres                    =       6 (100.00%)
 GePol: Number of points                             =    1031
 GePol: Average weight of points                     =       0.17
 GePol: Minimum weight of points                     =   0.79D-06
 GePol: Maximum weight of points                     =    0.22025
 GePol: Number of points with low weight             =      22
 GePol: Fraction of low-weight points (<1% of avg)   =       2.13%
 GePol: Cavity surface area                          =    176.261 Ang**2
 GePol: Cavity volume                                =    179.558 Ang**3
 ------------------------------------------------------------------------------
 Atomic radii for non-electrostatic terms: SMD-CDS.
 ------------------------------------------------------------------------------
 PCM non-electrostatic energy =        -0.0048346763 Hartrees.
 Nuclear repulsion after PCM non-electrostatic terms =      172.6521847732 Hartrees.
 Leave Link  301 at Fri Oct 18 01:11:00 2019, MaxMem=   104857600 cpu:               3.4 elap:               0.2
 (Enter /share/home/wli/program/opt/Chem_soft/g16/l302.exe)
 NPDir=0 NMtPBC=     1 NCelOv=     1 NCel=       1 NClECP=     1 NCelD=      1
         NCelK=      1 NCelE2=     1 NClLst=     1 CellRange=     0.0.
 One-electron integrals computed using PRISM.
 One-electron integral symmetry used in STVInt
 PrsmSu:  requested number of processors reduced to:  13 ShMem   1 Linda.
   1 Symmetry operations used in ECPInt.
 ECPInt:  NShTT=    1378 NPrTT=    5593 LenC2=    1324 LenP2D=    4256.
 LDataN:  DoStor=T MaxTD1= 6 Len=  172
 NBasis=   134 RedAO= T EigKep=  1.43D-03  NBF=   134
 NBsUse=   134 1.00D-06 EigRej= -1.00D+00 NBFU=   134
 Precomputing XC quadrature grid using
 IXCGrd= 4 IRadAn=           5 IRanWt=          -1 IRanGd=           0 AccXCQ= 0.00D+00.
 Generated NRdTot=       0 NPtTot=           0 NUsed=           0 NTot=          32
 NSgBfM=   150   150   150   150   150 MxSgAt=     6 MxSgA2=     6.
 Leave Link  302 at Fri Oct 18 01:11:01 2019, MaxMem=   104857600 cpu:               6.2 elap:               0.3
 (Enter /share/home/wli/program/opt/Chem_soft/g16/l303.exe)
 DipDrv:  MaxL=1.
 Leave Link  303 at Fri Oct 18 01:11:01 2019, MaxMem=   104857600 cpu:               0.5 elap:               0.0
 (Enter /share/home/wli/program/opt/Chem_soft/g16/l401.exe)
 Initial guess from the checkpoint file:  "ts_smd_dichloromethane_maugccpvtz.chk"
 B after Tr=    -0.000000    0.000000    0.000000
         Rot=    0.610390    0.356990    0.608372   -0.360369 Ang= 104.76 deg.
 Guess basis will be translated and rotated to current coordinates.
 JPrj=2 DoOrth=T DoCkMO=T.
 Generating alternative initial guess.
 ExpMin= 9.52D-02 ExpMax= 5.65D+05 ExpMxC= 5.46D+03 IAcc=2 IRadAn=         4 AccDes= 0.00D+00
 Harris functional with IExCor=  402 and IRadAn=       4 diagonalized for initial guess.
 HarFok:  IExCor=  402 AccDes= 0.00D+00 IRadAn=         4 IDoV= 1 UseB2=F ITyADJ=14
 ICtDFT=  3500011 ScaDFX=  1.000000  1.000000  1.000000  1.000000
 FoFCou: FMM=F IPFlag=           0 FMFlag=      100000 FMFlg1=           0
         NFxFlg=           0 DoJE=T BraDBF=F KetDBF=T FulRan=T
         wScrn=  0.000000 ICntrl=       500 IOpCl=  0 I1Cent=   200000004 NGrid=           0
         NMat0=    1 NMatS0=      1 NMatT0=    0 NMatD0=    1 NMtDS0=    0 NMtDT0=    0
 Petite list used in FoFCou.
 Harris En= -3074.57999583580    
 Leave Link  401 at Fri Oct 18 01:11:02 2019, MaxMem=   104857600 cpu:              24.4 elap:               1.1
 (Enter /share/home/wli/program/opt/Chem_soft/g16/l502.exe)
 Keep R1 ints in memory in canonical form, NReq=64315121.
 FoFCou: FMM=F IPFlag=           0 FMFlag=           0 FMFlg1=           0
         NFxFlg=           0 DoJE=F BraDBF=F KetDBF=F FulRan=T
         wScrn=  0.000000 ICntrl=       600 IOpCl=  0 I1Cent=           0 NGrid=           0
         NMat0=    1 NMatS0=   9045 NMatT0=    0 NMatD0=    1 NMtDS0=    0 NMtDT0=    0
 Symmetry not used in FoFCou.
 Two-electron integral symmetry not used.
 Closed shell SCF:
 Using DIIS extrapolation, IDIIS=  1040.
 NGot=   104857600 LenX=    63896377 LenY=    63873135
 Requested convergence on RMS density matrix=1.00D-08 within 128 cycles.
 Requested convergence on MAX density matrix=1.00D-06.
 Requested convergence on             energy=1.00D-06.
 No special actions if energy rises.

 Cycle   1  Pass 1  IDiag  1:
 CoulSu:  requested number of processors reduced to:  17 ShMem   1 Linda.
 Inv3:  Mode=1 IEnd=     3188883.
 Iteration    1 A*A^-1 deviation from unit magnitude is 4.88D-15 for   1023.
 Iteration    1 A*A^-1 deviation from orthogonality  is 1.58D-15 for   1031    867.
 Iteration    1 A^-1*A deviation from unit magnitude is 4.66D-15 for   1023.
 Iteration    1 A^-1*A deviation from orthogonality  is 7.25D-12 for   1023     83.
 CoulSu:  requested number of processors reduced to:  17 ShMem   1 Linda.
 CoulSu:  requested number of processors reduced to:  17 ShMem   1 Linda.
 E= -3074.49450741986    
 DIIS: error= 3.95D-03 at cycle   1 NSaved=   1.
 NSaved= 1 IEnMin= 1 EnMin= -3074.49450741986     IErMin= 1 ErrMin= 3.95D-03
 ErrMax= 3.95D-03  0.00D+00 EMaxC= 1.00D-01 BMatC= 1.32D-03 BMatP= 1.32D-03
 IDIUse=3 WtCom= 9.60D-01 WtEn= 3.95D-02
 Coeff-Com:  0.100D+01
 Coeff-En:   0.100D+01
 Coeff:      0.100D+01
 Gap=     0.631 Goal=   None    Shift=    0.000
 GapD=    0.631 DampG=2.000 DampE=1.000 DampFc=2.0000 IDamp=-1.
 RMSDP=5.43D-04 MaxDP=1.11D-02              OVMax= 5.41D-02

 Cycle   2  Pass 1  IDiag  1:
 E= -3074.49680428354     Delta-E=       -0.002296863682 Rises=F Damp=F
 DIIS: error= 9.17D-04 at cycle   2 NSaved=   2.
 NSaved= 2 IEnMin= 2 EnMin= -3074.49680428354     IErMin= 2 ErrMin= 9.17D-04
 ErrMax= 9.17D-04  0.00D+00 EMaxC= 1.00D-01 BMatC= 1.89D-04 BMatP= 1.32D-03
 IDIUse=3 WtCom= 9.91D-01 WtEn= 9.17D-03
 Coeff-Com:  0.962D-01 0.904D+00
 Coeff-En:   0.000D+00 0.100D+01
 Coeff:      0.953D-01 0.905D+00
 Gap=     0.196 Goal=   None    Shift=    0.000
 RMSDP=3.03D-04 MaxDP=7.51D-03 DE=-2.30D-03 OVMax= 1.86D-02

 Cycle   3  Pass 1  IDiag  1:
 E= -3074.49673054269     Delta-E=        0.000073740845 Rises=F Damp=F
 DIIS: error= 1.22D-03 at cycle   3 NSaved=   3.
 NSaved= 3 IEnMin= 2 EnMin= -3074.49680428354     IErMin= 2 ErrMin= 9.17D-04
 ErrMax= 1.22D-03  0.00D+00 EMaxC= 1.00D-01 BMatC= 3.07D-04 BMatP= 1.89D-04
 IDIUse=3 WtCom= 2.22D-01 WtEn= 7.78D-01
 Coeff-Com: -0.206D-01 0.576D+00 0.444D+00
 Coeff-En:   0.000D+00 0.556D+00 0.444D+00
 Coeff:     -0.459D-02 0.560D+00 0.444D+00
 Gap=     0.197 Goal=   None    Shift=    0.000
 RMSDP=1.48D-04 MaxDP=4.03D-03 DE= 7.37D-05 OVMax= 1.29D-02

 Cycle   4  Pass 1  IDiag  1:
 E= -3074.49707726124     Delta-E=       -0.000346718545 Rises=F Damp=F
 DIIS: error= 1.27D-04 at cycle   4 NSaved=   4.
 NSaved= 4 IEnMin= 4 EnMin= -3074.49707726124     IErMin= 4 ErrMin= 1.27D-04
 ErrMax= 1.27D-04  0.00D+00 EMaxC= 1.00D-01 BMatC= 3.19D-06 BMatP= 1.89D-04
 IDIUse=3 WtCom= 9.99D-01 WtEn= 1.27D-03
 Coeff-Com: -0.127D-01 0.152D+00 0.142D+00 0.719D+00
 Coeff-En:   0.000D+00 0.000D+00 0.000D+00 0.100D+01
 Coeff:     -0.127D-01 0.152D+00 0.142D+00 0.720D+00
 Gap=     0.197 Goal=   None    Shift=    0.000
 RMSDP=1.17D-05 MaxDP=2.49D-04 DE=-3.47D-04 OVMax= 8.97D-04

 Cycle   5  Pass 1  IDiag  1:
 E= -3074.49707861794     Delta-E=       -0.000001356698 Rises=F Damp=F
 DIIS: error= 5.90D-05 at cycle   5 NSaved=   5.
 NSaved= 5 IEnMin= 5 EnMin= -3074.49707861794     IErMin= 5 ErrMin= 5.90D-05
 ErrMax= 5.90D-05  0.00D+00 EMaxC= 1.00D-01 BMatC= 5.19D-07 BMatP= 3.19D-06
 IDIUse=1 WtCom= 1.00D+00 WtEn= 0.00D+00
 Coeff-Com: -0.411D-02 0.238D-01 0.380D-01 0.287D+00 0.655D+00
 Coeff:     -0.411D-02 0.238D-01 0.380D-01 0.287D+00 0.655D+00
 Gap=     0.197 Goal=   None    Shift=    0.000
 RMSDP=6.18D-06 MaxDP=1.83D-04 DE=-1.36D-06 OVMax= 5.33D-04

 Cycle   6  Pass 1  IDiag  1:
 E= -3074.49707894163     Delta-E=       -0.000000323696 Rises=F Damp=F
 DIIS: error= 3.96D-05 at cycle   6 NSaved=   6.
 NSaved= 6 IEnMin= 6 EnMin= -3074.49707894163     IErMin= 6 ErrMin= 3.96D-05
 ErrMax= 3.96D-05  0.00D+00 EMaxC= 1.00D-01 BMatC= 1.67D-07 BMatP= 5.19D-07
 IDIUse=1 WtCom= 1.00D+00 WtEn= 0.00D+00
 Coeff-Com: -0.322D-03-0.121D-01 0.263D-02 0.477D-01 0.386D+00 0.576D+00
 Coeff:     -0.322D-03-0.121D-01 0.263D-02 0.477D-01 0.386D+00 0.576D+00
 Gap=     0.197 Goal=   None    Shift=    0.000
 RMSDP=2.74D-06 MaxDP=6.09D-05 DE=-3.24D-07 OVMax= 2.50D-04

 Cycle   7  Pass 1  IDiag  1:
 E= -3074.49707913274     Delta-E=       -0.000000191108 Rises=F Damp=F
 DIIS: error= 5.06D-06 at cycle   7 NSaved=   7.
 NSaved= 7 IEnMin= 7 EnMin= -3074.49707913274     IErMin= 7 ErrMin= 5.06D-06
 ErrMax= 5.06D-06  0.00D+00 EMaxC= 1.00D-01 BMatC= 3.73D-09 BMatP= 1.67D-07
 IDIUse=1 WtCom= 1.00D+00 WtEn= 0.00D+00
 Coeff-Com:  0.130D-03-0.667D-02-0.601D-03 0.511D-02 0.109D+00 0.233D+00
 Coeff-Com:  0.660D+00
 Coeff:      0.130D-03-0.667D-02-0.601D-03 0.511D-02 0.109D+00 0.233D+00
 Coeff:      0.660D+00
 Gap=     0.197 Goal=   None    Shift=    0.000
 RMSDP=4.32D-07 MaxDP=1.05D-05 DE=-1.91D-07 OVMax= 2.83D-05

 Cycle   8  Pass 1  IDiag  1:
 E= -3074.49707913651     Delta-E=       -0.000000003773 Rises=F Damp=F
 DIIS: error= 7.64D-07 at cycle   8 NSaved=   8.
 NSaved= 8 IEnMin= 8 EnMin= -3074.49707913651     IErMin= 8 ErrMin= 7.64D-07
 ErrMax= 7.64D-07  0.00D+00 EMaxC= 1.00D-01 BMatC= 7.90D-11 BMatP= 3.73D-09
 IDIUse=1 WtCom= 1.00D+00 WtEn= 0.00D+00
 Coeff-Com:  0.455D-04-0.143D-02-0.121D-03 0.867D-03 0.129D-01 0.385D-01
 Coeff-Com:  0.182D+00 0.767D+00
 Coeff:      0.455D-04-0.143D-02-0.121D-03 0.867D-03 0.129D-01 0.385D-01
 Coeff:      0.182D+00 0.767D+00
 Gap=     0.197 Goal=   None    Shift=    0.000
 RMSDP=8.70D-08 MaxDP=2.85D-06 DE=-3.77D-09 OVMax= 2.72D-06

 Cycle   9  Pass 1  IDiag  1:
 E= -3074.49707913657     Delta-E=       -0.000000000053 Rises=F Damp=F
 DIIS: error= 1.67D-07 at cycle   9 NSaved=   9.
 NSaved= 9 IEnMin= 9 EnMin= -3074.49707913657     IErMin= 9 ErrMin= 1.67D-07
 ErrMax= 1.67D-07  0.00D+00 EMaxC= 1.00D-01 BMatC= 5.98D-12 BMatP= 7.90D-11
 IDIUse=1 WtCom= 1.00D+00 WtEn= 0.00D+00
 Coeff-Com:  0.439D-05-0.231D-04 0.407D-04-0.397D-04-0.226D-02-0.422D-02
 Coeff-Com:  0.872D-03 0.239D+00 0.767D+00
 Coeff:      0.439D-05-0.231D-04 0.407D-04-0.397D-04-0.226D-02-0.422D-02
 Coeff:      0.872D-03 0.239D+00 0.767D+00
 Gap=     0.197 Goal=   None    Shift=    0.000
 RMSDP=2.80D-08 MaxDP=1.03D-06 DE=-5.32D-11 OVMax= 1.05D-06

 Cycle  10  Pass 1  IDiag  1:
 E= -3074.49707913659     Delta-E=       -0.000000000018 Rises=F Damp=F
 DIIS: error= 4.86D-08 at cycle  10 NSaved=  10.
 NSaved=10 IEnMin=10 EnMin= -3074.49707913659     IErMin=10 ErrMin= 4.86D-08
 ErrMax= 4.86D-08  0.00D+00 EMaxC= 1.00D-01 BMatC= 1.71D-13 BMatP= 5.98D-12
 IDIUse=1 WtCom= 1.00D+00 WtEn= 0.00D+00
 Coeff-Com:  0.127D-05 0.259D-04 0.145D-04-0.587D-04-0.133D-02-0.291D-02
 Coeff-Com: -0.425D-02 0.833D-01 0.306D+00 0.619D+00
 Coeff:      0.127D-05 0.259D-04 0.145D-04-0.587D-04-0.133D-02-0.291D-02
 Coeff:     -0.425D-02 0.833D-01 0.306D+00 0.619D+00
 Gap=     0.197 Goal=   None    Shift=    0.000
 RMSDP=2.00D-09 MaxDP=4.06D-08 DE=-1.82D-11 OVMax= 1.17D-07

 CoulSu:  requested number of processors reduced to:  17 ShMem   1 Linda.
 CoulSu:  requested number of processors reduced to:  16 ShMem   1 Linda.
 Error on total polarization charges =  0.00590
 SCF Done:  E(RB3LYP) =  -3074.49707914     A.U. after   10 cycles
            NFock= 10  Conv=0.20D-08     -V/T= 2.0015
 KE= 3.069811433457D+03 PE=-7.698455270920D+03 EE= 1.381494573553D+03
 SMD-CDS (non-electrostatic) energy       (kcal/mol) =      -3.03
 (included in total energy above)
 Leave Link  502 at Fri Oct 18 01:11:08 2019, MaxMem=   104857600 cpu:             132.2 elap:               6.3
 (Enter /share/home/wli/program/opt/Chem_soft/g16/l801.exe)
 DoSCS=F DFT=T ScalE2(SS,OS)=  1.000000  1.000000
 Range of M.O.s used for correlation:     1   134
 NBasis=   134 NAE=    31 NBE=    31 NFC=     0 NFV=     0
 NROrb=    134 NOA=    31 NOB=    31 NVA=   103 NVB=   103
 Leave Link  801 at Fri Oct 18 01:11:08 2019, MaxMem=   104857600 cpu:               1.1 elap:               0.1
 (Enter /share/home/wli/program/opt/Chem_soft/g16/l1101.exe)
 Using compressed storage, NAtomX=     6.
 Will process      7 centers per pass.
 PrsmSu:  requested number of processors reduced to:  11 ShMem   1 Linda.
   1 Symmetry operations used in ECPInt.
 ECPInt:  NShTT=    1378 NPrTT=    5593 LenC2=    1324 LenP2D=    4256.
 LDataN:  DoStor=T MaxTD1= 7 Len=  274
 Number of processors reduced to  18 by ecpmxn.
 R6Disp: Adding Grimme-D3(BJ) dispersion energy 1st derivatives to the gradient.
 Leave Link 1101 at Fri Oct 18 01:11:08 2019, MaxMem=   104857600 cpu:               8.4 elap:               0.4
 (Enter /share/home/wli/program/opt/Chem_soft/g16/l1102.exe)
 Symmetrizing basis deriv contribution to polar:
 IMax=3 JMax=2 DiffMx= 0.00D+00
 Leave Link 1102 at Fri Oct 18 01:11:09 2019, MaxMem=   104857600 cpu:               2.1 elap:               0.1
 (Enter /share/home/wli/program/opt/Chem_soft/g16/l1110.exe)
 Forming Gx(P) for the SCF density, NAtomX=     6.
 Integral derivatives from FoFJK, PRISM(SPDF).
 Do as many integral derivatives as possible in FoFJK.
 G2DrvN: MDV=     104857020.
 G2DrvN: will do     7 centers at a time, making    1 passes.
 Calling FoFCou, ICntrl=  3107 FMM=F I1Cent=   0 AccDes= 0.00D+00.
 FoFJK:  IHMeth= 1 ICntrl=    3107 DoSepK=F KAlg= 0 I1Cent=           0 FoldK=F
 IRaf=         0 NMat=       1 IRICut=       1 DoRegI=T DoRafI=F ISym2E= 0 IDoP0=0 IntGTp=1.
 FoFCou: FMM=F IPFlag=           0 FMFlag=      100000 FMFlg1=           0
         NFxFlg=           0 DoJE=F BraDBF=F KetDBF=F FulRan=T
         wScrn=  0.000000 ICntrl=      3107 IOpCl=  0 I1Cent=           0 NGrid=           0
         NMat0=    1 NMatS0=      1 NMatT0=    0 NMatD0=    1 NMtDS0=    0 NMtDT0=    0
 Symmetry not used in FoFCou.
 NEqPCM:  Using equilibrium solvation (IEInf=0, Eps=   8.9300, EpsInf=   2.0283)
 G2PCM: DoFxE=T DoFxN=T DoGrad=T DoDP/DQ/DG/TGxP=FFFF NFrqRd=   0 IEInf=0 SqF1=F DoCFld=F IF1Alg=4.
 GePol: Maximum number of non-zero 1st derivatives   =     569
 CoulSu:  requested number of processors reduced to:  13 ShMem   1 Linda.
 CoulSu:  requested number of processors reduced to:  13 ShMem   1 Linda.
 CoulSu:  requested number of processors reduced to:  13 ShMem   1 Linda.
 CoulSu:  requested number of processors reduced to:  17 ShMem   1 Linda.
 CoulSu:  requested number of processors reduced to:  23 ShMem   1 Linda.
 CoulSu:  requested number of processors reduced to:  13 ShMem   1 Linda.
 CoulSu:  requested number of processors reduced to:  13 ShMem   1 Linda.
 CoulSu:  requested number of processors reduced to:  13 ShMem   1 Linda.
 CoulSu:  requested number of processors reduced to:  13 ShMem   1 Linda.
 End of G2Drv F.D. properties file   721 does not exist.
 End of G2Drv F.D. properties file   722 does not exist.
 End of G2Drv F.D. properties file   788 does not exist.
 Leave Link 1110 at Fri Oct 18 01:11:14 2019, MaxMem=   104857600 cpu:             128.4 elap:               5.6
 (Enter /share/home/wli/program/opt/Chem_soft/g16/l1002.exe)
 Minotr:  Closed shell wavefunction.
          IDoAtm=111111
 NEqPCM:  Using equilibrium solvation (IEInf=0, Eps=   8.9300, EpsInf=   2.0283)
          Direct CPHF calculation.
          Differentiating once with respect to electric field.
                with respect to dipole field.
          Differentiating once with respect to nuclear coordinates.
          Requested convergence is 1.0D-08 RMS, and 1.0D-07 maximum.
          Secondary convergence is 1.0D-12 RMS, and 1.0D-12 maximum.
          NewPWx=T KeepS1=F KeepF1=F KeepIn=T MapXYZ=F SortEE=F KeepMc=T.
         1761 words used for storage of precomputed grid.
 Keep R1 ints in memory in canonical form, NReq=64236638.
 FoFCou: FMM=F IPFlag=           0 FMFlag=           0 FMFlg1=           0
         NFxFlg=           0 DoJE=F BraDBF=F KetDBF=F FulRan=T
         wScrn=  0.000000 ICntrl=       600 IOpCl=  0 I1Cent=           0 NGrid=           0
         NMat0=    1 NMatS0=   9045 NMatT0=    0 NMatD0=    1 NMtDS0=    0 NMtDT0=    0
 Symmetry not used in FoFCou.
 Two-electron integral symmetry not used.
          MDV=     104857600 using IRadAn=       1.
          Solving linear equations simultaneously, MaxMat=       0.
 CoulSu:  requested number of processors reduced to:  13 ShMem   1 Linda.
[...]
     15 -0.399745D-04 -0.376432D-05 -0.126080D-01 -0.348263D-02  0.114657D-02
     16  0.376035D-01 -0.544296D-04  0.507560D-04 -0.139732D-01 -0.211052D-02
     17 -0.510665D-04 -0.106421D-01  0.135768D-03  0.554369D-02  0.193327D-02
     18 -0.275326D-04  0.660377D-04 -0.104189D-01  0.304788D-02  0.978873D-03
                6             7             8             9            10 
      6  0.122465D+00
      7  0.110650D-03  0.337490D-01
      8  0.138776D-01 -0.314119D-02  0.294752D+00
      9  0.104424D-01  0.195283D-02 -0.153419D+00  0.138569D+00
     10 -0.358639D-03  0.268712D-02  0.827320D-04 -0.375635D-03  0.338671D-01
     11 -0.231078D-01 -0.252167D-03  0.546077D-02  0.224965D-01 -0.271055D-03
     12 -0.554052D-02  0.272268D-03 -0.404884D-02 -0.658285D-02 -0.419028D-02
     13  0.136542D-02 -0.155688D-01 -0.233361D-02  0.153645D-02 -0.157376D-01
     14  0.112726D-02  0.634944D-02  0.240532D-02 -0.137196D-02  0.313531D-03
     15  0.830861D-03 -0.384003D-02 -0.138577D-02  0.100442D-02  0.743990D-02
     16 -0.106164D-02 -0.140333D-01  0.187200D-02 -0.114254D-02 -0.140362D-01
     17  0.943129D-03 -0.553499D-02  0.187679D-02 -0.116271D-02 -0.141732D-03
     18  0.648507D-03  0.346657D-02 -0.115509D-02  0.676113D-03 -0.636891D-02
               11            12            13            14            15 
     11  0.447013D-01
     12  0.919512D-02  0.388991D+00
     13  0.450672D-04 -0.268215D-02  0.278761D-01
     14  0.100164D-03  0.162697D-03 -0.375989D-03  0.608967D-02
     15  0.100915D-03  0.312995D-02 -0.755852D-04  0.140186D-03  0.621556D-02
     16  0.105985D-03  0.227556D-02 -0.246909D-01 -0.755789D-05 -0.167694D-05
     17  0.192649D-04  0.118208D-03 -0.104340D-04  0.142592D-02  0.187022D-05
     18  0.144539D-03  0.220126D-02  0.243204D-05  0.190187D-05  0.142724D-02
               16            17            18 
     16  0.291301D-01
     17  0.194526D-03  0.538684D-02
     18 -0.120454D-03 -0.362612D-04  0.546580D-02
 FormGI is forming the generalized inverse of G from B-inverse, IUseBI=4.
 Force constants in internal coordinates: 
                1             2             3             4             5 
      1  0.388938D+00
      2 -0.216697D-03  0.388846D+00
      3 -0.202053D-03 -0.207036D-03  0.389279D+00
      4 -0.267099D-02 -0.258066D-02 -0.245591D-02  0.278762D-01
      5 -0.255518D-02 -0.238245D-02 -0.247707D-02  0.246909D-01  0.291301D-01
      6  0.157254D-02  0.164352D-02 -0.320352D-02 -0.119351D-03  0.105436D-03
      7  0.165251D-02 -0.319735D-02  0.158138D-02 -0.287752D-03  0.286454D-03
      8 -0.432555D-02  0.200602D-02  0.188170D-02  0.504258D-02 -0.472168D-02
      9 -0.302012D-02  0.180499D-02  0.175736D-02 -0.554045D-02  0.458873D-02
     10 -0.320279D-02  0.157718D-02  0.164589D-02 -0.357993D-03  0.288535D-03
     11  0.202649D-02 -0.449178D-02  0.172491D-02  0.545321D-02 -0.463611D-02
     12  0.179143D-02 -0.311677D-02  0.160060D-02 -0.505536D-02  0.493348D-02
     13  0.183717D-02  0.200124D-02 -0.410375D-02  0.542814D-02 -0.480382D-02
     14  0.169377D-02  0.179642D-02 -0.286411D-02 -0.532791D-02  0.463937D-02
     15 -0.734568D-02  0.381101D-02  0.363906D-02 -0.497863D-03 -0.132948D-03
     16 -0.164521D-03  0.658674D-02 -0.594532D-02 -0.171749D-03 -0.266730D-03
     17 -0.577963D-03 -0.606102D-03 -0.481078D-03  0.183676D-01 -0.163349D-01
     18  0.152033D-02  0.158467D-02 -0.312013D-02  0.126838D-03 -0.113980D-03
     19 -0.160165D-02 -0.167631D-02  0.328489D-02 -0.133516D-03  0.121945D-03
     20 -0.159070D-02  0.310007D-02 -0.152859D-02  0.304069D-04 -0.522950D-04
     21  0.168547D-02 -0.328640D-02  0.160900D-02 -0.229440D-04  0.616268D-04
     22 -0.311103D-02  0.151541D-02  0.159154D-02 -0.964306D-04  0.616849D-04
     23  0.328713D-02 -0.161009D-02 -0.167589D-02  0.110573D-03 -0.603183D-04
                6             7             8             9            10 
      6  0.672998D-02
      7 -0.335321D-02  0.673700D-02
      8 -0.217101D-03 -0.289477D-03  0.295746D-01
      9  0.192542D-03  0.380985D-03 -0.164749D-01  0.280587D-01
     10 -0.337644D-02 -0.336889D-02  0.295864D-03 -0.358389D-03  0.676099D-02
     11 -0.154783D-03  0.247456D-03 -0.124808D-01  0.608510D-02 -0.306735D-03
     12  0.283996D-03 -0.382756D-03  0.605384D-02 -0.117905D-01  0.313734D-03
     13  0.368852D-03 -0.271760D-03 -0.127180D-01  0.591733D-02 -0.315434D-03
     14 -0.470665D-03  0.314053D-03  0.604074D-02 -0.117998D-01  0.369613D-03
     15 -0.245593D-04  0.915079D-04  0.130997D-01  0.115837D-01 -0.625248D-04
     16 -0.131810D-03  0.101778D-03 -0.145881D-03 -0.103703D-03  0.264166D-04
     17 -0.194840D-03 -0.264441D-03  0.506370D-02 -0.516920D-02 -0.282405D-03
     18  0.672374D-02 -0.335533D-02  0.176254D-03 -0.470546D-04 -0.337804D-02
     19 -0.672115D-02  0.335431D-02 -0.277688D-04  0.188972D-03  0.337677D-02
     20  0.335095D-02 -0.672591D-02 -0.133696D-03 -0.116865D-03  0.337061D-02
     21 -0.334775D-02  0.672272D-02 -0.353323D-04 -0.150423D-04 -0.337050D-02
     22 -0.337279D-02 -0.337058D-02 -0.309950D-03 -0.698102D-04  0.674864D-02
     23  0.337339D-02  0.336841D-02 -0.756354D-05 -0.204014D-03 -0.674727D-02
               11            12            13            14            15 
     11  0.293256D-01
     12 -0.166057D-01  0.282669D-01
     13 -0.123875D-01  0.607672D-02  0.296576D-01
     14  0.606436D-02 -0.120004D-01 -0.165425D-01  0.282407D-01
     15 -0.639566D-02 -0.573666D-02 -0.680071D-02 -0.575905D-02  0.246834D-01
     16 -0.109961D-01 -0.101541D-01  0.112186D-01  0.101840D-01 -0.249584D-03
     17  0.514235D-02 -0.516782D-02  0.523055D-02 -0.509952D-02 -0.105500D-03
     18  0.247648D-03  0.326010D-04 -0.219757D-03 -0.186931D-03  0.129200D-03
     19 -0.100258D-03  0.116186D-03 -0.825834D-04 -0.974665D-04  0.161203D-03
     20  0.364129D-03  0.845487D-04 -0.136082D-03 -0.605095D-04 -0.250561D-03
     21 -0.485968D-04  0.197010D-03 -0.127913D-04 -0.867244D-04 -0.503746D-04
     22  0.116481D-03  0.519477D-04  0.836745D-04  0.126421D-03 -0.379760D-03
     23  0.516612D-04  0.808241D-04  0.697921D-04  0.107421D-04 -0.211578D-03
               16            17            18            19            20 
     16  0.245731D-01
     17  0.904328D-04  0.178078D-01
     18 -0.395100D-03  0.444658D-04  0.673616D-02
     19 -0.114791D-03 -0.519021D-04 -0.672663D-02  0.673098D-02
     20 -0.371834D-03  0.113818D-04  0.335767D-02 -0.335296D-02  0.673525D-02
     21 -0.143931D-03 -0.142396D-04 -0.335095D-02  0.335341D-02 -0.672425D-02
     22  0.232662D-04 -0.330841D-04 -0.337849D-02  0.337367D-02  0.337758D-02
     23 -0.291391D-04  0.376626D-04  0.337567D-02 -0.337757D-02 -0.337129D-02
               21            22            23 
     21  0.672787D-02
     22 -0.337329D-02  0.675607D-02
     23  0.337446D-02 -0.674696D-02  0.675202D-02
 Leave Link  716 at Fri Oct 18 01:25:07 2019, MaxMem=   104857600 cpu:               7.2 elap:               0.3
 (Enter /share/home/wli/program/opt/Chem_soft/g16/l103.exe)

 GradGradGradGradGradGradGradGradGradGradGradGradGradGradGradGradGradGrad
 Berny optimization.
 Red2BG is reusing G-inverse.
 Internal  Forces:  Max     0.000040296 RMS     0.000018545
 Search for a saddle point.
 Step number   1 out of a maximum of    2
 All quantities printed in internal units (Hartrees-Bohrs-Radians)
 Swapping is turned off.
 Second derivative matrix not updated -- analytic derivatives used.
 ITU=  0
     Eigenvalues ---   -0.01694   0.03000   0.03015   0.04215   0.04302
     Eigenvalues ---    0.04729   0.05336   0.06367   0.06384   0.38870
     Eigenvalues ---    0.38973   0.38995
 Eigenvectors required to have negative eigenvalues:
                          R4        R5        D1        A4        A8
   1                   -0.59724   0.56677   0.46312  -0.13482   0.13462
                          A6        A9        A7        A3        A5
   1                    0.13450  -0.13357  -0.13307   0.13233  -0.00750
 Angle between quadratic step and forces=  22.89 degrees.
 Linear search not attempted -- option 19 set.
 Iteration  1 RMS(Cart)=  0.00060201 RMS(Int)=  0.00000018
 Iteration  2 RMS(Cart)=  0.00000014 RMS(Int)=  0.00000010
 ITry= 1 IFail=0 DXMaxC= 1.42D-03 DCOld= 1.00D+10 DXMaxT= 3.00D-01 DXLimC= 3.00D+00 Rises=F
 Variable       Old X    -DE/DX   Delta X   Delta X   Delta X     New X
                                 (Linear)    (Quad)   (Total)
    R1        2.02396  -0.00002   0.00000   0.00001   0.00001   2.02397
    R2        2.02396   0.00000   0.00000  -0.00000  -0.00000   2.02396
    R3        2.02397   0.00002   0.00000  -0.00001  -0.00001   2.02397
    R4        4.42936  -0.00000   0.00000   0.00001   0.00001   4.42938
    R5        4.74404   0.00000   0.00000   0.00000   0.00000   4.74405
    A1        2.09439  -0.00002   0.00000  -0.00070  -0.00070   2.09369
    A2        2.09414  -0.00000   0.00000  -0.00002  -0.00002   2.09412
    A3        1.58464   0.00004   0.00000   0.00072   0.00072   1.58536
    A4        1.55672  -0.00001   0.00000   0.00003   0.00003   1.55675
    A5        2.09366   0.00002   0.00000   0.00072   0.00072   2.09438
    A6        1.58402  -0.00000   0.00000  -0.00005  -0.00005   1.58398
    A7        1.55731  -0.00000   0.00000  -0.00004  -0.00004   1.55727
    A8        1.58535  -0.00004   0.00000  -0.00070  -0.00070   1.58465
    A9        1.55673   0.00001   0.00000   0.00004   0.00004   1.55677
   A10        3.14136   0.00003   0.00000   0.00075   0.00075   3.14211
   A11        3.14202  -0.00001   0.00000  -0.00033  -0.00033   3.14169
    D1       -3.09355  -0.00000   0.00000  -0.00001  -0.00001  -3.09356
    D2        2.09470  -0.00002   0.00000  -0.00068  -0.00068   2.09402
    D3       -2.09471   0.00002   0.00000   0.00070   0.00070  -2.09401
    D4       -2.09449   0.00000   0.00000   0.00002   0.00002  -2.09447
    D5        2.09448  -0.00000   0.00000  -0.00002  -0.00002   2.09446
    D6        2.09399   0.00002   0.00000   0.00071   0.00071   2.09470
    D7       -2.09399  -0.00002   0.00000  -0.00072  -0.00072  -2.09471
         Item               Value     Threshold  Converged?
 Maximum Force            0.000040     0.000450     YES
 RMS     Force            0.000019     0.000300     YES
 Maximum Displacement     0.001418     0.001800     YES
 RMS     Displacement     0.000602     0.001200     YES
 Predicted change in Energy=-8.876393D-08
 Optimization completed.
    -- Stationary point found.
                           ----------------------------
                           !   Optimized Parameters   !
                           ! (Angstroms and Degrees)  !
 --------------------------                            --------------------------
 ! Name  Definition              Value          Derivative Info.                !
 --------------------------------------------------------------------------------
 ! R1    R(1,2)                  1.071          -DE/DX =    0.0                 !
 ! R2    R(1,3)                  1.071          -DE/DX =    0.0                 !
 ! R3    R(1,4)                  1.071          -DE/DX =    0.0                 !
 ! R4    R(1,5)                  2.3439         -DE/DX =    0.0                 !
 ! R5    R(1,6)                  2.5104         -DE/DX =    0.0                 !
 ! A1    A(2,1,3)              119.9994         -DE/DX =    0.0                 !
 ! A2    A(2,1,4)              119.9853         -DE/DX =    0.0                 !
 ! A3    A(2,1,5)               90.7931         -DE/DX =    0.0                 !
 ! A4    A(2,1,6)               89.1934         -DE/DX =    0.0                 !
 ! A5    A(3,1,4)              119.9579         -DE/DX =    0.0                 !
 ! A6    A(3,1,5)               90.7579         -DE/DX =    0.0                 !
 ! A7    A(3,1,6)               89.2276         -DE/DX =    0.0                 !
 ! A8    A(4,1,5)               90.8339         -DE/DX =    0.0                 !
 ! A9    A(4,1,6)               89.1941         -DE/DX =    0.0                 !
 ! A10   L(5,1,6,2,-1)         179.9866         -DE/DX =    0.0                 !
 ! A11   L(5,1,6,2,-2)         180.0246         -DE/DX =    0.0                 !
 ! D1    D(2,1,4,3)           -177.2473         -DE/DX =    0.0                 !
 ! D2    D(2,1,5,3)            120.0176         -DE/DX =    0.0                 !
 ! D3    D(2,1,6,3)           -120.0183         -DE/DX =    0.0                 !
 ! D4    D(2,1,5,4)           -120.0053         -DE/DX =    0.0                 !
 ! D5    D(2,1,6,4)            120.005          -DE/DX =    0.0                 !
 ! D6    D(3,1,5,4)            119.9771         -DE/DX =    0.0                 !
 ! D7    D(3,1,6,4)           -119.9767         -DE/DX =    0.0                 !
 --------------------------------------------------------------------------------
 GradGradGradGradGradGradGradGradGradGradGradGradGradGradGradGradGradGrad

 Leave Link  103 at Fri Oct 18 01:25:07 2019, MaxMem=   104857600 cpu:              12.4 elap:               0.6
 (Enter /share/home/wli/program/opt/Chem_soft/g16/l9999.exe)

 ----------------------------------------------------------------------

 Electric dipole moment (input orientation):
 (Debye = 10**-18 statcoulomb cm , SI units = C m)
                  (au)            (Debye)         (10**-30 SI)
   Tot        0.129714D+01      0.329699D+01      0.109976D+02
   x         -0.129714D+01     -0.329699D+01     -0.109976D+02
   y         -0.119046D-03     -0.302584D-03     -0.100931D-02
   z          0.609636D-03      0.154954D-02      0.516871D-02

 Dipole polarizability, Alpha (input orientation).
 (esu units = cm**3 , SI units = C**2 m**2 J**-1)
 Alpha(0;0):
               (au)            (10**-24 esu)      (10**-40 SI)
   iso        0.859471D+02      0.127360D+02      0.141708D+02
   aniso      0.119379D+03      0.176902D+02      0.196830D+02
   xx         0.165533D+03      0.245295D+02      0.272928D+02
   yx         0.141764D-02      0.210073D-03      0.233738D-03
   yy         0.461594D+02      0.684011D+01      0.761065D+01
   zx        -0.808625D-02     -0.119826D-02     -0.133324D-02
   zy         0.165738D-02      0.245598D-03      0.273265D-03
   zz         0.461485D+02      0.683850D+01      0.760886D+01

 ----------------------------------------------------------------------

 Dipole orientation:
     6          0.00129646         -0.00019961         -1.45591549
     1         -0.96265924         -1.77964405         -1.42797077
     1         -1.05725894          1.72467446         -1.42941504
     1          2.02429735          0.05490702         -1.42611834
    17          0.00205156         -0.00043088         -5.88527858
    35         -0.00183241          0.00004000          3.28812605

 Electric dipole moment (dipole orientation):
 (Debye = 10**-18 statcoulomb cm , SI units = C m)
                  (au)            (Debye)         (10**-30 SI)
   Tot        0.129714D+01      0.329699D+01      0.109976D+02
   x          0.000000D+00      0.000000D+00      0.000000D+00
   y          0.000000D+00      0.000000D+00      0.000000D+00
   z          0.129714D+01      0.329699D+01      0.109976D+02

 Dipole polarizability, Alpha (dipole orientation).
 (esu units = cm**3 , SI units = C**2 m**2 J**-1)
 Alpha(0;0):
               (au)            (10**-24 esu)      (10**-40 SI)
   iso        0.859471D+02      0.127360D+02      0.141708D+02
   aniso      0.119379D+03      0.176902D+02      0.196830D+02
   xx         0.461485D+02      0.683851D+01      0.760887D+01
   yx         0.165264D-02      0.244896D-03      0.272484D-03
   yy         0.461594D+02      0.684012D+01      0.761065D+01
   zx        -0.480240D-01     -0.711642D-02     -0.791808D-02
   zy         0.953437D-02      0.141285D-02      0.157200D-02
   zz         0.165533D+03      0.245295D+02      0.272928D+02

 ----------------------------------------------------------------------
 1\1\GINC-C01N05\Freq\RB3LYP\def2TZVP\C1H3Br1Cl1(1-)\ROOT\18-Oct-2019\0
 \\#P Geom=AllCheck Guess=TCheck SCRF=Check GenChk RB3LYP/def2TZVP Freq
 \\Title Card Required\\-1,1\C,0.7704375406,-0.0000349859,0.0003239535\
 H,0.7554964683,-0.9416309875,-0.5098588457\H,0.7560671043,0.9127791565
 ,-0.5597490161\H,0.7551700389,0.0290265371,1.0708598868\Cl,3.114355479
 ,0.0000577132,-0.0003780879\Br,-1.7400016312,-0.0001384334,-0.00015189
 05\\Version=ES64L-G16RevA.03\State=1-A\HF=-3074.4970557\RMSD=5.458e-09
 \RMSF=2.626e-05\ZeroPoint=0.03668\Thermal=0.0414993\Dipole=-1.2971375,
 -0.000119,0.0006096\DipoleDeriv=4.1058142,0.0001529,-0.0004596,0.00019
 33,0.0350258,0.0014635,0.0000929,0.000369,0.0338507,-0.213584,-0.00462
 04,-0.0026832,-0.0048217,0.0852208,-0.0010892,-0.0025622,-0.000818,0.0
 839202,-0.2141023,0.0048345,-0.0034278,0.0047969,0.0831769,-0.0004114,
 -0.0024309,-0.0007607,0.0851985,-0.2138689,0.0009653,0.0044402,0.00010
 11,0.0849652,-0.0000944,0.005104,0.0001346,0.0844417,-2.3998624,-0.001
 1944,0.0011706,-0.0006211,-0.6438947,-0.0000484,0.00019,0.0005541,-0.6
 423419,-2.0643966,-0.0001379,0.0009598,0.0003514,-0.6444941,0.00018,-0
 .0003937,0.0005211,-0.6450692\Polar=165.533366,0.0014176,46.1593833,-0
 .0080863,0.0016574,46.1485161\Quadrupole=-20.5578237,10.2791499,10.278
 6738,-0.0005841,0.0012397,0.0004787\PG=C01 [X(C1H3Br1Cl1)]\NImag=1\\-0
 .05307622,0.00011728,0.67888165,-0.00001687,0.00003593,0.67818100,-0.0
 0941900,-0.00325804,-0.00177859,0.03377714,-0.00347613,-0.30793742,-0.
 13741382,0.00351145,0.31049902,-0.00191340,-0.13736629,-0.12884635,0.0
 0185760,0.14452614,0.12246506,-0.00950877,0.00293956,-0.00196229,0.002
 67479,-0.00036066,0.00011065,0.03374899,0.00315696,-0.29294643,0.14613
 142,0.00036311,-0.01154801,0.01387760,-0.00314119,0.29475155,-0.002062
 47,0.14614027,-0.14410926,0.00009137,-0.01268276,0.01044245,0.00195283
 ,-0.15341931,0.13856913,-0.00946600,0.00012637,0.00385357,0.00268557,-
 0.00010985,-0.00035864,0.00268712,0.00008273,-0.00037564,0.03386713,0.
 00009239,-0.05468913,-0.00882921,0.00027978,0.00440763,-0.02310784,-0.
 00025217,0.00546077,0.02249648,-0.00027105,0.04470130,0.00406025,-0.00
 887218,-0.38219844,0.00026436,0.00344500,-0.00554052,0.00027227,-0.004
 04884,-0.00658285,-0.00419028,0.00919512,0.38899060,0.04386649,0.00012
 925,-0.00014657,-0.01574528,0.00254571,0.00136542,-0.01556884,-0.00233
 361,0.00153645,-0.01573762,0.00004507,-0.00268215,0.02787614,0.0001605
 7,-0.01266659,-0.00006009,-0.00643999,0.00264551,0.00112726,0.00634944
 ,0.00240532,-0.00137196,0.00031353,0.00010016,0.00016270,-0.00037599,0
 .00608967,-0.00003997,-0.00000376,-0.01260802,-0.00348263,0.00114657,0
 .00083086,-0.00384003,-0.00138577,0.00100442,0.00743990,0.00010092,0.0
 0312995,-0.00007559,0.00014019,0.00621556,0.03760350,-0.00005443,0.000
 05076,-0.01397322,-0.00211052,-0.00106164,-0.01403329,0.00187200,-0.00
 114254,-0.01403619,0.00010598,0.00227556,-0.02469089,-0.00000756,-0.00
 000168,0.02913010,-0.00005107,-0.01064209,0.00013577,0.00554369,0.0019
 3327,0.00094313,-0.00553499,0.00187679,-0.00116271,-0.00014173,0.00001
 926,0.00011821,-0.00001043,0.00142592,0.00000187,0.00019453,0.00538684
 ,-0.00002753,0.00006604,-0.01041893,0.00304788,0.00097887,0.00064851,0
 .00346657,-0.00115509,0.00067611,-0.00636891,0.00014454,0.00220126,0.0
 0000243,0.00000190,0.00142724,-0.00012045,-0.00003626,0.00546580\\-0.0
 0000016,-0.00002036,-0.00003322,0.00001782,-0.00001700,-0.00000103,0.0
 0000867,0.00004443,0.00007432,-0.00002869,0.00000951,-0.00001723,0.000
 00115,-0.00003175,-0.00001010,0.00000119,0.00001517,-0.00001274\\\@


 NOTHING PUZZLES ME MORE THAN TIME AND SPACE; AND YET NOTHING TROUBLES ME LESS
                                                          -- CHARLES LAMB (1810)
 Job cpu time:       0 days  0 hours 10 minutes 43.4 seconds.
 Elapsed time:       0 days  0 hours  0 minutes 30.9 seconds.
 File lengths (MBytes):  RWF=    288 Int=      0 D2E=      0 Chk=     32 Scr=     32
 Normal termination of Gaussian 16 at Fri Oct 18 01:25:07 2019.
