 Entering Gaussian System, Link 0=g16
 Input=ts_def2tzvp_scrf_pcm_benzene.gjf
 Output=ts_def2tzvp_scrf_pcm_benzene.log
 Initial command:
 /share/home/wli/program/opt/Chem_soft/g16/l1.exe "/scratch/wli/Gau-27220.inp" -scrdir="/scratch/wli/"
 Entering Link 1 = /share/home/wli/program/opt/Chem_soft/g16/l1.exe PID=     27221.
  
 Copyright (c) 1988,1990,1992,1993,1995,1998,2003,2009,2016,
            Gaussian, Inc.  All Rights Reserved.
  
 This is part of the Gaussian(R) 16 program.  It is based on
 the Gaussian(R) 09 system (copyright 2009, Gaussian, Inc.),
 the Gaussian(R) 03 system (copyright 2003, Gaussian, Inc.),
 the Gaussian(R) 98 system (copyright 1998, Gaussian, Inc.),
 the Gaussian(R) 94 system (copyright 1995, Gaussian, Inc.),
 the Gaussian 92(TM) system (copyright 1992, Gaussian, Inc.),
 the Gaussian 90(TM) system (copyright 1990, Gaussian, Inc.),
 the Gaussian 88(TM) system (copyright 1988, Gaussian, Inc.),
 the Gaussian 86(TM) system (copyright 1986, Carnegie Mellon
 University), and the Gaussian 82(TM) system (copyright 1983,
 Carnegie Mellon University). Gaussian is a federally registered
 trademark of Gaussian, Inc.
  
 This software contains proprietary and confidential information,
 including trade secrets, belonging to Gaussian, Inc.
  
 This software is provided under written license and may be
 used, copied, transmitted, or stored only in accord with that
 written license.
  
 The following legend is applicable only to US Government
 contracts under FAR:
  
                    RESTRICTED RIGHTS LEGEND
  
 Use, reproduction and disclosure by the US Government is
 subject to restrictions as set forth in subparagraphs (a)
 and (c) of the Commercial Computer Software - Restricted
 Rights clause in FAR 52.227-19.
  
 Gaussian, Inc.
 340 Quinnipiac St., Bldg. 40, Wallingford CT 06492
  
  
 ---------------------------------------------------------------
 Warning -- This program may not be used in any manner that
 competes with the business of Gaussian, Inc. or will provide
 assistance to any competitor of Gaussian, Inc.  The licensee
 of this program is prohibited from giving any competitor of
 Gaussian, Inc. access to this program.  By using this program,
 the user acknowledges that Gaussian, Inc. is engaged in the
 business of creating and licensing software in the field of
 computational chemistry and represents and warrants to the
 licensee that it is not a competitor of Gaussian, Inc. and that
 it will not use this program in any manner prohibited above.
 ---------------------------------------------------------------
  

 Cite this work as:
 Gaussian 16, Revision A.03,
 M. J. Frisch, G. W. Trucks, H. B. Schlegel, G. E. Scuseria, 
 M. A. Robb, J. R. Cheeseman, G. Scalmani, V. Barone, 
 G. A. Petersson, H. Nakatsuji, X. Li, M. Caricato, A. V. Marenich, 
 J. Bloino, B. G. Janesko, R. Gomperts, B. Mennucci, H. P. Hratchian, 
 J. V. Ortiz, A. F. Izmaylov, J. L. Sonnenberg, D. Williams-Young, 
 F. Ding, F. Lipparini, F. Egidi, J. Goings, B. Peng, A. Petrone, 
 T. Henderson, D. Ranasinghe, V. G. Zakrzewski, J. Gao, N. Rega, 
 G. Zheng, W. Liang, M. Hada, M. Ehara, K. Toyota, R. Fukuda, 
 J. Hasegawa, M. Ishida, T. Nakajima, Y. Honda, O. Kitao, H. Nakai, 
 T. Vreven, K. Throssell, J. A. Montgomery, Jr., J. E. Peralta, 
 F. Ogliaro, M. J. Bearpark, J. J. Heyd, E. N. Brothers, K. N. Kudin, 
 V. N. Staroverov, T. A. Keith, R. Kobayashi, J. Normand, 
 K. Raghavachari, A. P. Rendell, J. C. Burant, S. S. Iyengar, 
 J. Tomasi, M. Cossi, J. M. Millam, M. Klene, C. Adamo, R. Cammi, 
 J. W. Ochterski, R. L. Martin, K. Morokuma, O. Farkas, 
 J. B. Foresman, and D. J. Fox, Gaussian, Inc., Wallingford CT, 2016.
 
 ******************************************
 Gaussian 16:  ES64L-G16RevA.03 25-Dec-2016
                18-Oct-2019 
 ******************************************
 %chk=ts_pcm_benzene_maugccpvtz.chk
 %nprocshared=24
 Will use up to   24 processors via shared memory.
 ----------------------------------------------------------------------
 #p opt=(calcall,ts,noeigen) freq b3lyp def2tzvp em=gd3bj scrf=(pcm,sol
 vent=benzene)
 ----------------------------------------------------------------------
 1/5=1,10=4,11=1,18=20,26=3,38=1/1,3;
 2/9=110,12=2,17=6,18=5,40=1/2;
 3/5=44,7=101,11=2,25=1,30=1,70=2201,71=2,72=12,74=-5,124=41,140=1/1,2,3;
 4//1;
 5/5=2,38=5,53=12/2;
 8/6=4,10=90,11=11/1;
 11/6=1,8=1,9=11,15=111,16=1/1,2,10;
 10/6=1/2;
 6/7=2,8=2,9=2,10=2,18=1,28=1/1;
 7/10=1,25=1/1,2,3,16;
 1/5=1,10=4,11=1,18=20,26=3/3(3);
 2/9=110/2;
 7/8=1,9=1,25=1,44=-1/16;
 99//99;
 2/9=110/2;
 3/5=44,7=101,11=2,25=1,30=1,70=2205,71=2,72=12,74=-5,124=41,140=1/1,2,3;
 4/5=5,16=3,69=1/1;
 5/5=2,38=5,53=12/2;
 8/6=4,10=90,11=11/1;
 11/6=1,8=1,9=11,15=111,16=1/1,2,10;
 10/6=1/2;
 7/10=1,25=1/1,2,3,16;
 1/5=1,10=4,11=1,18=20,26=3/3(-8);
 2/9=110/2;
 6/7=2,8=2,9=2,10=2,18=1,19=2,28=1/1;
 7/8=1,9=1,25=1,44=-1/16;
 99//99;
 Leave Link    1 at Fri Oct 18 00:59:53 2019, MaxMem=           0 cpu:              11.8 elap:               0.5
 (Enter /share/home/wli/program/opt/Chem_soft/g16/l101.exe)
 -------------------
 Title Card Required
 -------------------
 Symbolic Z-matrix:
 Charge = -1 Multiplicity = 1
 C                     0.7043    0.00002   0.00027 
 H                     0.7584   -0.9393   -0.50874 
 H                     0.7584    0.91052  -0.55864 
 H                     0.75836   0.02883   1.06826 
 Cl                    3.14574  0.        -0.00007 
 Br                   -1.71367  0.        -0.00004 
 
 Add virtual bond connecting atoms Br6        and C1         Dist= 4.57D+00.
 Add virtual bond connecting atoms Cl5        and C1         Dist= 4.61D+00.
 ITRead=  0  0  0  0  0  0
 MicOpt= -1 -1 -1 -1 -1 -1
 NAtoms=      6 NQM=        6 NQMF=       0 NMMI=      0 NMMIF=      0
                NMic=       0 NMicF=      0.
                    Isotopes and Nuclear Properties:
 (Nuclear quadrupole moments (NQMom) in fm**2, nuclear magnetic moments (NMagM)
  in nuclear magnetons)

  Atom         1           2           3           4           5           6
 IAtWgt=          12           1           1           1          35          79
 AtmWgt=  12.0000000   1.0078250   1.0078250   1.0078250  34.9688527  78.9183361
 NucSpn=           0           1           1           1           3           3
 AtZEff=  -0.0000000  -0.0000000  -0.0000000  -0.0000000  -0.0000000  -0.0000000
 NQMom=    0.0000000   0.0000000   0.0000000   0.0000000  -8.1650000  31.3000000
 NMagM=    0.0000000   2.7928460   2.7928460   2.7928460   0.8218740   2.1063990
 AtZNuc=   6.0000000   1.0000000   1.0000000   1.0000000  17.0000000  35.0000000
 Leave Link  101 at Fri Oct 18 00:59:54 2019, MaxMem=   104857600 cpu:               4.0 elap:               0.2
 (Enter /share/home/wli/program/opt/Chem_soft/g16/l103.exe)

 GradGradGradGradGradGradGradGradGradGradGradGradGradGradGradGradGradGrad
 Berny optimization.
 Initialization pass.
                           ----------------------------
                           !    Initial Parameters    !
                           ! (Angstroms and Degrees)  !
 --------------------------                            --------------------------
 ! Name  Definition              Value          Derivative Info.                !
 --------------------------------------------------------------------------------
 ! R1    R(1,2)                  1.0697         calculate D2E/DX2 analytically  !
 ! R2    R(1,3)                  1.0697         calculate D2E/DX2 analytically  !
 ! R3    R(1,4)                  1.0697         calculate D2E/DX2 analytically  !
 ! R4    R(1,5)                  2.4414         calculate D2E/DX2 analytically  !
 ! R5    R(1,6)                  2.418          calculate D2E/DX2 analytically  !
 ! A1    A(2,1,3)              119.75           calculate D2E/DX2 analytically  !
 ! A2    A(2,1,4)              119.7451         calculate D2E/DX2 analytically  !
 ! A3    A(2,1,5)               87.097          calculate D2E/DX2 analytically  !
 ! A4    A(2,1,6)               92.895          calculate D2E/DX2 analytically  !
 ! A5    A(3,1,4)              119.7448         calculate D2E/DX2 analytically  !
 ! A6    A(3,1,5)               87.0974         calculate D2E/DX2 analytically  !
 ! A7    A(3,1,6)               92.8953         calculate D2E/DX2 analytically  !
 ! A8    A(4,1,5)               87.1112         calculate D2E/DX2 analytically  !
 ! A9    A(4,1,6)               92.9041         calculate D2E/DX2 analytically  !
 ! A10   L(5,1,6,2,-1)         179.9919         calculate D2E/DX2 analytically  !
 ! A11   L(5,1,6,2,-2)         180.0131         calculate D2E/DX2 analytically  !
 ! D1    D(2,1,4,3)            169.9907         calculate D2E/DX2 analytically  !
 ! D2    D(2,1,5,3)            120.0042         calculate D2E/DX2 analytically  !
 ! D3    D(2,1,6,3)           -120.0028         calculate D2E/DX2 analytically  !
 ! D4    D(2,1,5,4)           -119.998          calculate D2E/DX2 analytically  !
 ! D5    D(2,1,6,4)            119.9987         calculate D2E/DX2 analytically  !
 ! D6    D(3,1,5,4)            119.9978         calculate D2E/DX2 analytically  !
 ! D7    D(3,1,6,4)           -119.9985         calculate D2E/DX2 analytically  !
 --------------------------------------------------------------------------------
 Trust Radius=3.00D-01 FncErr=1.00D-07 GrdErr=1.00D-06 EigMax=2.50D+02 EigMin=1.00D-04
 Number of steps in this run=     33 maximum allowed number of steps=    100.
 Search for a saddle point of order  1.
 GradGradGradGradGradGradGradGradGradGradGradGradGradGradGradGradGradGrad

 Leave Link  103 at Fri Oct 18 00:59:54 2019, MaxMem=   104857600 cpu:               0.8 elap:               0.1
 (Enter /share/home/wli/program/opt/Chem_soft/g16/l202.exe)
                          Input orientation:                          
 ---------------------------------------------------------------------
 Center     Atomic      Atomic             Coordinates (Angstroms)
 Number     Number       Type             X           Y           Z
 ---------------------------------------------------------------------
      1          6           0        0.704300    0.000015    0.000271
      2          1           0        0.758398   -0.939298   -0.508737
      3          1           0        0.758398    0.910520   -0.558639
      4          1           0        0.758363    0.028828    1.068261
      5         17           0        3.145737   -0.000004   -0.000074
      6         35           0       -1.713671   -0.000002   -0.000036
 ---------------------------------------------------------------------
                    Distance matrix (angstroms):
                    1          2          3          4          5
     1  C    0.000000
     2  H    1.069731   0.000000
     3  H    1.069732   1.850491   0.000000
     4  H    1.069746   1.850457   1.850455   0.000000
     5  Cl   2.441437   2.615416   2.615423   2.615669   0.000000
     6  Br   2.417971   2.692987   2.692993   2.693147   4.859408
                    6
     6  Br   0.000000
 This structure is nearly, but not quite of a higher symmetry.
 Consider Symm=Loose if the higher symmetry is desired.
 Stoichiometry    CH3BrCl(1-)
 Framework group  C1[X(CH3BrCl)]
 Deg. of freedom    12
 Full point group                 C1      NOp   1
 Largest Abelian subgroup         C1      NOp   1
 Largest concise Abelian subgroup C1      NOp   1
                         Standard orientation:                         
 ---------------------------------------------------------------------
 Center     Atomic      Atomic             Coordinates (Angstroms)
 Number     Number       Type             X           Y           Z
 ---------------------------------------------------------------------
      1          6           0        0.000249    0.003906    0.704289
      2          1           0       -0.513980    0.940658    0.753158
      3          1           0       -0.553586   -0.909380    0.763454
      4          1           0        1.068382   -0.018660    0.758512
      5         17           0       -0.000171    0.017512    3.145688
      6         35           0        0.000017   -0.009536   -1.713645
 ---------------------------------------------------------------------
 Rotational constants (GHZ):         146.4430850           0.8630335           0.8630334
 Leave Link  202 at Fri Oct 18 00:59:54 2019, MaxMem=   104857600 cpu:               1.8 elap:               0.1
 (Enter /share/home/wli/program/opt/Chem_soft/g16/l301.exe)
 Standard basis: def2TZVP (5D, 7F)
 Ernie: Thresh=  0.10000D-02 Tol=  0.10000D-05 Strict=F.
 There are   151 symmetry adapted cartesian basis functions of A   symmetry.
 There are   134 symmetry adapted basis functions of A   symmetry.
   134 basis functions,   258 primitive gaussians,   151 cartesian basis functions
    31 alpha electrons       31 beta electrons
       nuclear repulsion energy       173.5741035171 Hartrees.
 IExCor=  402 DFT=T Ex+Corr=B3LYP ExCW=0 ScaHFX=  0.200000
 ScaDFX=  0.800000  0.720000  1.000000  0.810000 ScalE2=  1.000000  1.000000
 IRadAn=      5 IRanWt=     -1 IRanGd=            0 ICorTp=0 IEmpDi=141
 NAtoms=    6 NActive=    6 NUniq=    6 SFac= 1.00D+00 NAtFMM=   60 NAOKFM=F Big=F
 Integral buffers will be    131072 words long.
 Raffenetti 2 integral format.
 Two-electron integral symmetry is turned on.
 R6Disp:  Grimme-D3(BJ) Dispersion energy=       -0.0069969608 Hartrees.
 Nuclear repulsion after empirical dispersion term =      173.5671065563 Hartrees.
 Force inversion solution in PCM.
 ------------------------------------------------------------------------------
 Polarizable Continuum Model (PCM)
 =================================
 Model                : PCM.
 Atomic radii         : UFF (Universal Force Field).
 Polarization charges : Total charges.
 Charge compensation  : None.
 Solution method      : Matrix inversion.
 Cavity type          : Scaled VdW (van der Waals Surface) (Alpha=1.100).
 Cavity algorithm     : GePol (No added spheres)
                        Default sphere list used, NSphG=    6.
                        Lebedev-Laikov grids with approx.  5.0 points / Ang**2.
                        Smoothing algorithm: York/Karplus (Gamma=1.0000).
                        Polarization charges: spherical gaussians, with
                                              point-specific exponents (IZeta= 3).
                        Self-potential: point-specific (ISelfS= 7).
                        Self-field    : sphere-specific E.n sum rule (ISelfD= 2).
 1st derivatives      : Analytical E(r).r(x)/FMM algorithm (CHGder, D1EAlg=3).
                        Cavity 1st derivative terms included.
 2nd derivatives      : Analytical E(r).r(xy)/FMM algorithm (CHGder, D2EAlg=3).
                        Cavity 2nd derivative terms included.
 Solvent              : Benzene, Eps=   2.270600 Eps(inf)=   2.253301
 ------------------------------------------------------------------------------
 Spheres list:
 ISph  on   Nord     Re0    Alpha      Xe            Ye            Ze
    1   C      1    1.9255  1.100      0.000249      0.003906      0.704289
    2   H      2    1.4430  1.100     -0.513980      0.940658      0.753158
    3   H      3    1.4430  1.100     -0.553586     -0.909380      0.763454
    4   H      4    1.4430  1.100      1.068382     -0.018660      0.758512
    5  Cl      5    1.9735  1.100     -0.000171      0.017512      3.145688
    6  Br      6    2.0945  1.100      0.000017     -0.009536     -1.713645
 ------------------------------------------------------------------------------
 GePol: Number of generator spheres                  =       6
 GePol: Total number of spheres                      =       6
 GePol: Number of exposed spheres                    =       6 (100.00%)
 GePol: Number of points                             =     873
 GePol: Average weight of points                     =       0.16
 GePol: Minimum weight of points                     =   0.22D-10
 GePol: Maximum weight of points                     =    0.21616
 GePol: Number of points with low weight             =      25
 GePol: Fraction of low-weight points (<1% of avg)   =       2.86%
 GePol: Cavity surface area                          =    136.563 Ang**2
 GePol: Cavity volume                                =    119.900 Ang**3
 Leave Link  301 at Fri Oct 18 00:59:54 2019, MaxMem=   104857600 cpu:               3.0 elap:               0.1
 (Enter /share/home/wli/program/opt/Chem_soft/g16/l302.exe)
 NPDir=0 NMtPBC=     1 NCelOv=     1 NCel=       1 NClECP=     1 NCelD=      1
         NCelK=      1 NCelE2=     1 NClLst=     1 CellRange=     0.0.
 One-electron integrals computed using PRISM.
 One-electron integral symmetry used in STVInt
 PrsmSu:  requested number of processors reduced to:  13 ShMem   1 Linda.
   1 Symmetry operations used in ECPInt.
 ECPInt:  NShTT=    1378 NPrTT=    5593 LenC2=    1324 LenP2D=    4259.
 LDataN:  DoStor=T MaxTD1= 6 Len=  172
 NBasis=   134 RedAO= T EigKep=  1.43D-03  NBF=   134
 NBsUse=   134 1.00D-06 EigRej= -1.00D+00 NBFU=   134
 Precomputing XC quadrature grid using
 IXCGrd= 4 IRadAn=           5 IRanWt=          -1 IRanGd=           0 AccXCQ= 0.00D+00.
 Generated NRdTot=       0 NPtTot=           0 NUsed=           0 NTot=          32
 NSgBfM=   150   150   150   150   150 MxSgAt=     6 MxSgA2=     6.
 Leave Link  302 at Fri Oct 18 00:59:54 2019, MaxMem=   104857600 cpu:              12.8 elap:               0.6
 (Enter /share/home/wli/program/opt/Chem_soft/g16/l303.exe)
 DipDrv:  MaxL=1.
 Leave Link  303 at Fri Oct 18 00:59:55 2019, MaxMem=   104857600 cpu:               4.4 elap:               0.2
 (Enter /share/home/wli/program/opt/Chem_soft/g16/l401.exe)
 ExpMin= 9.52D-02 ExpMax= 5.65D+05 ExpMxC= 5.46D+03 IAcc=3 IRadAn=         5 AccDes= 0.00D+00
 Harris functional with IExCor=  402 and IRadAn=       5 diagonalized for initial guess.
 HarFok:  IExCor=  402 AccDes= 0.00D+00 IRadAn=         5 IDoV= 1 UseB2=F ITyADJ=14
 ICtDFT=  3500011 ScaDFX=  1.000000  1.000000  1.000000  1.000000
 FoFCou: FMM=F IPFlag=           0 FMFlag=      100000 FMFlg1=           0
         NFxFlg=           0 DoJE=T BraDBF=F KetDBF=T FulRan=T
         wScrn=  0.000000 ICntrl=       500 IOpCl=  0 I1Cent=   200000004 NGrid=           0
         NMat0=    1 NMatS0=      1 NMatT0=    0 NMatD0=    1 NMtDS0=    0 NMtDT0=    0
 Petite list used in FoFCou.
 Harris En= -3074.56577756357    
 JPrj=0 DoOrth=F DoCkMO=F.
 Leave Link  401 at Fri Oct 18 00:59:55 2019, MaxMem=   104857600 cpu:               9.0 elap:               0.4
 (Enter /share/home/wli/program/opt/Chem_soft/g16/l502.exe)
 Keep R1 ints in memory in canonical form, NReq=64315121.
 FoFCou: FMM=F IPFlag=           0 FMFlag=           0 FMFlg1=           0
         NFxFlg=           0 DoJE=F BraDBF=F KetDBF=F FulRan=T
         wScrn=  0.000000 ICntrl=       600 IOpCl=  0 I1Cent=           0 NGrid=           0
         NMat0=    1 NMatS0=   9045 NMatT0=    0 NMatD0=    1 NMtDS0=    0 NMtDT0=    0
 Symmetry not used in FoFCou.
 Two-electron integral symmetry not used.
 Closed shell SCF:
 Using DIIS extrapolation, IDIIS=  1040.
 NGot=   104857600 LenX=    63896377 LenY=    63873135
 Requested convergence on RMS density matrix=1.00D-08 within 128 cycles.
 Requested convergence on MAX density matrix=1.00D-06.
 Requested convergence on             energy=1.00D-06.
 No special actions if energy rises.

 Cycle   1  Pass 1  IDiag  1:
 CoulSu:  requested number of processors reduced to:  17 ShMem   1 Linda.
 Inv3:  Mode=1 IEnd=     2286387.
 Iteration    1 A*A^-1 deviation from unit magnitude is 2.89D-15 for    847.
 Iteration    1 A*A^-1 deviation from orthogonality  is 1.83D-15 for    600    221.
 Iteration    1 A^-1*A deviation from unit magnitude is 3.11D-15 for    847.
 Iteration    1 A^-1*A deviation from orthogonality  is 1.32D-15 for    837    635.
 CoulSu:  requested number of processors reduced to:  17 ShMem   1 Linda.
 CoulSu:  requested number of processors reduced to:  17 ShMem   1 Linda.
 E= -3074.37870734717    
 DIIS: error= 5.06D-02 at cycle   1 NSaved=   1.
 NSaved= 1 IEnMin= 1 EnMin= -3074.37870734717     IErMin= 1 ErrMin= 5.06D-02
 ErrMax= 5.06D-02  0.00D+00 EMaxC= 1.00D-01 BMatC= 2.14D-01 BMatP= 2.14D-01
 IDIUse=3 WtCom= 4.94D-01 WtEn= 5.06D-01
 Coeff-Com:  0.100D+01
 Coeff-En:   0.100D+01
 Coeff:      0.100D+01
 Gap=     0.308 Goal=   None    Shift=    0.000
 GapD=    0.308 DampG=1.000 DampE=0.500 DampFc=0.5000 IDamp=-1.
 Damping current iteration by 5.00D-01
 RMSDP=4.43D-03 MaxDP=1.31D-01              OVMax= 2.72D-01

 Cycle   2  Pass 1  IDiag  1:
 E= -3074.42249286885     Delta-E=       -0.043785521683 Rises=F Damp=T
 DIIS: error= 2.04D-02 at cycle   2 NSaved=   2.
 NSaved= 2 IEnMin= 2 EnMin= -3074.42249286885     IErMin= 2 ErrMin= 2.04D-02
 ErrMax= 2.04D-02  0.00D+00 EMaxC= 1.00D-01 BMatC= 2.57D-02 BMatP= 2.14D-01
 IDIUse=3 WtCom= 7.96D-01 WtEn= 2.04D-01
 Coeff-Com: -0.194D+00 0.119D+01
 Coeff-En:   0.143D-01 0.986D+00
 Coeff:     -0.152D+00 0.115D+01
 Gap=     0.189 Goal=   None    Shift=    0.000
 RMSDP=1.46D-03 MaxDP=3.86D-02 DE=-4.38D-02 OVMax= 2.01D-01

 Cycle   3  Pass 1  IDiag  1:
 E= -3074.44995511873     Delta-E=       -0.027462249879 Rises=F Damp=F
 DIIS: error= 1.39D-02 at cycle   3 NSaved=   3.
 NSaved= 3 IEnMin= 3 EnMin= -3074.44995511873     IErMin= 3 ErrMin= 1.39D-02
 ErrMax= 1.39D-02  0.00D+00 EMaxC= 1.00D-01 BMatC= 2.04D-02 BMatP= 2.57D-02
 IDIUse=3 WtCom= 8.61D-01 WtEn= 1.39D-01
 Coeff-Com: -0.196D+00 0.653D+00 0.543D+00
 Coeff-En:   0.000D+00 0.000D+00 0.100D+01
 Coeff:     -0.169D+00 0.562D+00 0.607D+00
 Gap=     0.207 Goal=   None    Shift=    0.000
 RMSDP=1.04D-03 MaxDP=2.66D-02 DE=-2.75D-02 OVMax= 1.19D-01

 Cycle   4  Pass 1  IDiag  1:
 E= -3074.46903697021     Delta-E=       -0.019081851481 Rises=F Damp=F
 DIIS: error= 5.35D-03 at cycle   4 NSaved=   4.
 NSaved= 4 IEnMin= 4 EnMin= -3074.46903697021     IErMin= 4 ErrMin= 5.35D-03
 ErrMax= 5.35D-03  0.00D+00 EMaxC= 1.00D-01 BMatC= 3.34D-03 BMatP= 2.04D-02
 IDIUse=3 WtCom= 9.46D-01 WtEn= 5.35D-02
 Coeff-Com: -0.192D-01 0.700D-01 0.303D+00 0.646D+00
 Coeff-En:   0.000D+00 0.000D+00 0.168D+00 0.832D+00
 Coeff:     -0.182D-01 0.663D-01 0.296D+00 0.656D+00
 Gap=     0.196 Goal=   None    Shift=    0.000
 RMSDP=3.81D-04 MaxDP=1.07D-02 DE=-1.91D-02 OVMax= 3.50D-02

 Cycle   5  Pass 1  IDiag  1:
 E= -3074.47282651898     Delta-E=       -0.003789548770 Rises=F Damp=F
 DIIS: error= 8.54D-04 at cycle   5 NSaved=   5.
 NSaved= 5 IEnMin= 5 EnMin= -3074.47282651898     IErMin= 5 ErrMin= 8.54D-04
 ErrMax= 8.54D-04  0.00D+00 EMaxC= 1.00D-01 BMatC= 1.10D-04 BMatP= 3.34D-03
 IDIUse=3 WtCom= 9.91D-01 WtEn= 8.54D-03
 Coeff-Com: -0.101D-01 0.205D-01 0.143D+00 0.328D+00 0.519D+00
 Coeff-En:   0.000D+00 0.000D+00 0.000D+00 0.000D+00 0.100D+01
 Coeff:     -0.100D-01 0.203D-01 0.142D+00 0.325D+00 0.523D+00
 Gap=     0.196 Goal=   None    Shift=    0.000
 RMSDP=9.36D-05 MaxDP=3.80D-03 DE=-3.79D-03 OVMax= 5.50D-03

 Cycle   6  Pass 1  IDiag  1:
 E= -3074.47290705694     Delta-E=       -0.000080537957 Rises=F Damp=F
 DIIS: error= 1.50D-04 at cycle   6 NSaved=   6.
 NSaved= 6 IEnMin= 6 EnMin= -3074.47290705694     IErMin= 6 ErrMin= 1.50D-04
 ErrMax= 1.50D-04  0.00D+00 EMaxC= 1.00D-01 BMatC= 5.70D-06 BMatP= 1.10D-04
 IDIUse=3 WtCom= 9.99D-01 WtEn= 1.50D-03
 Coeff-Com: -0.123D-02 0.109D-02 0.279D-01 0.669D-01 0.216D+00 0.689D+00
 Coeff-En:   0.000D+00 0.000D+00 0.000D+00 0.000D+00 0.000D+00 0.100D+01
 Coeff:     -0.123D-02 0.109D-02 0.279D-01 0.668D-01 0.216D+00 0.690D+00
 Gap=     0.197 Goal=   None    Shift=    0.000
 RMSDP=2.55D-05 MaxDP=6.84D-04 DE=-8.05D-05 OVMax= 2.13D-03

 Cycle   7  Pass 1  IDiag  1:
 E= -3074.47291210539     Delta-E=       -0.000005048455 Rises=F Damp=F
 DIIS: error= 1.06D-04 at cycle   7 NSaved=   7.
 NSaved= 7 IEnMin= 7 EnMin= -3074.47291210539     IErMin= 7 ErrMin= 1.06D-04
 ErrMax= 1.06D-04  0.00D+00 EMaxC= 1.00D-01 BMatC= 8.74D-07 BMatP= 5.70D-06
 IDIUse=3 WtCom= 9.99D-01 WtEn= 1.06D-03
 Coeff-Com:  0.475D-03-0.134D-02-0.416D-02-0.102D-01 0.388D-01 0.350D+00
 Coeff-Com:  0.626D+00
 Coeff-En:   0.000D+00 0.000D+00 0.000D+00 0.000D+00 0.000D+00 0.869D-01
 Coeff-En:   0.913D+00
 Coeff:      0.475D-03-0.134D-02-0.416D-02-0.102D-01 0.388D-01 0.350D+00
 Coeff:      0.627D+00
 Gap=     0.197 Goal=   None    Shift=    0.000
 RMSDP=8.17D-06 MaxDP=3.37D-04 DE=-5.05D-06 OVMax= 5.35D-04

 Cycle   8  Pass 1  IDiag  1:
 E= -3074.47291297127     Delta-E=       -0.000000865873 Rises=F Damp=F
 DIIS: error= 7.16D-06 at cycle   8 NSaved=   8.
 NSaved= 8 IEnMin= 8 EnMin= -3074.47291297127     IErMin= 8 ErrMin= 7.16D-06
 ErrMax= 7.16D-06  0.00D+00 EMaxC= 1.00D-01 BMatC= 7.64D-09 BMatP= 8.74D-07
 IDIUse=1 WtCom= 1.00D+00 WtEn= 0.00D+00
 Coeff-Com:  0.121D-03-0.231D-03-0.125D-02-0.336D-02-0.142D-02 0.286D-01
 Coeff-Com:  0.128D+00 0.849D+00
 Coeff:      0.121D-03-0.231D-03-0.125D-02-0.336D-02-0.142D-02 0.286D-01
 Coeff:      0.128D+00 0.849D+00
 Gap=     0.197 Goal=   None    Shift=    0.000
 RMSDP=9.20D-07 MaxDP=3.08D-05 DE=-8.66D-07 OVMax= 6.28D-05

 Cycle   9  Pass 1  IDiag  1:
 E= -3074.47291298046     Delta-E=       -0.000000009198 Rises=F Damp=F
 DIIS: error= 1.97D-06 at cycle   9 NSaved=   9.
 NSaved= 9 IEnMin= 9 EnMin= -3074.47291298046     IErMin= 9 ErrMin= 1.97D-06
 ErrMax= 1.97D-06  0.00D+00 EMaxC= 1.00D-01 BMatC= 4.34D-10 BMatP= 7.64D-09
 IDIUse=1 WtCom= 1.00D+00 WtEn= 0.00D+00
 Coeff-Com:  0.481D-04-0.864D-04-0.361D-03-0.101D-02-0.165D-02 0.449D-03
 Coeff-Com:  0.245D-01 0.309D+00 0.669D+00
 Coeff:      0.481D-04-0.864D-04-0.361D-03-0.101D-02-0.165D-02 0.449D-03
 Coeff:      0.245D-01 0.309D+00 0.669D+00
 Gap=     0.197 Goal=   None    Shift=    0.000
 RMSDP=1.30D-07 MaxDP=3.16D-06 DE=-9.20D-09 OVMax= 5.26D-06

 Cycle  10  Pass 1  IDiag  1:
 E= -3074.47291298088     Delta-E=       -0.000000000414 Rises=F Damp=F
 DIIS: error= 4.99D-07 at cycle  10 NSaved=  10.
 NSaved=10 IEnMin=10 EnMin= -3074.47291298088     IErMin=10 ErrMin= 4.99D-07
 ErrMax= 4.99D-07  0.00D+00 EMaxC= 1.00D-01 BMatC= 2.13D-11 BMatP= 4.34D-10
 IDIUse=1 WtCom= 1.00D+00 WtEn= 0.00D+00
 Coeff-Com:  0.555D-05-0.112D-04 0.149D-05-0.297D-04-0.440D-03-0.223D-02
 Coeff-Com: -0.498D-02 0.243D-01 0.159D+00 0.825D+00
 Coeff:      0.555D-05-0.112D-04 0.149D-05-0.297D-04-0.440D-03-0.223D-02
 Coeff:     -0.498D-02 0.243D-01 0.159D+00 0.825D+00
 Gap=     0.197 Goal=   None    Shift=    0.000
 RMSDP=4.32D-08 MaxDP=1.15D-06 DE=-4.14D-10 OVMax= 2.83D-06

 Cycle  11  Pass 1  IDiag  1:
 E= -3074.47291298090     Delta-E=       -0.000000000021 Rises=F Damp=F
 DIIS: error= 5.13D-08 at cycle  11 NSaved=  11.
 NSaved=11 IEnMin=11 EnMin= -3074.47291298090     IErMin=11 ErrMin= 5.13D-08
 ErrMax= 5.13D-08  0.00D+00 EMaxC= 1.00D-01 BMatC= 3.36D-13 BMatP= 2.13D-11
 IDIUse=1 WtCom= 1.00D+00 WtEn= 0.00D+00
 Coeff-Com:  0.331D-06-0.758D-06 0.455D-05 0.601D-05-0.608D-04-0.429D-03
 Coeff-Com: -0.128D-02 0.190D-04 0.216D-01 0.210D+00 0.771D+00
 Coeff:      0.331D-06-0.758D-06 0.455D-05 0.601D-05-0.608D-04-0.429D-03
 Coeff:     -0.128D-02 0.190D-04 0.216D-01 0.210D+00 0.771D+00
 Gap=     0.197 Goal=   None    Shift=    0.000
 RMSDP=4.26D-09 MaxDP=9.66D-08 DE=-2.09D-11 OVMax= 3.10D-07

 CoulSu:  requested number of processors reduced to:  17 ShMem   1 Linda.
 CoulSu:  requested number of processors reduced to:  16 ShMem   1 Linda.
 Error on total polarization charges =  0.00936
 SCF Done:  E(RB3LYP) =  -3074.47291298     A.U. after   11 cycles
            NFock= 11  Conv=0.43D-08     -V/T= 2.0015
 KE= 3.069818847921D+03 PE=-7.700152684414D+03 EE= 1.382293816955D+03
 Leave Link  502 at Fri Oct 18 01:00:01 2019, MaxMem=   104857600 cpu:             126.9 elap:               6.0
 (Enter /share/home/wli/program/opt/Chem_soft/g16/l801.exe)
 DoSCS=F DFT=T ScalE2(SS,OS)=  1.000000  1.000000
 Range of M.O.s used for correlation:     1   134
 NBasis=   134 NAE=    31 NBE=    31 NFC=     0 NFV=     0
 NROrb=    134 NOA=    31 NOB=    31 NVA=   103 NVB=   103
 Leave Link  801 at Fri Oct 18 01:00:01 2019, MaxMem=   104857600 cpu:               1.2 elap:               0.1
 (Enter /share/home/wli/program/opt/Chem_soft/g16/l1101.exe)
 Using compressed storage, NAtomX=     6.
 Will process      7 centers per pass.
 PrsmSu:  requested number of processors reduced to:  11 ShMem   1 Linda.
   1 Symmetry operations used in ECPInt.
 ECPInt:  NShTT=    1378 NPrTT=    5593 LenC2=    1324 LenP2D=    4259.
 LDataN:  DoStor=T MaxTD1= 7 Len=  274
 Number of processors reduced to  18 by ecpmxn.
 R6Disp: Adding Grimme-D3(BJ) dispersion energy 1st derivatives to the gradient.
 Leave Link 1101 at Fri Oct 18 01:00:02 2019, MaxMem=   104857600 cpu:               7.6 elap:               0.4
 (Enter /share/home/wli/program/opt/Chem_soft/g16/l1102.exe)
 Symmetrizing basis deriv contribution to polar:
 IMax=3 JMax=2 DiffMx= 0.00D+00
 Leave Link 1102 at Fri Oct 18 01:00:02 2019, MaxMem=   104857600 cpu:               2.9 elap:               0.2
 (Enter /share/home/wli/program/opt/Chem_soft/g16/l1110.exe)
 Forming Gx(P) for the SCF density, NAtomX=     6.
 Integral derivatives from FoFJK, PRISM(SPDF).
 Do as many integral derivatives as possible in FoFJK.
 G2DrvN: MDV=     104857020.
 G2DrvN: will do     7 centers at a time, making    1 passes.
 Calling FoFCou, ICntrl=  3107 FMM=F I1Cent=   0 AccDes= 0.00D+00.
 FoFJK:  IHMeth= 1 ICntrl=    3107 DoSepK=F KAlg= 0 I1Cent=           0 FoldK=F
 IRaf=         0 NMat=       1 IRICut=       1 DoRegI=T DoRafI=F ISym2E= 0 IDoP0=0 IntGTp=1.
 FoFCou: FMM=F IPFlag=           0 FMFlag=      100000 FMFlg1=           0
         NFxFlg=           0 DoJE=F BraDBF=F KetDBF=F FulRan=T
         wScrn=  0.000000 ICntrl=      3107 IOpCl=  0 I1Cent=           0 NGrid=           0
         NMat0=    1 NMatS0=      1 NMatT0=    0 NMatD0=    1 NMtDS0=    0 NMtDT0=    0
 Symmetry not used in FoFCou.
 NEqPCM:  Using equilibrium solvation (IEInf=0, Eps=   2.2706, EpsInf=   2.2533)
 G2PCM: DoFxE=T DoFxN=T DoGrad=T DoDP/DQ/DG/TGxP=FFFF NFrqRd=   0 IEInf=0 SqF1=F DoCFld=F IF1Alg=4.
 GePol: Maximum number of non-zero 1st derivatives   =     380
 CoulSu:  requested number of processors reduced to:  13 ShMem   1 Linda.
 CoulSu:  requested number of processors reduced to:  13 ShMem   1 Linda.
 CoulSu:  requested number of processors reduced to:  13 ShMem   1 Linda.
 CoulSu:  requested number of processors reduced to:  17 ShMem   1 Linda.
 CoulSu:  requested number of processors reduced to:  23 ShMem   1 Linda.
 CoulSu:  requested number of processors reduced to:  13 ShMem   1 Linda.
 CoulSu:  requested number of processors reduced to:  13 ShMem   1 Linda.
 CoulSu:  requested number of processors reduced to:  13 ShMem   1 Linda.
 CoulSu:  requested number of processors reduced to:  13 ShMem   1 Linda.
 End of G2Drv F.D. properties file   721 does not exist.
 End of G2Drv F.D. properties file   722 does not exist.
 End of G2Drv F.D. properties file   788 does not exist.
 Leave Link 1110 at Fri Oct 18 01:00:07 2019, MaxMem=   104857600 cpu:             122.7 elap:               5.4
 (Enter /share/home/wli/program/opt/Chem_soft/g16/l1002.exe)
 Minotr:  Closed shell wavefunction.
          IDoAtm=111111
 NEqPCM:  Using equilibrium solvation (IEInf=0, Eps=   2.2706, EpsInf=   2.2533)
          Direct CPHF calculation.
          Differentiating once with respect to electric field.
                with respect to dipole field.
          Differentiating once with respect to nuclear coordinates.
          Requested convergence is 1.0D-08 RMS, and 1.0D-07 maximum.
          Secondary convergence is 1.0D-12 RMS, and 1.0D-12 maximum.
          NewPWx=T KeepS1=F KeepF1=F KeepIn=T MapXYZ=F SortEE=F KeepMc=T.
         1761 words used for storage of precomputed grid.
 Keep R1 ints in memory in canonical form, NReq=64236638.
 FoFCou: FMM=F IPFlag=           0 FMFlag=           0 FMFlg1=           0
         NFxFlg=           0 DoJE=F BraDBF=F KetDBF=F FulRan=T
         wScrn=  0.000000 ICntrl=       600 IOpCl=  0 I1Cent=           0 NGrid=           0
         NMat0=    1 NMatS0=   9045 NMatT0=    0 NMatD0=    1 NMtDS0=    0 NMtDT0=    0
 Symmetry not used in FoFCou.
 Two-electron integral symmetry not used.
          MDV=     104857600 using IRadAn=       1.
          Solving linear equations simultaneously, MaxMat=       0.
 CoulSu:  requested number of processors reduced to:  13 ShMem   1 Linda.
 CoulSu:  requested number of processors reduced to:  13 ShMem   1 Linda.
          There are    21 degrees of freedom in the 1st order CPHF.  IDoFFX=6 NUNeed=     3.
     18 vectors produced by pass  0 Test12= 1.52D-14 4.76D-09 XBig12= 2.26D+02 1.44D+01.
 AX will form    18 AO Fock derivatives at one time.
 CoulSu:  requested number of processors reduced to:  15 ShMem   1 Linda.
 CoulSu:  requested number of processors reduced to:  14 ShMem   1 Linda.
     18 vectors produced by pass  1 Test12= 1.52D-14 4.76D-09 XBig12= 3.53D+01 2.06D+00.
 CoulSu:  requested number of processors reduced to:  15 ShMem   1 Linda.
 CoulSu:  requested number of processors reduced to:  14 ShMem   1 Linda.
     18 vectors produced by pass  2 Test12= 1.52D-14 4.76D-09 XBig12= 1.74D+00 3.10D-01.
 CoulSu:  requested number of processors reduced to:  15 ShMem   1 Linda.
 CoulSu:  requested number of processors reduced to:  14 ShMem   1 Linda.
     18 vectors produced by pass  3 Test12= 1.52D-14 4.76D-09 XBig12= 4.06D-02 4.36D-02.
 CoulSu:  requested number of processors reduced to:  15 ShMem   1 Linda.
 CoulSu:  requested number of processors reduced to:  14 ShMem   1 Linda.
     18 vectors produced by pass  4 Test12= 1.52D-14 4.76D-09 XBig12= 6.38D-04 7.67D-03.
 CoulSu:  requested number of processors reduced to:  15 ShMem   1 Linda.
 CoulSu:  requested number of processors reduced to:  14 ShMem   1 Linda.
     17 vectors produced by pass  5 Test12= 1.52D-14 4.76D-09 XBig12= 8.97D-07 2.29D-04.
 CoulSu:  requested number of processors reduced to:  15 ShMem   1 Linda.
 CoulSu:  requested number of processors reduced to:  14 ShMem   1 Linda.
      5 vectors produced by pass  6 Test12= 1.52D-14 4.76D-09 XBig12= 1.85D-09 7.38D-06.
      1 vectors produced by pass  7 Test12= 1.52D-14 4.76D-09 XBig12= 2.42D-12 2.79D-07.
      1 vectors produced by pass  8 Test12= 1.52D-14 4.76D-09 XBig12= 3.67D-15 1.58D-08.
 InvSVY:  IOpt=1 It=  1 EMax= 1.07D-14
 Solved reduced A of dimension   114 with    21 vectors.
 FullF1:  Do perturbations      1 to       3.
 Isotropic polarizability for W=    0.000000       81.11 Bohr**3.
 End of Minotr F.D. properties file   721 does not exist.
 End of Minotr F.D. properties file   722 does not exist.
 End of Minotr F.D. properties file   788 does not exist.
 Leave Link 1002 at Fri Oct 18 01:00:13 2019, MaxMem=   104857600 cpu:             126.8 elap:               5.9
 (Enter /share/home/wli/program/opt/Chem_soft/g16/l601.exe)
 Copying SCF densities to generalized density rwf, IOpCl= 0 IROHF=0.

 **********************************************************************

            Population analysis using the SCF density.

 **********************************************************************

 Orbital symmetries:
       Occupied  (A) (A) (A) (A) (A) (A) (A) (A) (A) (A) (A) (A)
                 (A) (A) (A) (A) (A) (A) (A) (A) (A) (A) (A) (A)
                 (A) (A) (A) (A) (A) (A) (A)
       Virtual   (A) (A) (A) (A) (A) (A) (A) (A) (A) (A) (A) (A)
                 (A) (A) (A) (A) (A) (A) (A) (A) (A) (A) (A) (A)
                 (A) (A) (A) (A) (A) (A) (A) (A) (A) (A) (A) (A)
                 (A) (A) (A) (A) (A) (A) (A) (A) (A) (A) (A) (A)
                 (A) (A) (A) (A) (A) (A) (A) (A) (A) (A) (A) (A)
                 (A) (A) (A) (A) (A) (A) (A) (A) (A) (A) (A) (A)
                 (A) (A) (A) (A) (A) (A) (A) (A) (A) (A) (A) (A)
                 (A) (A) (A) (A) (A) (A) (A) (A) (A) (A) (A) (A)
                 (A) (A) (A) (A) (A) (A) (A)
 The electronic state is 1-A.
 Alpha  occ. eigenvalues -- -482.73038-101.35933 -62.37886 -56.19375 -56.19203
 Alpha  occ. eigenvalues --  -56.19203 -10.16607  -9.29141  -8.56967  -7.04923
 Alpha  occ. eigenvalues --   -7.04626  -7.04626  -6.39536  -6.39009  -6.39009
 Alpha  occ. eigenvalues --   -2.51043  -2.50902  -2.50901  -2.50482  -2.50482
 Alpha  occ. eigenvalues --   -0.67658  -0.64433  -0.60013  -0.38321  -0.38319
 Alpha  occ. eigenvalues --   -0.25392  -0.19215  -0.19213  -0.18254  -0.18252
 Alpha  occ. eigenvalues --   -0.17259
 Alpha virt. eigenvalues --    0.02407   0.11474   0.17647   0.17654   0.25560
 Alpha virt. eigenvalues --    0.26353   0.26361   0.32963   0.33446   0.33449
 Alpha virt. eigenvalues --    0.38742   0.38747   0.40339   0.41336   0.41337
 Alpha virt. eigenvalues --    0.46869   0.47089   0.47091   0.49872   0.53020
 Alpha virt. eigenvalues --    0.53025   0.55273   0.57852   0.57853   0.58245
 Alpha virt. eigenvalues --    0.58246   0.60804   0.83832   0.83835   0.84468
 Alpha virt. eigenvalues --    1.02308   1.02312   1.03230   1.16726   1.40946
 Alpha virt. eigenvalues --    1.43671   1.43672   1.44973   1.44974   1.51088
 Alpha virt. eigenvalues --    1.51833   1.51835   1.51899   1.53244   1.62274
 Alpha virt. eigenvalues --    1.62274   1.63689   1.63734   1.68627   1.68628
 Alpha virt. eigenvalues --    1.70009   1.73191   1.73198   1.86003   1.86003
 Alpha virt. eigenvalues --    1.88113   1.89509   1.89513   1.99942   1.99943
 Alpha virt. eigenvalues --    2.02867   2.09608   2.11639   2.11639   2.21465
 Alpha virt. eigenvalues --    2.21465   2.22813   2.22920   2.31924   2.31926
 Alpha virt. eigenvalues --    2.34778   2.34779   2.35939   2.39841   2.50804
 Alpha virt. eigenvalues --    2.50813   2.68028   2.72176   2.72182   2.84442
 Alpha virt. eigenvalues --    3.12933   3.12934   3.26199   3.26200   3.29166
 Alpha virt. eigenvalues --    3.35388   3.35390   3.67537   3.89675   4.09174
 Alpha virt. eigenvalues --    4.09177   4.12745   4.12746   4.21389   4.21392
 Alpha virt. eigenvalues --    4.33168   4.75416   7.47554  10.81921  10.81921
 Alpha virt. eigenvalues --   10.93067  22.15988  24.62401
          Condensed to atoms (all electrons):
               1          2          3          4          5          6
     1  C    4.856219   0.409771   0.409750   0.409735   0.021648   0.044818
     2  H    0.409771   0.498953  -0.021959  -0.022060  -0.004568  -0.015533
     3  H    0.409750  -0.021959   0.498994  -0.022052  -0.004546  -0.015526
     4  H    0.409735  -0.022060  -0.022052   0.499226  -0.004487  -0.015475
     5  Cl   0.021648  -0.004568  -0.004546  -0.004487  17.684604   0.009825
     6  Br   0.044818  -0.015533  -0.015526  -0.015475   0.009825  35.603323
 Mulliken charges:
               1
     1  C   -0.151941
     2  H    0.155397
     3  H    0.155338
     4  H    0.155114
     5  Cl  -0.702476
     6  Br  -0.611432
 Sum of Mulliken charges =  -1.00000
 Mulliken charges with hydrogens summed into heavy atoms:
               1
     1  C    0.313907
     5  Cl  -0.702476
     6  Br  -0.611432
 APT charges:
               1
     1  C    1.299689
     2  H   -0.021223
     3  H   -0.021449
     4  H   -0.022547
     5  Cl  -1.165885
     6  Br  -1.068585
 Sum of APT charges =  -1.00000
 APT charges with hydrogens summed into heavy atoms:
               1
     1  C    1.234470
     5  Cl  -1.165885
     6  Br  -1.068585
 Electronic spatial extent (au):  <R**2>=           1123.4085
 Charge=             -1.0000 electrons
 Dipole moment (field-independent basis, Debye):
    X=             -0.0033    Y=             -0.0247    Z=             -4.4392  Tot=              4.4392
 Quadrupole moment (field-independent basis, Debye-Ang):
   XX=            -42.4631   YY=            -42.4625   ZZ=            -85.3523
   XY=             -0.0002   XZ=              0.0006   YZ=             -0.2394
 Traceless Quadrupole moment (field-independent basis, Debye-Ang):
   XX=             14.2962   YY=             14.2968   ZZ=            -28.5930
   XY=             -0.0002   XZ=              0.0006   YZ=             -0.2394
 Octapole moment (field-independent basis, Debye-Ang**2):
  XXX=              1.0583  YYY=             -0.1876  ZZZ=           -143.3315  XYY=             -1.0662
  XXY=             -0.1538  XXZ=            -15.3364  XZZ=             -0.0091  YZZ=             -0.6282
  YYZ=            -15.3392  XYZ=              0.0056
 Hexadecapole moment (field-independent basis, Debye-Ang**3):
 XXXX=            -61.1712 YYYY=            -61.2042 ZZZZ=          -1670.5255 XXXY=              0.0042
 XXXZ=              0.8134 YYYX=             -0.0134 YYYZ=             -3.5394 ZZZX=              0.0198
 ZZZY=             -5.3729 XXYY=            -20.3971 XXZZ=           -235.3547 YYZZ=           -235.3672
 XXYZ=             -1.2478 YYXZ=             -0.7861 ZZXY=              0.0081
 N-N= 1.735671065563D+02 E-N=-7.700152681003D+03  KE= 3.069818847921D+03
  Exact polarizability:  43.283   0.003  43.273  -0.002   0.633 156.773
 Approx polarizability:  60.471   0.000  60.472  -0.004   0.805 205.249
 No NMR shielding tensors so no spin-rotation constants.
 Leave Link  601 at Fri Oct 18 01:00:14 2019, MaxMem=   104857600 cpu:              14.4 elap:               0.7
 (Enter /share/home/wli/program/opt/Chem_soft/g16/l701.exe)
 ... and contract with generalized density number  0.
 Compute integral second derivatives.
 R6Disp: Adding Grimme-D3(BJ) dispersion energy 2nd derivatives to the Hessian.
 PrsmSu:  requested number of processors reduced to:   9 ShMem   1 Linda.
 PrsmSu:  requested number of processors reduced to:  13 ShMem   1 Linda.
   1 Symmetry operations used in ECPInt.
 ECPInt:  NShTT=    1378 NPrTT=    5593 LenC2=    1324 LenP2D=    4259.
 LDataN:  DoStor=T MaxTD1= 8 Len=  415
 D2PCM: PCM CHGder 2nd derivatives, FixD1E=F FixD2E=F DoIter=F DoCFld=F I1PDM=0
 GePol: Maximum number of non-zero 2nd derivatives   =     380
 CoulSu:  requested number of processors reduced to:  13 ShMem   1 Linda.
 CoulSu:  requested number of processors reduced to:  13 ShMem   1 Linda.
 CoulSu:  requested number of processors reduced to:  13 ShMem   1 Linda.
 CoulSu:  requested number of processors reduced to:  13 ShMem   1 Linda.
 CoulSu:  requested number of processors reduced to:  13 ShMem   1 Linda.
 CoulSu:  requested number of processors reduced to:  11 ShMem   1 Linda.
 CoulSu:  requested number of processors reduced to:  13 ShMem   1 Linda.
 CoulSu:  requested number of processors reduced to:  11 ShMem   1 Linda.
 CoulSu:  requested number of processors reduced to:  13 ShMem   1 Linda.
 CoulSu:  requested number of processors reduced to:  11 ShMem   1 Linda.
 CoulSu:  requested number of processors reduced to:  11 ShMem   1 Linda.
 CoulSu:  requested number of processors reduced to:  13 ShMem   1 Linda.
 CoulSu:  requested number of processors reduced to:  13 ShMem   1 Linda.
 CoulSu:  requested number of processors reduced to:  13 ShMem   1 Linda.
 CoulSu:  requested number of processors reduced to:  13 ShMem   1 Linda.
 CoulSu:  requested number of processors reduced to:  13 ShMem   1 Linda.
 Leave Link  701 at Fri Oct 18 01:00:17 2019, MaxMem=   104857600 cpu:              52.3 elap:               3.0
 (Enter /share/home/wli/program/opt/Chem_soft/g16/l702.exe)
 L702 exits ... SP integral derivatives will be done elsewhere.
 Leave Link  702 at Fri Oct 18 01:00:17 2019, MaxMem=   104857600 cpu:               1.1 elap:               0.1
 (Enter /share/home/wli/program/opt/Chem_soft/g16/l703.exe)
 Integral derivatives from FoFJK, PRISM(SPDF).
 Compute integral second derivatives, UseDBF=F ICtDFT=           0.
 Calling FoFJK, ICntrl=    100127 FMM=F ISym2X=0 I1Cent= 0 IOpClX= 0 NMat=1 NMatS=1 NMatT=0.
 FoFJK:  IHMeth= 1 ICntrl=  100127 DoSepK=F KAlg= 0 I1Cent=           0 FoldK=F
 IRaf=         0 NMat=       1 IRICut=       1 DoRegI=T DoRafI=F ISym2E= 0 IDoP0=0 IntGTp=1.
 FoFCou: FMM=F IPFlag=           0 FMFlag=      100000 FMFlg1=         800
         NFxFlg=           0 DoJE=F BraDBF=F KetDBF=F FulRan=T
         wScrn=  0.000000 ICntrl=    100127 IOpCl=  0 I1Cent=           0 NGrid=           0
         NMat0=    1 NMatS0=      1 NMatT0=    0 NMatD0=    1 NMtDS0=    0 NMtDT0=    0
 Symmetry not used in FoFCou.
 CoulSu:  requested number of processors reduced to:  13 ShMem   1 Linda.
 Leave Link  703 at Fri Oct 18 01:00:23 2019, MaxMem=   104857600 cpu:             115.9 elap:               6.1
 (Enter /share/home/wli/program/opt/Chem_soft/g16/l716.exe)
 Dipole        =-1.30843422D-03-9.73184547D-03-1.74650153D+00
 Polarizability= 4.32829739D+01 2.71641576D-03 4.32729224D+01
                -2.20180599D-03 6.33424281D-01 1.56772669D+02
 ***** Axes restored to original set *****
 -------------------------------------------------------------------
 Center     Atomic                   Forces (Hartrees/Bohr)
 Number     Number              X              Y              Z
 -------------------------------------------------------------------
      1        6          -0.002828528    0.000013117    0.000139353
      2        1          -0.000155342   -0.000469055   -0.000233370
      3        1          -0.000073182    0.000340702   -0.000415567
      4        1           0.000056178    0.000030917    0.000498702
      5       17           0.001059488    0.000011525    0.000039723
      6       35           0.001941386    0.000072794   -0.000028840
 -------------------------------------------------------------------
 Cartesian Forces:  Max     0.002828528 RMS     0.000874485
 Force constants in Cartesian coordinates: 
                1             2             3             4             5 
      1 -0.414950D-01
      2 -0.547462D-03  0.678012D+00
      3  0.126938D-02 -0.128980D-02  0.679647D+00
      4 -0.978511D-02  0.163490D-01  0.856478D-02  0.315554D-01
      5  0.145804D-01 -0.308367D+00 -0.136783D+00 -0.150785D-01  0.310353D+00
      6  0.730511D-02 -0.136780D+00 -0.128588D+00 -0.833958D-02  0.143603D+00
      7 -0.939266D-02 -0.156114D-01  0.913982D-02  0.271352D-02  0.148706D-02
      8 -0.137102D-01 -0.292037D+00  0.146972D+00 -0.152943D-02 -0.120558D-01
      9  0.736159D-02  0.147031D+00 -0.143132D+00 -0.786411D-03 -0.129281D-01
     10 -0.955416D-02  0.208403D-03 -0.184536D-01  0.270533D-02  0.884771D-04
     11  0.464760D-03 -0.544223D-01 -0.931024D-02 -0.149050D-02  0.428770D-02
     12 -0.164742D-01 -0.929316D-02 -0.382098D+00 -0.842392D-03  0.349299D-02
     13  0.341635D-01 -0.165476D-03  0.292349D-03 -0.126704D-01  0.163427D-02
     14 -0.465813D-03 -0.982662D-02  0.474758D-03 -0.478796D-02  0.205289D-02
     15  0.980244D-03  0.361261D-03 -0.117863D-01 -0.234369D-02  0.729865D-03
     16  0.360634D-01 -0.233135D-03 -0.812762D-03 -0.145187D-01 -0.271164D-02
     17 -0.321666D-03 -0.133594D-01 -0.638157D-04  0.653737D-02  0.372919D-02
     18 -0.442124D-03 -0.296518D-04 -0.140426D-01  0.374729D-02  0.188548D-02
                6             7             8             9            10 
      6  0.122024D+00
      7 -0.865952D-03  0.318750D-01
      8  0.140983D-01  0.143688D-01  0.293814D+00
      9  0.104032D-01 -0.838574D-02 -0.154105D+00  0.137246D+00
     10  0.170307D-02  0.270385D-02  0.165633D-05  0.171939D-02  0.325272D-01
     11 -0.235607D-01  0.143193D-02  0.533147D-02  0.229577D-01 -0.352420D-03
     12 -0.593142D-02 -0.916965D-03 -0.409444D-02 -0.698678D-02  0.163758D-01
     13  0.132935D-02 -0.130407D-01 -0.162784D-02  0.143366D-02 -0.128042D-01
     14  0.807166D-03  0.478417D-02  0.198575D-02 -0.130380D-02  0.238123D-03
     15  0.104960D-02 -0.290623D-02 -0.117072D-02  0.146201D-02  0.620694D-02
     16 -0.113199D-02 -0.148591D-01  0.249699D-02 -0.134249D-02 -0.155780D-01
     17  0.183230D-02 -0.646060D-02  0.296068D-02 -0.165201D-02 -0.184240D-03
     18  0.104230D-02  0.393507D-02 -0.170030D-02  0.100830D-02 -0.755164D-02
               11            12            13            14            15 
     11  0.450166D-01
     12  0.976661D-02  0.391213D+00
     13 -0.999393D-04 -0.111274D-02  0.275382D-01
     14 -0.956347D-04  0.325160D-04  0.228894D-03  0.437162D-02
     15  0.890317D-04  0.945074D-03 -0.192316D-02 -0.940224D-05  0.679497D-02
     16  0.461713D-04  0.297048D-02 -0.231864D-01  0.257678D-05 -0.141093D-04
     17 -0.117908D-03  0.954748D-04  0.300886D-04  0.151199D-02  0.000000D+00
     18  0.576266D-04  0.285792D-02 -0.194624D-04 -0.124283D-05  0.153468D-02
               16            17            18 
     16  0.320787D-01
     17  0.399043D-03  0.527547D-02
     18  0.330870D-03 -0.211914D-03  0.759941D-02
 FormGI is forming the generalized inverse of G from B-inverse, IUseBI=4.
 Force constants in internal coordinates: 
                1             2             3             4             5 
      1  0.388719D+00
      2 -0.120075D-03  0.389144D+00
      3 -0.118809D-03 -0.116626D-03  0.392212D+00
      4 -0.270466D-02 -0.278673D-02 -0.177147D-02  0.275387D-01
      5 -0.218632D-02 -0.207364D-02 -0.218017D-02  0.231864D-01  0.320788D-01
      6  0.179298D-02  0.170749D-02 -0.330957D-02  0.574069D-03 -0.570215D-03
      7  0.159495D-02 -0.325782D-02  0.186158D-02  0.818793D-03 -0.102354D-02
      8 -0.414947D-02  0.217221D-02  0.127603D-02  0.353219D-02 -0.493234D-02
      9 -0.503128D-02  0.205275D-02  0.119217D-02 -0.446683D-02  0.427841D-02
     10 -0.327116D-02  0.170554D-02  0.167922D-02  0.869667D-03 -0.109295D-02
     11  0.247856D-02 -0.377700D-02  0.124981D-02  0.343237D-02 -0.490812D-02
     12  0.227247D-02 -0.505519D-02  0.115620D-02 -0.504873D-02  0.515339D-02
     13  0.234058D-02  0.249474D-02 -0.120112D-02  0.600289D-02 -0.555798D-02
     14  0.208982D-02  0.211309D-02 -0.367413D-02 -0.345179D-02  0.596673D-02
     15 -0.918075D-02  0.422496D-02  0.246820D-02 -0.934643D-03 -0.653929D-03
     16 -0.184715D-03  0.776967D-02 -0.420984D-02  0.240916D-02  0.946296D-04
     17  0.942825D-03  0.118506D-02  0.117512D-02  0.148218D-01 -0.175893D-01
     18  0.194893D-02  0.185722D-02 -0.354840D-02 -0.347170D-04  0.291197D-03
     19 -0.156044D-02 -0.145321D-02  0.312074D-02  0.256557D-03 -0.253094D-03
     20 -0.176110D-02  0.368336D-02 -0.186470D-02  0.126106D-04  0.109625D-03
     21  0.134474D-02 -0.290904D-02  0.165360D-02  0.128268D-03 -0.130095D-03
     22 -0.371003D-02  0.182614D-02  0.168370D-02  0.473276D-04 -0.181572D-03
     23  0.290518D-02 -0.145583D-02 -0.146714D-02 -0.128289D-03  0.122999D-03
                6             7             8             9            10 
      6  0.674692D-02
      7 -0.342218D-02  0.699132D-02
      8  0.903880D-03  0.105300D-02  0.237005D-01
      9 -0.900425D-03 -0.118948D-02 -0.149523D-01  0.290955D-01
     10 -0.332607D-02 -0.336574D-02 -0.128195D-02  0.135792D-02  0.688102D-02
     11  0.928477D-03 -0.136723D-02 -0.901972D-02  0.617868D-02  0.114645D-02
     12 -0.735553D-03  0.136314D-02  0.588709D-02 -0.117053D-01 -0.137798D-02
     13 -0.183913D-02  0.147952D-02 -0.108132D-01  0.457867D-02  0.121944D-02
     14  0.164428D-02 -0.133970D-02  0.519731D-02 -0.131957D-01 -0.106469D-02
     15  0.345470D-05 -0.136480D-03  0.874818D-02  0.141432D-01  0.759711D-04
     16 -0.223258D-03  0.826871D-04 -0.143620D-02 -0.178689D-02  0.222879D-03
     17  0.671815D-03  0.982044D-03  0.449537D-02 -0.486732D-02  0.899158D-03
     18  0.662059D-02 -0.341213D-02 -0.380903D-03 -0.134454D-03 -0.333124D-02
     19 -0.663803D-02  0.342444D-02 -0.114347D-03 -0.618427D-03  0.334479D-02
     20  0.335751D-02 -0.680509D-02  0.682403D-04  0.288087D-03  0.337762D-02
     21 -0.337456D-02  0.680523D-02  0.201689D-03  0.201221D-03 -0.335713D-02
     22 -0.326307D-02 -0.339295D-02  0.449144D-03  0.422541D-03  0.670886D-02
     23  0.326348D-02  0.338079D-02  0.316035D-03  0.819648D-03 -0.670192D-02
               11            12            13            14            15 
     11  0.243400D-01
     12 -0.149532D-01  0.294243D-01
     13 -0.112649D-01  0.476569D-02  0.270074D-01
     14  0.471880D-02 -0.134188D-01 -0.142731D-01  0.309724D-01
     15 -0.284104D-02 -0.581820D-02 -0.623454D-02 -0.799837D-02  0.228914D-01
     16 -0.921054D-02 -0.133678D-01  0.111191D-01  0.146835D-01 -0.322309D-02
     17  0.471164D-02 -0.497078D-02  0.542525D-02 -0.479417D-02 -0.371955D-03
     18 -0.412486D-03  0.570398D-04  0.906668D-04  0.781739D-03 -0.515358D-03
     19 -0.164606D-03 -0.812790D-03  0.102995D-02  0.678742D-03 -0.732774D-03
     20 -0.403170D-03 -0.436848D-03 -0.655089D-04  0.549973D-03  0.356327D-03
     21 -0.418166D-03 -0.833842D-03  0.637515D-03  0.210872D-03  0.402910D-03
     22  0.931627D-05 -0.493888D-03 -0.156176D-03 -0.231766D-03  0.871684D-03
     23 -0.253560D-03 -0.210511D-04 -0.392440D-03 -0.467871D-03  0.113568D-02
               16            17            18            19            20 
     16  0.279689D-01
     17  0.514571D-03  0.167272D-01
     18  0.710769D-03 -0.133436D-03  0.672424D-02
     19  0.155192D-02  0.186568D-03 -0.664759D-02  0.679728D-02
     20  0.766155D-03 -0.117806D-03  0.340416D-02 -0.336161D-02  0.684005D-02
     21  0.121371D-02  0.139503D-03 -0.337285D-02  0.344719D-02 -0.676641D-02
     22  0.553854D-04  0.156307D-04 -0.332008D-02  0.328597D-02  0.343590D-02
     23 -0.338201D-03 -0.470651D-04  0.327473D-02 -0.335009D-02 -0.340479D-02
               21            22            23 
     21  0.687620D-02
     22 -0.339355D-02  0.675598D-02
     23  0.342901D-02 -0.667952D-02  0.677910D-02
 Leave Link  716 at Fri Oct 18 01:00:23 2019, MaxMem=   104857600 cpu:               2.6 elap:               0.1
 (Enter /share/home/wli/program/opt/Chem_soft/g16/l103.exe)

 GradGradGradGradGradGradGradGradGradGradGradGradGradGradGradGradGradGrad
 Berny optimization.
 Red2BG is reusing G-inverse.
 Internal  Forces:  Max     0.001941382 RMS     0.000499899
 Search for a saddle point.
 Step number   1 out of a maximum of   33
 All quantities printed in internal units (Hartrees-Bohrs-Radians)
 Swapping is turned off.
 Second derivative matrix not updated -- analytic derivatives used.
 ITU=  0
     Eigenvalues ---   -0.01380   0.02954   0.03011   0.03538   0.04291
     Eigenvalues ---    0.05060   0.05437   0.05990   0.06264   0.38908
     Eigenvalues ---    0.38991   0.39256
 Eigenvectors required to have negative eigenvalues:
                          R4        R5        D1        A8        A7
   1                   -0.57904   0.56846   0.47412   0.15038  -0.14428
                          A9        A3        A4        A6        A5
   1                   -0.13762   0.13532  -0.13232   0.12851   0.02508
 RFO step:  Lambda0=1.950157957D-04 Lambda=-4.78292185D-05.
 Linear search not attempted -- option 19 set.
 Iteration  1 RMS(Cart)=  0.01039422 RMS(Int)=  0.00034617
 Iteration  2 RMS(Cart)=  0.00017457 RMS(Int)=  0.00029885
 Iteration  3 RMS(Cart)=  0.00000001 RMS(Int)=  0.00029885
 ITry= 1 IFail=0 DXMaxC= 4.06D-02 DCOld= 1.00D+10 DXMaxT= 3.00D-01 DXLimC= 3.00D+00 Rises=F
 Variable       Old X    -DE/DX   Delta X   Delta X   Delta X     New X
                                 (Linear)    (Quad)   (Total)
    R1        2.02150   0.00052   0.00000   0.00110   0.00110   2.02260
    R2        2.02150   0.00050   0.00000   0.00057   0.00057   2.02207
    R3        2.02153   0.00050   0.00000   0.00089   0.00089   2.02241
    R4        4.61365   0.00106   0.00000  -0.06361  -0.06361   4.55003
    R5        4.56930  -0.00194   0.00000   0.04827   0.04827   4.61758
    A1        2.09003  -0.00003   0.00000   0.00329   0.00243   2.09246
    A2        2.08995   0.00000   0.00000   0.00319   0.00238   2.09232
    A3        1.52013   0.00016   0.00000   0.02504   0.02501   1.54514
    A4        1.62132  -0.00006   0.00000  -0.02132  -0.02128   1.60004
    A5        2.08994   0.00004   0.00000   0.00491   0.00414   2.09408
    A6        1.52014   0.00002   0.00000   0.01965   0.01961   1.53975
    A7        1.62133  -0.00010   0.00000  -0.02403  -0.02400   1.59733
    A8        1.52038  -0.00009   0.00000   0.02061   0.02057   1.54095
    A9        1.62148   0.00008   0.00000  -0.01995  -0.01991   1.60157
   A10        3.14145   0.00010   0.00000   0.00373   0.00373   3.14518
   A11        3.14182   0.00004   0.00000   0.00291   0.00291   3.14473
    D1        2.96690   0.00010   0.00000   0.07468   0.07482   3.04171
    D2        2.09447  -0.00004   0.00000  -0.00062  -0.00062   2.09385
    D3       -2.09444   0.00004   0.00000   0.00067   0.00064  -2.09381
    D4       -2.09436   0.00000   0.00000   0.00079   0.00071  -2.09365
    D5        2.09437   0.00001   0.00000  -0.00041  -0.00049   2.09388
    D6        2.09436   0.00004   0.00000   0.00141   0.00133   2.09568
    D7       -2.09437  -0.00003   0.00000  -0.00108  -0.00113  -2.09550
         Item               Value     Threshold  Converged?
 Maximum Force            0.001941     0.000450     NO 
 RMS     Force            0.000500     0.000300     NO 
 Maximum Displacement     0.040582     0.001800     NO 
 RMS     Displacement     0.010381     0.001200     NO 
 Predicted change in Energy= 7.492901D-05
 Lowest energy point so far.  Saving SCF results.
 GradGradGradGradGradGradGradGradGradGradGradGradGradGradGradGradGradGrad

 Leave Link  103 at Fri Oct 18 01:00:24 2019, MaxMem=   104857600 cpu:              14.6 elap:               0.7
 (Enter /share/home/wli/program/opt/Chem_soft/g16/l202.exe)
                          Input orientation:                          
 ---------------------------------------------------------------------
 Center     Atomic      Atomic             Coordinates (Angstroms)
 Number     Number       Type             X           Y           Z
 ---------------------------------------------------------------------
      1          6           0        0.725775   -0.001660    0.000682
      2          1           0        0.755370   -0.942326   -0.509064
      3          1           0        0.756553    0.909550   -0.559429
      4          1           0        0.758020    0.026542    1.070039
      5         17           0        3.133542    0.004264   -0.000160
      6         35           0       -1.717735    0.003689   -0.001023
 ---------------------------------------------------------------------
                    Distance matrix (angstroms):
                    1          2          3          4          5
     1  C    0.000000
     2  H    1.070313   0.000000
     3  H    1.070034   1.852560   0.000000
     4  H    1.070215   1.852641   1.853340   0.000000
     5  Cl   2.407774   2.609734   2.604304   2.605557   0.000000
     6  Br   2.443517   2.696164   2.693418   2.697602   4.851277
                    6
     6  Br   0.000000
 Stoichiometry    CH3BrCl(1-)
 Framework group  C1[X(CH3BrCl)]
 Deg. of freedom    12
 Full point group                 C1      NOp   1
 RotChk:  IX=1 Diff= 2.23D+00
 Largest Abelian subgroup         C1      NOp   1
 Largest concise Abelian subgroup C1      NOp   1
                         Standard orientation:                         
 ---------------------------------------------------------------------
 Center     Atomic      Atomic             Coordinates (Angstroms)
 Number     Number       Type             X           Y           Z
 ---------------------------------------------------------------------
      1          6           0       -0.729479    0.003257   -0.003533
      2          1           0       -0.758981    0.030216   -1.073099
      3          1           0       -0.760120   -0.936510    0.507223
      4          1           0       -0.761955    0.916241    0.553932
      5         17           0       -3.137245   -0.000897    0.000959
      6         35           0        1.714031   -0.000407    0.000481
 ---------------------------------------------------------------------
 Rotational constants (GHZ):         146.0486126           0.8649922           0.8649896
 Leave Link  202 at Fri Oct 18 01:00:24 2019, MaxMem=   104857600 cpu:               1.8 elap:               0.1
 (Enter /share/home/wli/program/opt/Chem_soft/g16/l301.exe)
 Standard basis: def2TZVP (5D, 7F)
 Ernie: Thresh=  0.10000D-02 Tol=  0.10000D-05 Strict=F.
 There are   151 symmetry adapted cartesian basis functions of A   symmetry.
 There are   134 symmetry adapted basis functions of A   symmetry.
   134 basis functions,   258 primitive gaussians,   151 cartesian basis functions
    31 alpha electrons       31 beta electrons
       nuclear repulsion energy       173.5214421524 Hartrees.
 IExCor=  402 DFT=T Ex+Corr=B3LYP ExCW=0 ScaHFX=  0.200000
 ScaDFX=  0.800000  0.720000  1.000000  0.810000 ScalE2=  1.000000  1.000000
 IRadAn=      5 IRanWt=     -1 IRanGd=            0 ICorTp=0 IEmpDi=141
 NAtoms=    6 NActive=    6 NUniq=    6 SFac= 1.00D+00 NAtFMM=   60 NAOKFM=F Big=F
 Integral buffers will be    131072 words long.
 Raffenetti 2 integral format.
 Two-electron integral symmetry is turned on.
 R6Disp:  Grimme-D3(BJ) Dispersion energy=       -0.0070019488 Hartrees.
 Nuclear repulsion after empirical dispersion term =      173.5144402036 Hartrees.
 Force inversion solution in PCM.
 ------------------------------------------------------------------------------
 Polarizable Continuum Model (PCM)
 =================================
 Model                : PCM.
 Atomic radii         : UFF (Universal Force Field).
 Polarization charges : Total charges.
 Charge compensation  : None.
 Solution method      : Matrix inversion.
 Cavity type          : Scaled VdW (van der Waals Surface) (Alpha=1.100).
 Cavity algorithm     : GePol (No added spheres)
                        Default sphere list used, NSphG=    6.
                        Lebedev-Laikov grids with approx.  5.0 points / Ang**2.
                        Smoothing algorithm: York/Karplus (Gamma=1.0000).
                        Polarization charges: spherical gaussians, with
                                              point-specific exponents (IZeta= 3).
                        Self-potential: point-specific (ISelfS= 7).
                        Self-field    : sphere-specific E.n sum rule (ISelfD= 2).
 1st derivatives      : Analytical E(r).r(x)/FMM algorithm (CHGder, D1EAlg=3).
                        Cavity 1st derivative terms included.
 2nd derivatives      : Analytical E(r).r(xy)/FMM algorithm (CHGder, D2EAlg=3).
                        Cavity 2nd derivative terms included.
 Solvent              : Benzene, Eps=   2.270600 Eps(inf)=   2.253301
 ------------------------------------------------------------------------------
 Spheres list:
 ISph  on   Nord     Re0    Alpha      Xe            Ye            Ze
    1   C      1    1.9255  1.100     -0.729479      0.003257     -0.003533
    2   H      2    1.4430  1.100     -0.758981      0.030216     -1.073099
    3   H      3    1.4430  1.100     -0.760120     -0.936510      0.507223
    4   H      4    1.4430  1.100     -0.761955      0.916241      0.553932
    5  Cl      5    1.9735  1.100     -3.137245     -0.000897      0.000959
    6  Br      6    2.0945  1.100      1.714031     -0.000407      0.000481
 ------------------------------------------------------------------------------
 GePol: Number of generator spheres                  =       6
 GePol: Total number of spheres                      =       6
 GePol: Number of exposed spheres                    =       6 (100.00%)
 GePol: Number of points                             =     872
 GePol: Average weight of points                     =       0.16
 GePol: Minimum weight of points                     =   0.16D-06
 GePol: Maximum weight of points                     =    0.21616
 GePol: Number of points with low weight             =      25
 GePol: Fraction of low-weight points (<1% of avg)   =       2.87%
 GePol: Cavity surface area                          =    136.367 Ang**2
 GePol: Cavity volume                                =    119.776 Ang**3
 Leave Link  301 at Fri Oct 18 01:00:24 2019, MaxMem=   104857600 cpu:               3.0 elap:               0.1
 (Enter /share/home/wli/program/opt/Chem_soft/g16/l302.exe)
 NPDir=0 NMtPBC=     1 NCelOv=     1 NCel=       1 NClECP=     1 NCelD=      1
         NCelK=      1 NCelE2=     1 NClLst=     1 CellRange=     0.0.
 One-electron integrals computed using PRISM.
 One-electron integral symmetry used in STVInt
 PrsmSu:  requested number of processors reduced to:  13 ShMem   1 Linda.
   1 Symmetry operations used in ECPInt.
 ECPInt:  NShTT=    1378 NPrTT=    5593 LenC2=    1324 LenP2D=    4260.
 LDataN:  DoStor=T MaxTD1= 6 Len=  172
 NBasis=   134 RedAO= T EigKep=  1.43D-03  NBF=   134
 NBsUse=   134 1.00D-06 EigRej= -1.00D+00 NBFU=   134
 Precomputing XC quadrature grid using
 IXCGrd= 4 IRadAn=           5 IRanWt=          -1 IRanGd=           0 AccXCQ= 0.00D+00.
 Generated NRdTot=       0 NPtTot=           0 NUsed=           0 NTot=          32
 NSgBfM=   150   150   150   150   150 MxSgAt=     6 MxSgA2=     6.
 Leave Link  302 at Fri Oct 18 01:00:25 2019, MaxMem=   104857600 cpu:              12.9 elap:               0.6
 (Enter /share/home/wli/program/opt/Chem_soft/g16/l303.exe)
 DipDrv:  MaxL=1.
 Leave Link  303 at Fri Oct 18 01:00:25 2019, MaxMem=   104857600 cpu:               5.0 elap:               0.2
 (Enter /share/home/wli/program/opt/Chem_soft/g16/l401.exe)
 Initial guess from the checkpoint file:  "ts_pcm_benzene_maugccpvtz.chk"
 B after Tr=    -0.000000    0.000000    0.000000
         Rot=    0.614019    0.350694    0.612052   -0.354099 Ang= 104.24 deg.
 Guess basis will be translated and rotated to current coordinates.
 JPrj=2 DoOrth=T DoCkMO=T.
 Generating alternative initial guess.
 ExpMin= 9.52D-02 ExpMax= 5.65D+05 ExpMxC= 5.46D+03 IAcc=2 IRadAn=         4 AccDes= 0.00D+00
 Harris functional with IExCor=  402 and IRadAn=       4 diagonalized for initial guess.
 HarFok:  IExCor=  402 AccDes= 0.00D+00 IRadAn=         4 IDoV= 1 UseB2=F ITyADJ=14
 ICtDFT=  3500011 ScaDFX=  1.000000  1.000000  1.000000  1.000000
 FoFCou: FMM=F IPFlag=           0 FMFlag=      100000 FMFlg1=           0
         NFxFlg=           0 DoJE=T BraDBF=F KetDBF=T FulRan=T
         wScrn=  0.000000 ICntrl=       500 IOpCl=  0 I1Cent=   200000004 NGrid=           0
         NMat0=    1 NMatS0=      1 NMatT0=    0 NMatD0=    1 NMtDS0=    0 NMtDT0=    0
 Petite list used in FoFCou.
 Harris En= -3074.56964743667    
 Leave Link  401 at Fri Oct 18 01:00:26 2019, MaxMem=   104857600 cpu:              18.2 elap:               0.8
 (Enter /share/home/wli/program/opt/Chem_soft/g16/l502.exe)
 Keep R1 ints in memory in canonical form, NReq=64315121.
 FoFCou: FMM=F IPFlag=           0 FMFlag=           0 FMFlg1=           0
         NFxFlg=           0 DoJE=F BraDBF=F KetDBF=F FulRan=T
         wScrn=  0.000000 ICntrl=       600 IOpCl=  0 I1Cent=           0 NGrid=           0
         NMat0=    1 NMatS0=   9045 NMatT0=    0 NMatD0=    1 NMtDS0=    0 NMtDT0=    0
 Symmetry not used in FoFCou.
 Two-electron integral symmetry not used.
 Closed shell SCF:
 Using DIIS extrapolation, IDIIS=  1040.
 NGot=   104857600 LenX=    63896377 LenY=    63873135
 Requested convergence on RMS density matrix=1.00D-08 within 128 cycles.
 Requested convergence on MAX density matrix=1.00D-06.
 Requested convergence on             energy=1.00D-06.
 No special actions if energy rises.

 Cycle   1  Pass 1  IDiag  1:
 CoulSu:  requested number of processors reduced to:  17 ShMem   1 Linda.
 Inv3:  Mode=1 IEnd=     2281152.
 Iteration    1 A*A^-1 deviation from unit magnitude is 2.44D-15 for    863.
 Iteration    1 A*A^-1 deviation from orthogonality  is 1.86D-15 for    610    216.
 Iteration    1 A^-1*A deviation from unit magnitude is 2.66D-15 for    870.
 Iteration    1 A^-1*A deviation from orthogonality  is 1.36D-15 for    212    124.
 CoulSu:  requested number of processors reduced to:  17 ShMem   1 Linda.
 CoulSu:  requested number of processors reduced to:  17 ShMem   1 Linda.
 E= -3074.47254728935    
 DIIS: error= 1.35D-03 at cycle   1 NSaved=   1.
 NSaved= 1 IEnMin= 1 EnMin= -3074.47254728935     IErMin= 1 ErrMin= 1.35D-03
 ErrMax= 1.35D-03  0.00D+00 EMaxC= 1.00D-01 BMatC= 1.49D-04 BMatP= 1.49D-04
 IDIUse=3 WtCom= 9.86D-01 WtEn= 1.35D-02
 Coeff-Com:  0.100D+01
 Coeff-En:   0.100D+01
 Coeff:      0.100D+01
 Gap=     0.632 Goal=   None    Shift=    0.000
 GapD=    0.632 DampG=2.000 DampE=1.000 DampFc=2.0000 IDamp=-1.
 RMSDP=1.84D-04 MaxDP=3.78D-03              OVMax= 1.79D-02

 Cycle   2  Pass 1  IDiag  1:
 E= -3074.47280579461     Delta-E=       -0.000258505265 Rises=F Damp=F
 DIIS: error= 3.41D-04 at cycle   2 NSaved=   2.
 NSaved= 2 IEnMin= 2 EnMin= -3074.47280579461     IErMin= 2 ErrMin= 3.41D-04
 ErrMax= 3.41D-04  0.00D+00 EMaxC= 1.00D-01 BMatC= 2.17D-05 BMatP= 1.49D-04
 IDIUse=3 WtCom= 9.97D-01 WtEn= 3.41D-03
 Coeff-Com:  0.101D+00 0.899D+00
 Coeff-En:   0.000D+00 0.100D+01
 Coeff:      0.101D+00 0.899D+00
 Gap=     0.198 Goal=   None    Shift=    0.000
 RMSDP=1.02D-04 MaxDP=2.53D-03 DE=-2.59D-04 OVMax= 6.73D-03

 Cycle   3  Pass 1  IDiag  1:
 E= -3074.47279630841     Delta-E=        0.000009486202 Rises=F Damp=F
 DIIS: error= 4.27D-04 at cycle   3 NSaved=   3.
 NSaved= 3 IEnMin= 2 EnMin= -3074.47280579461     IErMin= 2 ErrMin= 3.41D-04
 ErrMax= 4.27D-04  0.00D+00 EMaxC= 1.00D-01 BMatC= 3.62D-05 BMatP= 2.17D-05
 IDIUse=3 WtCom= 3.26D-01 WtEn= 6.74D-01
 Coeff-Com: -0.197D-01 0.579D+00 0.441D+00
 Coeff-En:   0.000D+00 0.559D+00 0.441D+00
 Coeff:     -0.643D-02 0.566D+00 0.441D+00
 Gap=     0.198 Goal=   None    Shift=    0.000
 RMSDP=4.95D-05 MaxDP=1.37D-03 DE= 9.49D-06 OVMax= 4.21D-03

 Cycle   4  Pass 1  IDiag  1:
 E= -3074.47283756576     Delta-E=       -0.000041257351 Rises=F Damp=F
 DIIS: error= 3.83D-05 at cycle   4 NSaved=   4.
 NSaved= 4 IEnMin= 4 EnMin= -3074.47283756576     IErMin= 4 ErrMin= 3.83D-05
 ErrMax= 3.83D-05  0.00D+00 EMaxC= 1.00D-01 BMatC= 3.29D-07 BMatP= 2.17D-05
 IDIUse=1 WtCom= 1.00D+00 WtEn= 0.00D+00
 Coeff-Com: -0.128D-01 0.161D+00 0.136D+00 0.715D+00
 Coeff:     -0.128D-01 0.161D+00 0.136D+00 0.715D+00
 Gap=     0.198 Goal=   None    Shift=    0.000
 RMSDP=3.78D-06 MaxDP=9.26D-05 DE=-4.13D-05 OVMax= 3.74D-04

 Cycle   5  Pass 1  IDiag  1:
 E= -3074.47283772784     Delta-E=       -0.000000162075 Rises=F Damp=F
 DIIS: error= 1.60D-05 at cycle   5 NSaved=   5.
 NSaved= 5 IEnMin= 5 EnMin= -3074.47283772784     IErMin= 5 ErrMin= 1.60D-05
 ErrMax= 1.60D-05  0.00D+00 EMaxC= 1.00D-01 BMatC= 4.04D-08 BMatP= 3.29D-07
 IDIUse=1 WtCom= 1.00D+00 WtEn= 0.00D+00
 Coeff-Com: -0.423D-02 0.302D-01 0.358D-01 0.256D+00 0.682D+00
 Coeff:     -0.423D-02 0.302D-01 0.358D-01 0.256D+00 0.682D+00
 Gap=     0.198 Goal=   None    Shift=    0.000
 RMSDP=1.82D-06 MaxDP=5.69D-05 DE=-1.62D-07 OVMax= 1.57D-04

 Cycle   6  Pass 1  IDiag  1:
 E= -3074.47283774915     Delta-E=       -0.000000021314 Rises=F Damp=F
 DIIS: error= 1.26D-05 at cycle   6 NSaved=   6.
 NSaved= 6 IEnMin= 6 EnMin= -3074.47283774915     IErMin= 6 ErrMin= 1.26D-05
 ErrMax= 1.26D-05  0.00D+00 EMaxC= 1.00D-01 BMatC= 1.71D-08 BMatP= 4.04D-08
 IDIUse=1 WtCom= 1.00D+00 WtEn= 0.00D+00
 Coeff-Com: -0.451D-03-0.771D-02 0.302D-02 0.443D-01 0.416D+00 0.545D+00
 Coeff:     -0.451D-03-0.771D-02 0.302D-02 0.443D-01 0.416D+00 0.545D+00
 Gap=     0.198 Goal=   None    Shift=    0.000
 RMSDP=7.96D-07 MaxDP=1.74D-05 DE=-2.13D-08 OVMax= 8.30D-05

 Cycle   7  Pass 1  IDiag  1:
 E= -3074.47283776820     Delta-E=       -0.000000019044 Rises=F Damp=F
 DIIS: error= 1.76D-06 at cycle   7 NSaved=   7.
 NSaved= 7 IEnMin= 7 EnMin= -3074.47283776820     IErMin= 7 ErrMin= 1.76D-06
 ErrMax= 1.76D-06  0.00D+00 EMaxC= 1.00D-01 BMatC= 3.88D-10 BMatP= 1.71D-08
 IDIUse=1 WtCom= 1.00D+00 WtEn= 0.00D+00
 Coeff-Com:  0.876D-04-0.538D-02-0.607D-03 0.389D-02 0.116D+00 0.224D+00
 Coeff-Com:  0.663D+00
 Coeff:      0.876D-04-0.538D-02-0.607D-03 0.389D-02 0.116D+00 0.224D+00
 Coeff:      0.663D+00
 Gap=     0.198 Goal=   None    Shift=    0.000
 RMSDP=1.28D-07 MaxDP=2.60D-06 DE=-1.90D-08 OVMax= 9.15D-06

 Cycle   8  Pass 1  IDiag  1:
 E= -3074.47283776861     Delta-E=       -0.000000000418 Rises=F Damp=F
 DIIS: error= 2.55D-07 at cycle   8 NSaved=   8.
 NSaved= 8 IEnMin= 8 EnMin= -3074.47283776861     IErMin= 8 ErrMin= 2.55D-07
 ErrMax= 2.55D-07  0.00D+00 EMaxC= 1.00D-01 BMatC= 8.54D-12 BMatP= 3.88D-10
 IDIUse=1 WtCom= 1.00D+00 WtEn= 0.00D+00
 Coeff-Com:  0.361D-04-0.126D-02-0.115D-03 0.809D-03 0.146D-01 0.407D-01
 Coeff-Com:  0.186D+00 0.759D+00
 Coeff:      0.361D-04-0.126D-02-0.115D-03 0.809D-03 0.146D-01 0.407D-01
 Coeff:      0.186D+00 0.759D+00
 Gap=     0.198 Goal=   None    Shift=    0.000
 RMSDP=2.64D-08 MaxDP=8.45D-07 DE=-4.18D-10 OVMax= 8.80D-07

 Cycle   9  Pass 1  IDiag  1:
 E= -3074.47283776865     Delta-E=       -0.000000000037 Rises=F Damp=F
 DIIS: error= 5.19D-08 at cycle   9 NSaved=   9.
 NSaved= 9 IEnMin= 9 EnMin= -3074.47283776865     IErMin= 9 ErrMin= 5.19D-08
 ErrMax= 5.19D-08  0.00D+00 EMaxC= 1.00D-01 BMatC= 5.93D-13 BMatP= 8.54D-12
 IDIUse=1 WtCom= 1.00D+00 WtEn= 0.00D+00
 Coeff-Com:  0.541D-05-0.833D-04 0.340D-04 0.134D-04-0.183D-02-0.201D-02
 Coeff-Com:  0.486D-02 0.230D+00 0.769D+00
 Coeff:      0.541D-05-0.833D-04 0.340D-04 0.134D-04-0.183D-02-0.201D-02
 Coeff:      0.486D-02 0.230D+00 0.769D+00
 Gap=     0.198 Goal=   None    Shift=    0.000
 RMSDP=8.53D-09 MaxDP=3.27D-07 DE=-3.68D-11 OVMax= 3.47D-07

 CoulSu:  requested number of processors reduced to:  17 ShMem   1 Linda.
 CoulSu:  requested number of processors reduced to:  16 ShMem   1 Linda.
 Error on total polarization charges =  0.00940
 SCF Done:  E(RB3LYP) =  -3074.47283777     A.U. after    9 cycles
            NFock=  9  Conv=0.85D-08     -V/T= 2.0015
 KE= 3.069820885280D+03 PE=-7.700143522094D+03 EE= 1.382335358842D+03
 Leave Link  502 at Fri Oct 18 01:00:31 2019, MaxMem=   104857600 cpu:             111.5 elap:               5.2
 (Enter /share/home/wli/program/opt/Chem_soft/g16/l801.exe)
 DoSCS=F DFT=T ScalE2(SS,OS)=  1.000000  1.000000
 Range of M.O.s used for correlation:     1   134
 NBasis=   134 NAE=    31 NBE=    31 NFC=     0 NFV=     0
 NROrb=    134 NOA=    31 NOB=    31 NVA=   103 NVB=   103
 Leave Link  801 at Fri Oct 18 01:00:31 2019, MaxMem=   104857600 cpu:               1.1 elap:               0.1
 (Enter /share/home/wli/program/opt/Chem_soft/g16/l1101.exe)
 Using compressed storage, NAtomX=     6.
 Will process      7 centers per pass.
 PrsmSu:  requested number of processors reduced to:  11 ShMem   1 Linda.
   1 Symmetry operations used in ECPInt.
 ECPInt:  NShTT=    1378 NPrTT=    5593 LenC2=    1324 LenP2D=    4260.
 LDataN:  DoStor=T MaxTD1= 7 Len=  274
 Number of processors reduced to  18 by ecpmxn.
 R6Disp: Adding Grimme-D3(BJ) dispersion energy 1st derivatives to the gradient.
 Leave Link 1101 at Fri Oct 18 01:00:31 2019, MaxMem=   104857600 cpu:               8.6 elap:               0.4
 (Enter /share/home/wli/program/opt/Chem_soft/g16/l1102.exe)
 Symmetrizing basis deriv contribution to polar:
 IMax=3 JMax=2 DiffMx= 0.00D+00
 Leave Link 1102 at Fri Oct 18 01:00:31 2019, MaxMem=   104857600 cpu:               2.5 elap:               0.1
 (Enter /share/home/wli/program/opt/Chem_soft/g16/l1110.exe)
 Forming Gx(P) for the SCF density, NAtomX=     6.
 Integral derivatives from FoFJK, PRISM(SPDF).
 Do as many integral derivatives as possible in FoFJK.
 G2DrvN: MDV=     104857020.
 G2DrvN: will do     7 centers at a time, making    1 passes.
 Calling FoFCou, ICntrl=  3107 FMM=F I1Cent=   0 AccDes= 0.00D+00.
 FoFJK:  IHMeth= 1 ICntrl=    3107 DoSepK=F KAlg= 0 I1Cent=           0 FoldK=F
 IRaf=         0 NMat=       1 IRICut=       1 DoRegI=T DoRafI=F ISym2E= 0 IDoP0=0 IntGTp=1.
 FoFCou: FMM=F IPFlag=           0 FMFlag=      100000 FMFlg1=           0
         NFxFlg=           0 DoJE=F BraDBF=F KetDBF=F FulRan=T
         wScrn=  0.000000 ICntrl=      3107 IOpCl=  0 I1Cent=           0 NGrid=           0
         NMat0=    1 NMatS0=      1 NMatT0=    0 NMatD0=    1 NMtDS0=    0 NMtDT0=    0
 Symmetry not used in FoFCou.
 NEqPCM:  Using equilibrium solvation (IEInf=0, Eps=   2.2706, EpsInf=   2.2533)
 G2PCM: DoFxE=T DoFxN=T DoGrad=T DoDP/DQ/DG/TGxP=FFFF NFrqRd=   0 IEInf=0 SqF1=F DoCFld=F IF1Alg=4.
 GePol: Maximum number of non-zero 1st derivatives   =     380
 CoulSu:  requested number of processors reduced to:  13 ShMem   1 Linda.
 CoulSu:  requested number of processors reduced to:  13 ShMem   1 Linda.
 CoulSu:  requested number of processors reduced to:  13 ShMem   1 Linda.
 CoulSu:  requested number of processors reduced to:  17 ShMem   1 Linda.
 CoulSu:  requested number of processors reduced to:  23 ShMem   1 Linda.
 CoulSu:  requested number of processors reduced to:  13 ShMem   1 Linda.
 CoulSu:  requested number of processors reduced to:  13 ShMem   1 Linda.
 CoulSu:  requested number of processors reduced to:  13 ShMem   1 Linda.
 CoulSu:  requested number of processors reduced to:  13 ShMem   1 Linda.
 End of G2Drv F.D. properties file   721 does not exist.
 End of G2Drv F.D. properties file   722 does not exist.
 End of G2Drv F.D. properties file   788 does not exist.
 Leave Link 1110 at Fri Oct 18 01:00:37 2019, MaxMem=   104857600 cpu:             128.7 elap:               5.6
 (Enter /share/home/wli/program/opt/Chem_soft/g16/l1002.exe)
 Minotr:  Closed shell wavefunction.
          IDoAtm=111111
 NEqPCM:  Using equilibrium solvation (IEInf=0, Eps=   2.2706, EpsInf=   2.2533)
          Direct CPHF calculation.
          Differentiating once with respect to electric field.
                with respect to dipole field.
          Differentiating once with respect to nuclear coordinates.
          Requested convergence is 1.0D-08 RMS, and 1.0D-07 maximum.
          Secondary convergence is 1.0D-12 RMS, and 1.0D-12 maximum.
          NewPWx=T KeepS1=F KeepF1=F KeepIn=T MapXYZ=F SortEE=F KeepMc=T.
         1761 words used for storage of precomputed grid.
 Keep R1 ints in memory in canonical form, NReq=64236638.
 FoFCou: FMM=F IPFlag=           0 FMFlag=           0 FMFlg1=           0
         NFxFlg=           0 DoJE=F BraDBF=F KetDBF=F FulRan=T
         wScrn=  0.000000 ICntrl=       600 IOpCl=  0 I1Cent=           0 NGrid=           0
         NMat0=    1 NMatS0=   9045 NMatT0=    0 NMatD0=    1 NMtDS0=    0 NMtDT0=    0
 Symmetry not used in FoFCou.
 Two-electron integral symmetry not used.
          MDV=     104857600 using IRadAn=       1.
          Solving linear equations simultaneously, MaxMat=       0.
 CoulSu:  requested number of processors reduced to:  13 ShMem   1 Linda.
 CoulSu:  requested number of processors reduced to:  13 ShMem   1 Linda.
          There are    21 degrees of freedom in the 1st order CPHF.  IDoFFX=6 NUNeed=     3.
     18 vectors produced by pass  0 Test12= 1.52D-14 4.76D-09 XBig12= 2.26D+02 1.45D+01.
 AX will form    18 AO Fock derivatives at one time.
 CoulSu:  requested number of processors reduced to:  15 ShMem   1 Linda.
 CoulSu:  requested number of processors reduced to:  14 ShMem   1 Linda.
     18 vectors produced by pass  1 Test12= 1.52D-14 4.76D-09 XBig12= 3.56D+01 2.19D+00.
 CoulSu:  requested number of processors reduced to:  15 ShMem   1 Linda.
 CoulSu:  requested number of processors reduced to:  14 ShMem   1 Linda.
     18 vectors produced by pass  2 Test12= 1.52D-14 4.76D-09 XBig12= 1.84D+00 3.15D-01.
 CoulSu:  requested number of processors reduced to:  15 ShMem   1 Linda.
 CoulSu:  requested number of processors reduced to:  14 ShMem   1 Linda.
     18 vectors produced by pass  3 Test12= 1.52D-14 4.76D-09 XBig12= 4.22D-02 4.30D-02.
 CoulSu:  requested number of processors reduced to:  15 ShMem   1 Linda.
 CoulSu:  requested number of processors reduced to:  14 ShMem   1 Linda.
     18 vectors produced by pass  4 Test12= 1.52D-14 4.76D-09 XBig12= 7.71D-04 8.89D-03.
 CoulSu:  requested number of processors reduced to:  15 ShMem   1 Linda.
 CoulSu:  requested number of processors reduced to:  14 ShMem   1 Linda.
     16 vectors produced by pass  5 Test12= 1.52D-14 4.76D-09 XBig12= 1.35D-06 2.60D-04.
 CoulSu:  requested number of processors reduced to:  15 ShMem   1 Linda.
 CoulSu:  requested number of processors reduced to:  15 ShMem   1 Linda.
      6 vectors produced by pass  6 Test12= 1.52D-14 4.76D-09 XBig12= 3.29D-09 1.02D-05.
[...]
  Atom  AN      X      Y      Z        X      Y      Z        X      Y      Z
     1   6    -0.00  -0.00  -0.00    -0.00   0.06  -0.08     0.00  -0.08  -0.06
     2   1     0.01  -0.41  -0.41    -0.00   0.09   0.07    -0.02   0.57   0.57
     3   1     0.01  -0.15   0.56     0.02  -0.19   0.73     0.01  -0.09   0.29
     4   1     0.01   0.56  -0.15    -0.02  -0.62   0.16     0.01   0.48  -0.14
     5  17    -0.00   0.00  -0.00     0.00  -0.00   0.00    -0.00   0.00   0.00
     6  35     0.00   0.00  -0.00    -0.00  -0.00   0.00    -0.00   0.00   0.00

 -------------------
 - Thermochemistry -
 -------------------
 Temperature   298.150 Kelvin.  Pressure   1.00000 Atm.
 Atom     1 has atomic number  6 and mass  12.00000
 Atom     2 has atomic number  1 and mass   1.00783
 Atom     3 has atomic number  1 and mass   1.00783
 Atom     4 has atomic number  1 and mass   1.00783
 Atom     5 has atomic number 17 and mass  34.96885
 Atom     6 has atomic number 35 and mass  78.91834
 Molecular mass:   128.91066 amu.
 Principal axes and moments of inertia in atomic units:
                           1         2         3
     Eigenvalues --    12.362582088.519202088.52969
           X            1.00000  -0.00002   0.00001
           Y            0.00002   0.99942   0.03409
           Z           -0.00001  -0.03409   0.99942
 This molecule is an asymmetric top.
 Rotational symmetry number  1.
 Rotational temperatures (Kelvin)      7.00614     0.04147     0.04147
 Rotational constants (GHZ):         145.98421     0.86412     0.86412
    1 imaginary frequencies ignored.
 Zero-point vibrational energy      96321.1 (Joules/Mol)
                                   23.02130 (Kcal/Mol)
 Warning -- explicit consideration of   3 degrees of freedom as
           vibrations may cause significant error
 Vibrational temperatures:    244.58   257.32   271.18  1267.33  1274.15
          (Kelvin)           1452.51  2018.38  2021.26  4601.87  4880.10
                             4880.86
 
 Zero-point correction=                           0.036687 (Hartree/Particle)
 Thermal correction to Energy=                    0.041467
 Thermal correction to Enthalpy=                  0.042412
 Thermal correction to Gibbs Free Energy=         0.007532
 Sum of electronic and zero-point Energies=          -3074.436191
 Sum of electronic and thermal Energies=             -3074.431410
 Sum of electronic and thermal Enthalpies=           -3074.430466
 Sum of electronic and thermal Free Energies=        -3074.465345
 
                     E (Thermal)             CV                S
                      KCal/Mol        Cal/Mol-Kelvin    Cal/Mol-Kelvin
 Total                   26.021             13.188             73.410
 Electronic               0.000              0.000              0.000
 Translational            0.889              2.981             40.475
 Rotational               0.889              2.981             25.492
 Vibrational             24.244              7.226              7.443
 Vibration     1          0.625              1.879              2.436
 Vibration     2          0.629              1.868              2.340
 Vibration     3          0.633              1.856              2.243
                       Q            Log10(Q)             Ln(Q)
 Total Bot       0.343071D-03         -3.464615         -7.977572
 Total V=0       0.257109D+14         13.410118         30.877938
 Vib (Bot)       0.717394D-16        -16.144242        -37.173492
 Vib (Bot)    1  0.118553D+01          0.073911          0.170187
 Vib (Bot)    2  0.112349D+01          0.050568          0.116436
 Vib (Bot)    3  0.106245D+01          0.026308          0.060576
 Vib (V=0)       0.537639D+01          0.730491          1.682018
 Vib (V=0)    1  0.178665D+01          0.252040          0.580343
 Vib (V=0)    2  0.172972D+01          0.237977          0.547962
 Vib (V=0)    3  0.167422D+01          0.223813          0.515349
 Electronic      0.100000D+01          0.000000          0.000000
 Translational   0.575290D+08          7.759887         17.867800
 Rotational      0.831265D+05          4.919740         11.328119
 
                                                         Title Card Required
                                                             IR Spectrum
 
     33      3                                                                 11              1                                     
     33      1                                                                 44              0   88                       111      
     99      9                                                                 00              1   88                       877      
     22      8                                                                 53              0   61                       890      
 
     XX      X                                                                 XX              X   XX                       XXX      
                                                                                               X                                     
                                                                                               X                                     
                                                                                               X                                     
                                                                                               X                                     
                                                                                               X                                     
                                                                                               X                                     
                                                                                               X                                     
                                                                                               X                                     
                                                                                               X                                     
                                                                                               X                                     
                                                                                               X                                     
                                                                                               X                                     
                                                                                               X                                     
                                                                                               X                                     
                                                                                               X                                     
                                                                                               X                                     
                                                                                               X                                     
                                                                                               X                                     
                                                                                               X                                     
 
 ***** Axes restored to original set *****
 -------------------------------------------------------------------
 Center     Atomic                   Forces (Hartrees/Bohr)
 Number     Number              X              Y              Z
 -------------------------------------------------------------------
      1        6          -0.000088218    0.000089294    0.000063563
      2        1          -0.000232196    0.000239399    0.000256358
      3        1          -0.000002637    0.000122807   -0.000021778
      4        1           0.000119334   -0.000045732    0.000173136
      5       17           0.000158658   -0.000217558   -0.000217297
      6       35           0.000045060   -0.000188210   -0.000253981
 -------------------------------------------------------------------
 Cartesian Forces:  Max     0.000256358 RMS     0.000163349
 Force constants in Cartesian coordinates: 
                1             2             3             4             5 
      1 -0.470053D-01
      2  0.687019D-03  0.679268D+00
      3  0.268650D-04  0.311338D-03  0.679566D+00
      4 -0.891039D-02  0.963633D-02  0.524940D-02  0.329987D-01
      5  0.797681D-02 -0.307329D+00 -0.137164D+00 -0.792533D-02  0.312057D+00
      6  0.439025D-02 -0.137207D+00 -0.128885D+00 -0.425494D-02  0.144617D+00
      7 -0.903788D-02 -0.881958D-02  0.514432D-02  0.267382D-02  0.829077D-03
      8 -0.748494D-02 -0.292367D+00  0.145821D+00 -0.872003D-03 -0.119985D-01
      9  0.483130D-02  0.145803D+00 -0.144565D+00 -0.460982D-03 -0.129223D-01
     10 -0.851155D-02 -0.475699D-03 -0.982654D-02  0.261961D-02  0.281501D-04
     11 -0.284607D-04 -0.552028D-01 -0.906689D-02 -0.854650D-03  0.430162D-02
     12 -0.848343D-02 -0.902720D-02 -0.382449D+00 -0.461800D-03  0.351573D-02
     13  0.376906D-01 -0.195866D-03 -0.835257D-04 -0.146879D-01  0.142690D-02
     14 -0.106901D-02 -0.122220D-01  0.662739D-04 -0.568856D-02  0.114916D-02
     15 -0.472328D-03  0.112278D-03 -0.114114D-01 -0.321017D-02  0.785889D-03
     16  0.357745D-01 -0.832207D-03 -0.510517D-03 -0.146939D-01 -0.233561D-02
     17 -0.814185D-04 -0.121477D-01  0.319928D-04  0.570421D-02  0.181998D-02
     18 -0.292659D-03  0.737957D-05 -0.122558D-01  0.313850D-02  0.116746D-02
                6             7             8             9            10 
      6  0.123460D+00
      7 -0.496733D-03  0.324959D-01
      8  0.141132D-01  0.794412D-02  0.295635D+00
      9  0.104273D-01 -0.494516D-02 -0.153942D+00  0.139565D+00
     10  0.965443D-03  0.260829D-02  0.215475D-04  0.963273D-03  0.323269D-01
     11 -0.234676D-01  0.802927D-03  0.534172D-02  0.228722D-01  0.278773D-03
     12 -0.576770D-02 -0.496739D-03 -0.411672D-02 -0.686317D-02  0.899754D-02
     13  0.683884D-03 -0.142224D-01 -0.159585D-02  0.100942D-02 -0.142372D-01
     14  0.800449D-03  0.565333D-02  0.100732D-02 -0.647714D-03  0.415644D-03
     15  0.205814D-03 -0.311394D-02 -0.739839D-03  0.998140D-03  0.640240D-02
     16 -0.128790D-02 -0.145177D-01  0.198712D-02 -0.139786D-02 -0.148061D-01
     17  0.114415D-02 -0.640988D-02  0.238113D-02 -0.116378D-02 -0.268415D-03
     18  0.560132D-03  0.390825D-02 -0.113589D-02  0.437182D-03 -0.750211D-02
               11            12            13            14            15 
     11  0.450310D-01
     12  0.977981D-02  0.389619D+00
     13 -0.110609D-03 -0.201239D-02  0.291181D-01
     14  0.568795D-03 -0.645156D-03  0.538685D-03  0.794004D-02
     15 -0.582949D-03  0.264255D-02  0.378511D-03  0.422972D-03  0.600535D-02
     16 -0.879801D-04  0.245682D-02 -0.236613D-01  0.149915D-03  0.155381D-04
     17 -0.402889D-04  0.493531D-03 -0.632598D-04  0.155666D-02  0.164880D-05
     18  0.465423D-03  0.281831D-02  0.241016D-04  0.317431D-05  0.155951D-02
               16            17            18 
     16  0.319045D-01
     17  0.111876D-02  0.643019D-02
     18  0.723920D-03 -0.507545D-03  0.688063D-02
 Red2BG is reusing G-inverse.
 Force constants in internal coordinates: 
                1             2             3             4             5 
      1  0.390624D+00
      2 -0.117497D-03  0.390432D+00
      3 -0.157241D-03 -0.143519D-03  0.390122D+00
      4 -0.200117D-02 -0.228615D-02 -0.238133D-02  0.291199D-01
      5 -0.225340D-02 -0.202369D-02 -0.205103D-02  0.236610D-01  0.318999D-01
      6  0.173018D-02  0.168421D-02 -0.329369D-02  0.261929D-03 -0.231169D-03
      7  0.163868D-02 -0.331068D-02  0.173811D-02  0.573344D-03 -0.549533D-03
      8 -0.202092D-02  0.137870D-02  0.162098D-02  0.565347D-02 -0.573673D-02
      9 -0.333782D-02  0.154518D-02  0.161479D-02 -0.486759D-02  0.383251D-02
     10 -0.331265D-02  0.166668D-02  0.160875D-02  0.548820D-03 -0.643002D-03
     11  0.123943D-02 -0.255486D-02  0.231881D-02  0.445230D-02 -0.454871D-02
     12  0.127579D-02 -0.327357D-02  0.158168D-02 -0.482547D-02  0.532418D-02
     13  0.136937D-02  0.158996D-02 -0.337202D-02  0.440560D-02 -0.464114D-02
     14  0.146545D-02  0.129824D-02 -0.373821D-02 -0.481708D-02  0.576840D-02
     15 -0.535874D-02  0.292388D-02  0.323576D-02  0.785881D-03 -0.190423D-02
     16  0.172713D-03  0.503350D-02 -0.634583D-02 -0.196617D-04  0.199402D-03
     17  0.773390D-03  0.578167D-03  0.459929D-03  0.167121D-01 -0.171882D-01
     18  0.176744D-02  0.174186D-02 -0.347945D-02 -0.201331D-03  0.240389D-03
     19 -0.162762D-02 -0.159732D-02  0.313469D-02  0.237496D-03 -0.240885D-03
     20 -0.167585D-02  0.346195D-02 -0.182346D-02 -0.783649D-04  0.389382D-04
     21  0.156430D-02 -0.318474D-02  0.163190D-02  0.127564D-03 -0.103597D-03
     22 -0.344329D-02  0.172009D-02  0.165599D-02  0.122967D-03 -0.201451D-03
     23  0.319191D-02 -0.158742D-02 -0.150278D-02 -0.109932D-03  0.137288D-03
                6             7             8             9            10 
      6  0.684328D-02
      7 -0.341809D-02  0.686136D-02
      8  0.537605D-03  0.733916D-03  0.292558D-01
      9 -0.433583D-03 -0.639636D-03 -0.145631D-01  0.292472D-01
     10 -0.342355D-02 -0.338480D-02 -0.850935D-03  0.682721D-03  0.686555D-02
     11  0.445717D-03 -0.834653D-03 -0.127888D-01  0.494487D-02  0.794316D-03
     12 -0.613240D-03  0.769183D-03  0.491471D-02 -0.127312D-01 -0.572800D-03
     13 -0.977574D-03  0.722320D-03 -0.120579D-01  0.552377D-02  0.659188D-03
     14  0.100261D-02 -0.730176D-03  0.523846D-02 -0.124240D-01 -0.694766D-03
     15  0.104022D-03  0.942801D-04  0.146927D-01  0.146841D-01 -0.168214D-03
     16  0.906236D-04  0.429407D-04  0.630374D-03  0.524871D-03 -0.137340D-03
     17  0.396754D-03  0.516637D-03  0.510348D-02 -0.473478D-02  0.501854D-03
     18  0.680778D-02 -0.341776D-02 -0.204123D-03  0.112344D-05 -0.342630D-02
     19 -0.680139D-02  0.341725D-02 -0.439632D-04 -0.410959D-03  0.342414D-02
     20  0.340305D-02 -0.680075D-02  0.141173D-03  0.181272D-03  0.337973D-02
     21 -0.339383D-02  0.680777D-02  0.344606D-03  0.517887D-04 -0.339294D-02
     22 -0.340473D-02 -0.338299D-02  0.345296D-03  0.180148D-03  0.680602D-02
     23  0.340756D-02  0.339052D-02  0.388569D-03  0.462747D-03 -0.681708D-02
               11            12            13            14            15 
     11  0.278603D-01
     12 -0.145760D-01  0.307398D-01
     13 -0.107937D-01  0.527740D-02  0.270600D-01
     14  0.536733D-02 -0.136081D-01 -0.150202D-01  0.304302D-01
     15 -0.784397D-02 -0.781649D-02 -0.653414D-02 -0.718549D-02  0.293768D-01
     16 -0.108174D-01 -0.141559D-01  0.101316D-01  0.136532D-01  0.115525D-02
     17  0.491510D-02 -0.506278D-02  0.481919D-02 -0.503970D-02  0.368699D-03
     18 -0.258842D-03 -0.164182D-03  0.698994D-04  0.517005D-03 -0.202999D-03
     19  0.531989D-04 -0.321115D-03  0.422301D-03  0.338330D-03 -0.454922D-03
     20 -0.325925D-03 -0.269141D-03 -0.136329D-04  0.264702D-03  0.322445D-03
     21 -0.359351D-03 -0.446362D-03  0.244105D-03  0.185306D-03  0.396395D-03
     22 -0.670832D-04 -0.104959D-03 -0.835323D-04 -0.252303D-03  0.525444D-03
     23 -0.412550D-03 -0.125247D-03 -0.178196D-03 -0.153025D-03  0.851316D-03
               16            17            18            19            20 
     16  0.281639D-01
     17 -0.405584D-04  0.170953D-01
     18  0.562207D-03 -0.626414D-04  0.683862D-02
     19  0.614462D-03  0.107878D-03 -0.681141D-02  0.685119D-02
     20  0.479685D-03 -0.289777D-04  0.341647D-02 -0.340448D-02  0.681811D-02
     21  0.723302D-03  0.659204D-04 -0.339770D-02  0.342027D-02 -0.678970D-02
     22 -0.825226D-04  0.336638D-04 -0.342215D-02  0.340693D-02  0.340164D-02
     23  0.108840D-03 -0.419574D-04  0.341371D-02 -0.343092D-02 -0.338522D-02
               21            22            23 
     21  0.682867D-02
     22 -0.339201D-02  0.682379D-02
     23  0.340840D-02 -0.679893D-02  0.683931D-02
 Leave Link  716 at Fri Oct 18 01:16:15 2019, MaxMem=   104857600 cpu:               6.6 elap:               0.3
 (Enter /share/home/wli/program/opt/Chem_soft/g16/l9999.exe)

 ----------------------------------------------------------------------

 Electric dipole moment (input orientation):
 (Debye = 10**-18 statcoulomb cm , SI units = C m)
                  (au)            (Debye)         (10**-30 SI)
   Tot        0.152233D+01      0.386939D+01      0.129069D+02
   x         -0.152232D+01     -0.386936D+01     -0.129068D+02
   y          0.698361D-03      0.177506D-02      0.592095D-02
   z         -0.575864D-02     -0.146370D-01     -0.488238D-01

 Dipole polarizability, Alpha (input orientation).
 (esu units = cm**3 , SI units = C**2 m**2 J**-1)
 Alpha(0;0):
               (au)            (10**-24 esu)      (10**-40 SI)
   iso        0.813417D+02      0.120536D+02      0.134114D+02
   aniso      0.113942D+03      0.168844D+02      0.187865D+02
   xx         0.157303D+03      0.233099D+02      0.259357D+02
   yx        -0.142624D-01     -0.211347D-02     -0.235155D-02
   yy         0.433696D+02      0.642671D+01      0.715068D+01
   zx        -0.397242D-01     -0.588653D-02     -0.654964D-02
   zy         0.126221D-01      0.187040D-02      0.208110D-02
   zz         0.433525D+02      0.642418D+01      0.714786D+01

 ----------------------------------------------------------------------

 Dipole orientation:
     6         -0.00942973          0.00056884         -1.37344510
     1         -0.97504730         -1.77601804         -1.42819584
     1         -1.06754721          1.72379070         -1.42482058
     1          2.01117375          0.05526370         -1.43457611
    17         -0.01226580          0.00194020         -5.92372878
    35          0.02355940         -0.00159597          3.24824546

 Electric dipole moment (dipole orientation):
 (Debye = 10**-18 statcoulomb cm , SI units = C m)
                  (au)            (Debye)         (10**-30 SI)
   Tot        0.152233D+01      0.386939D+01      0.129069D+02
   x          0.000000D+00      0.000000D+00      0.000000D+00
   y          0.000000D+00      0.000000D+00      0.000000D+00
   z          0.152233D+01      0.386939D+01      0.129069D+02

 Dipole polarizability, Alpha (dipole orientation).
 (esu units = cm**3 , SI units = C**2 m**2 J**-1)
 Alpha(0;0):
               (au)            (10**-24 esu)      (10**-40 SI)
   iso        0.813417D+02      0.120536D+02      0.134114D+02
   aniso      0.113942D+03      0.168844D+02      0.187865D+02
   xx         0.433545D+02      0.642447D+01      0.714818D+01
   yx         0.124669D-01      0.184741D-02      0.205552D-02
   yy         0.433696D+02      0.642671D+01      0.715068D+01
   zx         0.470756D+00      0.697589D-01      0.776172D-01
   zy        -0.382675D-01     -0.567066D-02     -0.630946D-02
   zz         0.157301D+03      0.233096D+02      0.259354D+02

 ----------------------------------------------------------------------


 THE UNDERLYING PHYSICAL LAWS NECESSARY FOR THE 
 MATHEMATICAL THEORY OF A LARGE PART OF PHYSICS AND THE
 WHOLE OF CHEMISTRY ARE THUS COMPLETELY KNOWN, AND THE
 DIFFICULTY IS ONLY THAT THE EXACT APPLICATION OF THESE
 LAWS LEADS TO EQUATIONS MUCH TOO COMPLICATED 
 TO BE SOLUBLE.

                                        -- P. A. M. DIRAC, 1929
 Error termination request processed by link 9999.
 Error termination via Lnk1e in /share/home/wli/program/opt/Chem_soft/g16/l9999.exe at Fri Oct 18 01:16:15 2019.
 Job cpu time:       0 days  5 hours 37 minutes 51.5 seconds.
 Elapsed time:       0 days  0 hours 16 minutes 19.7 seconds.
 File lengths (MBytes):  RWF=    272 Int=      0 D2E=      0 Chk=     32 Scr=     32
