 Entering Gaussian System, Link 0=g16
 Input=ts_def2tzvp_scrf_smd_benzene.gjf
 Output=ts_def2tzvp_scrf_smd_benzene.log
 Initial command:
 /share/home/wli/program/opt/Chem_soft/g16/l1.exe "/scratch/wli/Gau-30202.inp" -scrdir="/scratch/wli/"
 Entering Link 1 = /share/home/wli/program/opt/Chem_soft/g16/l1.exe PID=     30203.
  
 Copyright (c) 1988,1990,1992,1993,1995,1998,2003,2009,2016,
            Gaussian, Inc.  All Rights Reserved.
  
 This is part of the Gaussian(R) 16 program.  It is based on
 the Gaussian(R) 09 system (copyright 2009, Gaussian, Inc.),
 the Gaussian(R) 03 system (copyright 2003, Gaussian, Inc.),
 the Gaussian(R) 98 system (copyright 1998, Gaussian, Inc.),
 the Gaussian(R) 94 system (copyright 1995, Gaussian, Inc.),
 the Gaussian 92(TM) system (copyright 1992, Gaussian, Inc.),
 the Gaussian 90(TM) system (copyright 1990, Gaussian, Inc.),
 the Gaussian 88(TM) system (copyright 1988, Gaussian, Inc.),
 the Gaussian 86(TM) system (copyright 1986, Carnegie Mellon
 University), and the Gaussian 82(TM) system (copyright 1983,
 Carnegie Mellon University). Gaussian is a federally registered
 trademark of Gaussian, Inc.
  
 This software contains proprietary and confidential information,
 including trade secrets, belonging to Gaussian, Inc.
  
 This software is provided under written license and may be
 used, copied, transmitted, or stored only in accord with that
 written license.
  
 The following legend is applicable only to US Government
 contracts under FAR:
  
                    RESTRICTED RIGHTS LEGEND
  
 Use, reproduction and disclosure by the US Government is
 subject to restrictions as set forth in subparagraphs (a)
 and (c) of the Commercial Computer Software - Restricted
 Rights clause in FAR 52.227-19.
  
 Gaussian, Inc.
 340 Quinnipiac St., Bldg. 40, Wallingford CT 06492
  
  
 ---------------------------------------------------------------
 Warning -- This program may not be used in any manner that
 competes with the business of Gaussian, Inc. or will provide
 assistance to any competitor of Gaussian, Inc.  The licensee
 of this program is prohibited from giving any competitor of
 Gaussian, Inc. access to this program.  By using this program,
 the user acknowledges that Gaussian, Inc. is engaged in the
 business of creating and licensing software in the field of
 computational chemistry and represents and warrants to the
 licensee that it is not a competitor of Gaussian, Inc. and that
 it will not use this program in any manner prohibited above.
 ---------------------------------------------------------------
  

 Cite this work as:
 Gaussian 16, Revision A.03,
 M. J. Frisch, G. W. Trucks, H. B. Schlegel, G. E. Scuseria, 
 M. A. Robb, J. R. Cheeseman, G. Scalmani, V. Barone, 
 G. A. Petersson, H. Nakatsuji, X. Li, M. Caricato, A. V. Marenich, 
 J. Bloino, B. G. Janesko, R. Gomperts, B. Mennucci, H. P. Hratchian, 
 J. V. Ortiz, A. F. Izmaylov, J. L. Sonnenberg, D. Williams-Young, 
 F. Ding, F. Lipparini, F. Egidi, J. Goings, B. Peng, A. Petrone, 
 T. Henderson, D. Ranasinghe, V. G. Zakrzewski, J. Gao, N. Rega, 
 G. Zheng, W. Liang, M. Hada, M. Ehara, K. Toyota, R. Fukuda, 
 J. Hasegawa, M. Ishida, T. Nakajima, Y. Honda, O. Kitao, H. Nakai, 
 T. Vreven, K. Throssell, J. A. Montgomery, Jr., J. E. Peralta, 
 F. Ogliaro, M. J. Bearpark, J. J. Heyd, E. N. Brothers, K. N. Kudin, 
 V. N. Staroverov, T. A. Keith, R. Kobayashi, J. Normand, 
 K. Raghavachari, A. P. Rendell, J. C. Burant, S. S. Iyengar, 
 J. Tomasi, M. Cossi, J. M. Millam, M. Klene, C. Adamo, R. Cammi, 
 J. W. Ochterski, R. L. Martin, K. Morokuma, O. Farkas, 
 J. B. Foresman, and D. J. Fox, Gaussian, Inc., Wallingford CT, 2016.
 
 ******************************************
 Gaussian 16:  ES64L-G16RevA.03 25-Dec-2016
                18-Oct-2019 
 ******************************************
 %chk=ts_smd_benzene_maugccpvtz.chk
 %nprocshared=24
 Will use up to   24 processors via shared memory.
 ----------------------------------------------------------------------
 #p opt=(calcall,ts,noeigen) freq b3lyp def2tzvp em=gd3bj scrf=(smd,sol
 vent=benzene)
 ----------------------------------------------------------------------
 1/5=1,10=4,11=1,18=20,26=3,38=1/1,3;
 2/9=110,12=2,17=6,18=5,40=1/2;
 3/5=44,7=101,11=2,25=1,30=1,70=32201,71=2,72=12,74=-5,124=41,140=1/1,2,3;
 4//1;
 5/5=2,38=5,53=12/2;
 8/6=4,10=90,11=11/1;
 11/6=1,8=1,9=11,15=111,16=1/1,2,10;
 10/6=1/2;
 6/7=2,8=2,9=2,10=2,18=1,28=1/1;
 7/10=1,25=1/1,2,3,16;
 1/5=1,10=4,11=1,18=20,26=3/3(3);
 2/9=110/2;
 7/8=1,9=1,25=1,44=-1/16;
 99//99;
 2/9=110/2;
 3/5=44,7=101,11=2,25=1,30=1,70=32205,71=2,72=12,74=-5,124=41,140=1/1,2,3;
 4/5=5,16=3,69=1/1;
 5/5=2,38=5,53=12/2;
 8/6=4,10=90,11=11/1;
 11/6=1,8=1,9=11,15=111,16=1/1,2,10;
 10/6=1/2;
 7/10=1,25=1/1,2,3,16;
 1/5=1,10=4,11=1,18=20,26=3/3(-8);
 2/9=110/2;
 6/7=2,8=2,9=2,10=2,18=1,19=2,28=1/1;
 7/8=1,9=1,25=1,44=-1/16;
 99//99;
 Leave Link    1 at Fri Oct 18 01:01:16 2019, MaxMem=           0 cpu:               9.3 elap:               0.4
 (Enter /share/home/wli/program/opt/Chem_soft/g16/l101.exe)
 -------------------
 Title Card Required
 -------------------
 Symbolic Z-matrix:
 Charge = -1 Multiplicity = 1
 C                     0.7043    0.00002   0.00027 
 H                     0.7584   -0.9393   -0.50874 
 H                     0.7584    0.91052  -0.55864 
 H                     0.75836   0.02883   1.06826 
 Cl                    3.14574  0.        -0.00007 
 Br                   -1.71367  0.        -0.00004 
 
 Add virtual bond connecting atoms Br6        and C1         Dist= 4.57D+00.
 Add virtual bond connecting atoms Cl5        and C1         Dist= 4.61D+00.
 ITRead=  0  0  0  0  0  0
 MicOpt= -1 -1 -1 -1 -1 -1
 NAtoms=      6 NQM=        6 NQMF=       0 NMMI=      0 NMMIF=      0
                NMic=       0 NMicF=      0.
                    Isotopes and Nuclear Properties:
 (Nuclear quadrupole moments (NQMom) in fm**2, nuclear magnetic moments (NMagM)
  in nuclear magnetons)

  Atom         1           2           3           4           5           6
 IAtWgt=          12           1           1           1          35          79
 AtmWgt=  12.0000000   1.0078250   1.0078250   1.0078250  34.9688527  78.9183361
 NucSpn=           0           1           1           1           3           3
 AtZEff=  -0.0000000  -0.0000000  -0.0000000  -0.0000000  -0.0000000  -0.0000000
 NQMom=    0.0000000   0.0000000   0.0000000   0.0000000  -8.1650000  31.3000000
 NMagM=    0.0000000   2.7928460   2.7928460   2.7928460   0.8218740   2.1063990
 AtZNuc=   6.0000000   1.0000000   1.0000000   1.0000000  17.0000000  35.0000000
 Leave Link  101 at Fri Oct 18 01:01:16 2019, MaxMem=   104857600 cpu:               4.6 elap:               0.2
 (Enter /share/home/wli/program/opt/Chem_soft/g16/l103.exe)

 GradGradGradGradGradGradGradGradGradGradGradGradGradGradGradGradGradGrad
 Berny optimization.
 Initialization pass.
                           ----------------------------
                           !    Initial Parameters    !
                           ! (Angstroms and Degrees)  !
 --------------------------                            --------------------------
 ! Name  Definition              Value          Derivative Info.                !
 --------------------------------------------------------------------------------
 ! R1    R(1,2)                  1.0697         calculate D2E/DX2 analytically  !
 ! R2    R(1,3)                  1.0697         calculate D2E/DX2 analytically  !
 ! R3    R(1,4)                  1.0697         calculate D2E/DX2 analytically  !
 ! R4    R(1,5)                  2.4414         calculate D2E/DX2 analytically  !
 ! R5    R(1,6)                  2.418          calculate D2E/DX2 analytically  !
 ! A1    A(2,1,3)              119.75           calculate D2E/DX2 analytically  !
 ! A2    A(2,1,4)              119.7451         calculate D2E/DX2 analytically  !
 ! A3    A(2,1,5)               87.097          calculate D2E/DX2 analytically  !
 ! A4    A(2,1,6)               92.895          calculate D2E/DX2 analytically  !
 ! A5    A(3,1,4)              119.7448         calculate D2E/DX2 analytically  !
 ! A6    A(3,1,5)               87.0974         calculate D2E/DX2 analytically  !
 ! A7    A(3,1,6)               92.8953         calculate D2E/DX2 analytically  !
 ! A8    A(4,1,5)               87.1112         calculate D2E/DX2 analytically  !
 ! A9    A(4,1,6)               92.9041         calculate D2E/DX2 analytically  !
 ! A10   L(5,1,6,2,-1)         179.9919         calculate D2E/DX2 analytically  !
 ! A11   L(5,1,6,2,-2)         180.0131         calculate D2E/DX2 analytically  !
 ! D1    D(2,1,4,3)            169.9907         calculate D2E/DX2 analytically  !
 ! D2    D(2,1,5,3)            120.0042         calculate D2E/DX2 analytically  !
 ! D3    D(2,1,6,3)           -120.0028         calculate D2E/DX2 analytically  !
 ! D4    D(2,1,5,4)           -119.998          calculate D2E/DX2 analytically  !
 ! D5    D(2,1,6,4)            119.9987         calculate D2E/DX2 analytically  !
 ! D6    D(3,1,5,4)            119.9978         calculate D2E/DX2 analytically  !
 ! D7    D(3,1,6,4)           -119.9985         calculate D2E/DX2 analytically  !
 --------------------------------------------------------------------------------
 Trust Radius=3.00D-01 FncErr=1.00D-07 GrdErr=1.00D-06 EigMax=2.50D+02 EigMin=1.00D-04
 Number of steps in this run=     33 maximum allowed number of steps=    100.
 Search for a saddle point of order  1.
 GradGradGradGradGradGradGradGradGradGradGradGradGradGradGradGradGradGrad

 Leave Link  103 at Fri Oct 18 01:01:16 2019, MaxMem=   104857600 cpu:               0.7 elap:               0.0
 (Enter /share/home/wli/program/opt/Chem_soft/g16/l202.exe)
                          Input orientation:                          
 ---------------------------------------------------------------------
 Center     Atomic      Atomic             Coordinates (Angstroms)
 Number     Number       Type             X           Y           Z
 ---------------------------------------------------------------------
      1          6           0        0.704300    0.000015    0.000271
      2          1           0        0.758398   -0.939298   -0.508737
      3          1           0        0.758398    0.910520   -0.558639
      4          1           0        0.758363    0.028828    1.068261
      5         17           0        3.145737   -0.000004   -0.000074
      6         35           0       -1.713671   -0.000002   -0.000036
 ---------------------------------------------------------------------
                    Distance matrix (angstroms):
                    1          2          3          4          5
     1  C    0.000000
     2  H    1.069731   0.000000
     3  H    1.069732   1.850491   0.000000
     4  H    1.069746   1.850457   1.850455   0.000000
     5  Cl   2.441437   2.615416   2.615423   2.615669   0.000000
     6  Br   2.417971   2.692987   2.692993   2.693147   4.859408
                    6
     6  Br   0.000000
 This structure is nearly, but not quite of a higher symmetry.
 Consider Symm=Loose if the higher symmetry is desired.
 Stoichiometry    CH3BrCl(1-)
 Framework group  C1[X(CH3BrCl)]
 Deg. of freedom    12
 Full point group                 C1      NOp   1
 Largest Abelian subgroup         C1      NOp   1
 Largest concise Abelian subgroup C1      NOp   1
                         Standard orientation:                         
 ---------------------------------------------------------------------
 Center     Atomic      Atomic             Coordinates (Angstroms)
 Number     Number       Type             X           Y           Z
 ---------------------------------------------------------------------
      1          6           0        0.000249    0.003906    0.704289
      2          1           0       -0.513980    0.940658    0.753158
      3          1           0       -0.553586   -0.909380    0.763454
      4          1           0        1.068382   -0.018660    0.758512
      5         17           0       -0.000171    0.017512    3.145688
      6         35           0        0.000017   -0.009536   -1.713645
 ---------------------------------------------------------------------
 Rotational constants (GHZ):         146.4430850           0.8630335           0.8630334
 Leave Link  202 at Fri Oct 18 01:01:16 2019, MaxMem=   104857600 cpu:               1.8 elap:               0.1
 (Enter /share/home/wli/program/opt/Chem_soft/g16/l301.exe)
 Standard basis: def2TZVP (5D, 7F)
 Ernie: Thresh=  0.10000D-02 Tol=  0.10000D-05 Strict=F.
 There are   151 symmetry adapted cartesian basis functions of A   symmetry.
 There are   134 symmetry adapted basis functions of A   symmetry.
   134 basis functions,   258 primitive gaussians,   151 cartesian basis functions
    31 alpha electrons       31 beta electrons
       nuclear repulsion energy       173.5741035171 Hartrees.
 IExCor=  402 DFT=T Ex+Corr=B3LYP ExCW=0 ScaHFX=  0.200000
 ScaDFX=  0.800000  0.720000  1.000000  0.810000 ScalE2=  1.000000  1.000000
 IRadAn=      5 IRanWt=     -1 IRanGd=            0 ICorTp=0 IEmpDi=141
 NAtoms=    6 NActive=    6 NUniq=    6 SFac= 1.00D+00 NAtFMM=   60 NAOKFM=F Big=F
 Integral buffers will be    131072 words long.
 Raffenetti 2 integral format.
 Two-electron integral symmetry is turned on.
 R6Disp:  Grimme-D3(BJ) Dispersion energy=       -0.0069969608 Hartrees.
 Nuclear repulsion after empirical dispersion term =      173.5671065563 Hartrees.
 Force inversion solution in PCM.
 ------------------------------------------------------------------------------
 Polarizable Continuum Model (PCM)
 =================================
 Model                : PCM.
 Atomic radii         : SMD-Coulomb.
 Polarization charges : Total charges.
 Charge compensation  : None.
 Solution method      : Matrix inversion.
 Cavity type          : VdW (van der Waals Surface) (Alpha=1.000).
 Cavity algorithm     : GePol (No added spheres)
                        Default sphere list used, NSphG=    6.
                        Lebedev-Laikov grids with approx.  5.0 points / Ang**2.
                        Smoothing algorithm: York/Karplus (Gamma=1.0000).
                        Polarization charges: spherical gaussians, with
                                              point-specific exponents (IZeta= 3).
                        Self-potential: point-specific (ISelfS= 7).
                        Self-field    : sphere-specific E.n sum rule (ISelfD= 2).
 1st derivatives      : Analytical E(r).r(x)/FMM algorithm (CHGder, D1EAlg=3).
                        Cavity 1st derivative terms included.
 2nd derivatives      : Analytical E(r).r(xy)/FMM algorithm (CHGder, D2EAlg=3).
                        Cavity 2nd derivative terms included.
 Solvent              : Benzene, Eps=   2.270600 Eps(inf)=   2.253301
 ------------------------------------------------------------------------------
 Spheres list:
 ISph  on   Nord     Re0    Alpha      Xe            Ye            Ze
    1   C      1    1.8500  1.000      0.000249      0.003906      0.704289
    2   H      2    1.2000  1.000     -0.513980      0.940658      0.753158
    3   H      3    1.2000  1.000     -0.553586     -0.909380      0.763454
    4   H      4    1.2000  1.000      1.068382     -0.018660      0.758512
    5  Cl      5    2.3800  1.000     -0.000171      0.017512      3.145688
    6  Br      6    3.0600  1.000      0.000017     -0.009536     -1.713645
 ------------------------------------------------------------------------------
 GePol: Number of generator spheres                  =       6
 GePol: Total number of spheres                      =       6
 GePol: Number of exposed spheres                    =       6 (100.00%)
 GePol: Number of points                             =    1023
 GePol: Average weight of points                     =       0.17
 GePol: Minimum weight of points                     =   0.23D-06
 GePol: Maximum weight of points                     =    0.22025
 GePol: Number of points with low weight             =      16
 GePol: Fraction of low-weight points (<1% of avg)   =       1.56%
 GePol: Cavity surface area                          =    176.412 Ang**2
 GePol: Cavity volume                                =    179.468 Ang**3
 ------------------------------------------------------------------------------
 Atomic radii for non-electrostatic terms: SMD-CDS.
 ------------------------------------------------------------------------------
 PCM non-electrostatic energy =        -0.0053903752 Hartrees.
 Nuclear repulsion after PCM non-electrostatic terms =      173.5617161811 Hartrees.
 Leave Link  301 at Fri Oct 18 01:01:16 2019, MaxMem=   104857600 cpu:               3.9 elap:               0.2
 (Enter /share/home/wli/program/opt/Chem_soft/g16/l302.exe)
 NPDir=0 NMtPBC=     1 NCelOv=     1 NCel=       1 NClECP=     1 NCelD=      1
         NCelK=      1 NCelE2=     1 NClLst=     1 CellRange=     0.0.
 One-electron integrals computed using PRISM.
 One-electron integral symmetry used in STVInt
 PrsmSu:  requested number of processors reduced to:  13 ShMem   1 Linda.
   1 Symmetry operations used in ECPInt.
 ECPInt:  NShTT=    1378 NPrTT=    5593 LenC2=    1324 LenP2D=    4259.
 LDataN:  DoStor=T MaxTD1= 6 Len=  172
 NBasis=   134 RedAO= T EigKep=  1.43D-03  NBF=   134
 NBsUse=   134 1.00D-06 EigRej= -1.00D+00 NBFU=   134
 Precomputing XC quadrature grid using
 IXCGrd= 4 IRadAn=           5 IRanWt=          -1 IRanGd=           0 AccXCQ= 0.00D+00.
 Generated NRdTot=       0 NPtTot=           0 NUsed=           0 NTot=          32
 NSgBfM=   150   150   150   150   150 MxSgAt=     6 MxSgA2=     6.
 Leave Link  302 at Fri Oct 18 01:01:17 2019, MaxMem=   104857600 cpu:              24.3 elap:               1.1
 (Enter /share/home/wli/program/opt/Chem_soft/g16/l303.exe)
 DipDrv:  MaxL=1.
 Leave Link  303 at Fri Oct 18 01:01:18 2019, MaxMem=   104857600 cpu:               3.5 elap:               0.2
 (Enter /share/home/wli/program/opt/Chem_soft/g16/l401.exe)
 ExpMin= 9.52D-02 ExpMax= 5.65D+05 ExpMxC= 5.46D+03 IAcc=3 IRadAn=         5 AccDes= 0.00D+00
 Harris functional with IExCor=  402 and IRadAn=       5 diagonalized for initial guess.
 HarFok:  IExCor=  402 AccDes= 0.00D+00 IRadAn=         5 IDoV= 1 UseB2=F ITyADJ=14
 ICtDFT=  3500011 ScaDFX=  1.000000  1.000000  1.000000  1.000000
 FoFCou: FMM=F IPFlag=           0 FMFlag=      100000 FMFlg1=           0
         NFxFlg=           0 DoJE=T BraDBF=F KetDBF=T FulRan=T
         wScrn=  0.000000 ICntrl=       500 IOpCl=  0 I1Cent=   200000004 NGrid=           0
         NMat0=    1 NMatS0=      1 NMatT0=    0 NMatD0=    1 NMtDS0=    0 NMtDT0=    0
 Petite list used in FoFCou.
 Harris En= -3074.57116793874    
 JPrj=0 DoOrth=F DoCkMO=F.
 Leave Link  401 at Fri Oct 18 01:01:18 2019, MaxMem=   104857600 cpu:               9.0 elap:               0.4
 (Enter /share/home/wli/program/opt/Chem_soft/g16/l502.exe)
 Keep R1 ints in memory in canonical form, NReq=64315121.
 FoFCou: FMM=F IPFlag=           0 FMFlag=           0 FMFlg1=           0
         NFxFlg=           0 DoJE=F BraDBF=F KetDBF=F FulRan=T
         wScrn=  0.000000 ICntrl=       600 IOpCl=  0 I1Cent=           0 NGrid=           0
         NMat0=    1 NMatS0=   9045 NMatT0=    0 NMatD0=    1 NMtDS0=    0 NMtDT0=    0
 Symmetry not used in FoFCou.
 Two-electron integral symmetry not used.
 Closed shell SCF:
 Using DIIS extrapolation, IDIIS=  1040.
 NGot=   104857600 LenX=    63896377 LenY=    63873135
 Requested convergence on RMS density matrix=1.00D-08 within 128 cycles.
 Requested convergence on MAX density matrix=1.00D-06.
 Requested convergence on             energy=1.00D-06.
 No special actions if energy rises.

 Cycle   1  Pass 1  IDiag  1:
 CoulSu:  requested number of processors reduced to:  17 ShMem   1 Linda.
 Inv3:  Mode=1 IEnd=     3139587.
 Iteration    1 A*A^-1 deviation from unit magnitude is 2.44D-15 for    889.
 Iteration    1 A*A^-1 deviation from orthogonality  is 1.22D-15 for    982    765.
 Iteration    1 A^-1*A deviation from unit magnitude is 2.33D-15 for   1017.
 Iteration    1 A^-1*A deviation from orthogonality  is 1.15D-15 for   1015   1014.
 CoulSu:  requested number of processors reduced to:  17 ShMem   1 Linda.
 CoulSu:  requested number of processors reduced to:  17 ShMem   1 Linda.
 E= -3074.37713470789    
 DIIS: error= 5.06D-02 at cycle   1 NSaved=   1.
 NSaved= 1 IEnMin= 1 EnMin= -3074.37713470789     IErMin= 1 ErrMin= 5.06D-02
 ErrMax= 5.06D-02  0.00D+00 EMaxC= 1.00D-01 BMatC= 2.15D-01 BMatP= 2.15D-01
 IDIUse=3 WtCom= 4.94D-01 WtEn= 5.06D-01
 Coeff-Com:  0.100D+01
 Coeff-En:   0.100D+01
 Coeff:      0.100D+01
 Gap=     0.313 Goal=   None    Shift=    0.000
 GapD=    0.313 DampG=1.000 DampE=0.500 DampFc=0.5000 IDamp=-1.
 Damping current iteration by 5.00D-01
 RMSDP=4.52D-03 MaxDP=1.33D-01              OVMax= 2.74D-01

 Cycle   2  Pass 1  IDiag  1:
 E= -3074.42219516751     Delta-E=       -0.045060459620 Rises=F Damp=T
 DIIS: error= 2.05D-02 at cycle   2 NSaved=   2.
 NSaved= 2 IEnMin= 2 EnMin= -3074.42219516751     IErMin= 2 ErrMin= 2.05D-02
 ErrMax= 2.05D-02  0.00D+00 EMaxC= 1.00D-01 BMatC= 2.58D-02 BMatP= 2.15D-01
 IDIUse=3 WtCom= 7.95D-01 WtEn= 2.05D-01
 Coeff-Com: -0.197D+00 0.120D+01
 Coeff-En:   0.331D-02 0.997D+00
 Coeff:     -0.156D+00 0.116D+01
 Gap=     0.186 Goal=   None    Shift=    0.000
 RMSDP=1.48D-03 MaxDP=3.92D-02 DE=-4.51D-02 OVMax= 1.99D-01

 Cycle   3  Pass 1  IDiag  1:
 E= -3074.44990907403     Delta-E=       -0.027713906518 Rises=F Damp=F
 DIIS: error= 1.39D-02 at cycle   3 NSaved=   3.
 NSaved= 3 IEnMin= 3 EnMin= -3074.44990907403     IErMin= 3 ErrMin= 1.39D-02
 ErrMax= 1.39D-02  0.00D+00 EMaxC= 1.00D-01 BMatC= 2.08D-02 BMatP= 2.58D-02
 IDIUse=3 WtCom= 8.61D-01 WtEn= 1.39D-01
 Coeff-Com: -0.197D+00 0.658D+00 0.539D+00
 Coeff-En:   0.000D+00 0.000D+00 0.100D+01
 Coeff:     -0.169D+00 0.566D+00 0.603D+00
 Gap=     0.206 Goal=   None    Shift=    0.000
 RMSDP=1.06D-03 MaxDP=2.70D-02 DE=-2.77D-02 OVMax= 1.21D-01

 Cycle   4  Pass 1  IDiag  1:
 E= -3074.46917929083     Delta-E=       -0.019270216803 Rises=F Damp=F
 DIIS: error= 5.51D-03 at cycle   4 NSaved=   4.
 NSaved= 4 IEnMin= 4 EnMin= -3074.46917929083     IErMin= 4 ErrMin= 5.51D-03
 ErrMax= 5.51D-03  0.00D+00 EMaxC= 1.00D-01 BMatC= 3.55D-03 BMatP= 2.08D-02
 IDIUse=3 WtCom= 9.45D-01 WtEn= 5.51D-02
 Coeff-Com: -0.203D-01 0.764D-01 0.307D+00 0.637D+00
 Coeff-En:   0.000D+00 0.000D+00 0.177D+00 0.823D+00
 Coeff:     -0.192D-01 0.721D-01 0.300D+00 0.647D+00
 Gap=     0.196 Goal=   None    Shift=    0.000
 RMSDP=4.03D-04 MaxDP=1.14D-02 DE=-1.93D-02 OVMax= 3.65D-02

 Cycle   5  Pass 1  IDiag  1:
 E= -3074.47321019636     Delta-E=       -0.004030905528 Rises=F Damp=F
 DIIS: error= 9.87D-04 at cycle   5 NSaved=   5.
 NSaved= 5 IEnMin= 5 EnMin= -3074.47321019636     IErMin= 5 ErrMin= 9.87D-04
 ErrMax= 9.87D-04  0.00D+00 EMaxC= 1.00D-01 BMatC= 1.54D-04 BMatP= 3.55D-03
 IDIUse=3 WtCom= 9.90D-01 WtEn= 9.87D-03
 Coeff-Com: -0.108D-01 0.230D-01 0.153D+00 0.344D+00 0.491D+00
 Coeff-En:   0.000D+00 0.000D+00 0.000D+00 0.000D+00 0.100D+01
 Coeff:     -0.107D-01 0.228D-01 0.151D+00 0.340D+00 0.496D+00
 Gap=     0.196 Goal=   None    Shift=    0.000
 RMSDP=1.12D-04 MaxDP=4.22D-03 DE=-4.03D-03 OVMax= 7.58D-03

 Cycle   6  Pass 1  IDiag  1:
 E= -3074.47333409385     Delta-E=       -0.000123897497 Rises=F Damp=F
 DIIS: error= 1.96D-04 at cycle   6 NSaved=   6.
 NSaved= 6 IEnMin= 6 EnMin= -3074.47333409385     IErMin= 6 ErrMin= 1.96D-04
 ErrMax= 1.96D-04  0.00D+00 EMaxC= 1.00D-01 BMatC= 6.89D-06 BMatP= 1.54D-04
 IDIUse=3 WtCom= 9.98D-01 WtEn= 1.96D-03
 Coeff-Com: -0.171D-02 0.191D-02 0.320D-01 0.734D-01 0.208D+00 0.686D+00
 Coeff-En:   0.000D+00 0.000D+00 0.000D+00 0.000D+00 0.000D+00 0.100D+01
 Coeff:     -0.171D-02 0.191D-02 0.319D-01 0.733D-01 0.208D+00 0.687D+00
 Gap=     0.196 Goal=   None    Shift=    0.000
 RMSDP=2.75D-05 MaxDP=8.06D-04 DE=-1.24D-04 OVMax= 2.33D-03

 Cycle   7  Pass 1  IDiag  1:
 E= -3074.47334075568     Delta-E=       -0.000006661821 Rises=F Damp=F
 DIIS: error= 1.10D-04 at cycle   7 NSaved=   7.
 NSaved= 7 IEnMin= 7 EnMin= -3074.47334075568     IErMin= 7 ErrMin= 1.10D-04
 ErrMax= 1.10D-04  0.00D+00 EMaxC= 1.00D-01 BMatC= 9.09D-07 BMatP= 6.89D-06
 IDIUse=3 WtCom= 9.99D-01 WtEn= 1.10D-03
 Coeff-Com:  0.460D-03-0.133D-02-0.394D-02-0.101D-01 0.343D-01 0.331D+00
 Coeff-Com:  0.649D+00
 Coeff-En:   0.000D+00 0.000D+00 0.000D+00 0.000D+00 0.000D+00 0.425D-01
 Coeff-En:   0.958D+00
 Coeff:      0.459D-03-0.133D-02-0.393D-02-0.101D-01 0.342D-01 0.331D+00
 Coeff:      0.650D+00
 Gap=     0.196 Goal=   None    Shift=    0.000
 RMSDP=8.15D-06 MaxDP=3.52D-04 DE=-6.66D-06 OVMax= 4.87D-04

 Cycle   8  Pass 1  IDiag  1:
 E= -3074.47334161040     Delta-E=       -0.000000854726 Rises=F Damp=F
 DIIS: error= 7.20D-06 at cycle   8 NSaved=   8.
 NSaved= 8 IEnMin= 8 EnMin= -3074.47334161040     IErMin= 8 ErrMin= 7.20D-06
 ErrMax= 7.20D-06  0.00D+00 EMaxC= 1.00D-01 BMatC= 7.35D-09 BMatP= 9.09D-07
 IDIUse=1 WtCom= 1.00D+00 WtEn= 0.00D+00
 Coeff-Com:  0.128D-03-0.251D-03-0.124D-02-0.334D-02-0.134D-02 0.242D-01
 Coeff-Com:  0.121D+00 0.861D+00
 Coeff:      0.128D-03-0.251D-03-0.124D-02-0.334D-02-0.134D-02 0.242D-01
 Coeff:      0.121D+00 0.861D+00
 Gap=     0.196 Goal=   None    Shift=    0.000
 RMSDP=9.00D-07 MaxDP=2.89D-05 DE=-8.55D-07 OVMax= 5.59D-05

 Cycle   9  Pass 1  IDiag  1:
 E= -3074.47334161898     Delta-E=       -0.000000008582 Rises=F Damp=F
 DIIS: error= 2.03D-06 at cycle   9 NSaved=   9.
 NSaved= 9 IEnMin= 9 EnMin= -3074.47334161898     IErMin= 9 ErrMin= 2.03D-06
 ErrMax= 2.03D-06  0.00D+00 EMaxC= 1.00D-01 BMatC= 5.39D-10 BMatP= 7.35D-09
 IDIUse=1 WtCom= 1.00D+00 WtEn= 0.00D+00
 Coeff-Com:  0.520D-04-0.936D-04-0.369D-03-0.101D-02-0.163D-02-0.132D-02
 Coeff-Com:  0.218D-01 0.328D+00 0.654D+00
 Coeff:      0.520D-04-0.936D-04-0.369D-03-0.101D-02-0.163D-02-0.132D-02
 Coeff:      0.218D-01 0.328D+00 0.654D+00
 Gap=     0.196 Goal=   None    Shift=    0.000
 RMSDP=1.44D-07 MaxDP=3.53D-06 DE=-8.58D-09 OVMax= 5.82D-06

 Cycle  10  Pass 1  IDiag  1:
 E= -3074.47334161952     Delta-E=       -0.000000000539 Rises=F Damp=F
 DIIS: error= 4.15D-07 at cycle  10 NSaved=  10.
 NSaved=10 IEnMin=10 EnMin= -3074.47334161952     IErMin=10 ErrMin= 4.15D-07
 ErrMax= 4.15D-07  0.00D+00 EMaxC= 1.00D-01 BMatC= 1.93D-11 BMatP= 5.39D-10
 IDIUse=1 WtCom= 1.00D+00 WtEn= 0.00D+00
 Coeff-Com:  0.538D-05-0.109D-04 0.386D-05-0.176D-04-0.376D-03-0.205D-02
 Coeff-Com: -0.499D-02 0.202D-01 0.119D+00 0.868D+00
 Coeff:      0.538D-05-0.109D-04 0.386D-05-0.176D-04-0.376D-03-0.205D-02
 Coeff:     -0.499D-02 0.202D-01 0.119D+00 0.868D+00
 Gap=     0.196 Goal=   None    Shift=    0.000
 RMSDP=4.39D-08 MaxDP=1.18D-06 DE=-5.39D-10 OVMax= 2.90D-06

 Cycle  11  Pass 1  IDiag  1:
 E= -3074.47334161954     Delta-E=       -0.000000000020 Rises=F Damp=F
 DIIS: error= 5.55D-08 at cycle  11 NSaved=  11.
 NSaved=11 IEnMin=11 EnMin= -3074.47334161954     IErMin=11 ErrMin= 5.55D-08
 ErrMax= 5.55D-08  0.00D+00 EMaxC= 1.00D-01 BMatC= 3.44D-13 BMatP= 1.93D-11
 IDIUse=1 WtCom= 1.00D+00 WtEn= 0.00D+00
 Coeff-Com: -0.733D-07 0.667D-07 0.385D-05 0.595D-05-0.249D-04-0.244D-03
 Coeff-Com: -0.811D-03-0.152D-02 0.895D-02 0.179D+00 0.815D+00
 Coeff:     -0.733D-07 0.667D-07 0.385D-05 0.595D-05-0.249D-04-0.244D-03
 Coeff:     -0.811D-03-0.152D-02 0.895D-02 0.179D+00 0.815D+00
 Gap=     0.196 Goal=   None    Shift=    0.000
 RMSDP=5.28D-09 MaxDP=1.45D-07 DE=-1.96D-11 OVMax= 4.40D-07

 CoulSu:  requested number of processors reduced to:  17 ShMem   1 Linda.
 CoulSu:  requested number of processors reduced to:  16 ShMem   1 Linda.
 Error on total polarization charges =  0.00239
 SCF Done:  E(RB3LYP) =  -3074.47334162     A.U. after   11 cycles
            NFock= 11  Conv=0.53D-08     -V/T= 2.0015
 KE= 3.069811965547D+03 PE=-7.700072982431D+03 EE= 1.382225959084D+03
 SMD-CDS (non-electrostatic) energy       (kcal/mol) =      -3.38
 (included in total energy above)
 Leave Link  502 at Fri Oct 18 01:01:24 2019, MaxMem=   104857600 cpu:             133.7 elap:               6.4
 (Enter /share/home/wli/program/opt/Chem_soft/g16/l801.exe)
 DoSCS=F DFT=T ScalE2(SS,OS)=  1.000000  1.000000
 Range of M.O.s used for correlation:     1   134
 NBasis=   134 NAE=    31 NBE=    31 NFC=     0 NFV=     0
 NROrb=    134 NOA=    31 NOB=    31 NVA=   103 NVB=   103
 Leave Link  801 at Fri Oct 18 01:01:24 2019, MaxMem=   104857600 cpu:               1.1 elap:               0.1
 (Enter /share/home/wli/program/opt/Chem_soft/g16/l1101.exe)
 Using compressed storage, NAtomX=     6.
 Will process      7 centers per pass.
 PrsmSu:  requested number of processors reduced to:  11 ShMem   1 Linda.
   1 Symmetry operations used in ECPInt.
 ECPInt:  NShTT=    1378 NPrTT=    5593 LenC2=    1324 LenP2D=    4259.
 LDataN:  DoStor=T MaxTD1= 7 Len=  274
 Number of processors reduced to  18 by ecpmxn.
 R6Disp: Adding Grimme-D3(BJ) dispersion energy 1st derivatives to the gradient.
 Leave Link 1101 at Fri Oct 18 01:01:25 2019, MaxMem=   104857600 cpu:               8.3 elap:               0.4
 (Enter /share/home/wli/program/opt/Chem_soft/g16/l1102.exe)
 Symmetrizing basis deriv contribution to polar:
 IMax=3 JMax=2 DiffMx= 0.00D+00
 Leave Link 1102 at Fri Oct 18 01:01:25 2019, MaxMem=   104857600 cpu:               2.4 elap:               0.1
 (Enter /share/home/wli/program/opt/Chem_soft/g16/l1110.exe)
 Forming Gx(P) for the SCF density, NAtomX=     6.
 Integral derivatives from FoFJK, PRISM(SPDF).
 Do as many integral derivatives as possible in FoFJK.
 G2DrvN: MDV=     104857020.
 G2DrvN: will do     7 centers at a time, making    1 passes.
 Calling FoFCou, ICntrl=  3107 FMM=F I1Cent=   0 AccDes= 0.00D+00.
 FoFJK:  IHMeth= 1 ICntrl=    3107 DoSepK=F KAlg= 0 I1Cent=           0 FoldK=F
 IRaf=         0 NMat=       1 IRICut=       1 DoRegI=T DoRafI=F ISym2E= 0 IDoP0=0 IntGTp=1.
 FoFCou: FMM=F IPFlag=           0 FMFlag=      100000 FMFlg1=           0
         NFxFlg=           0 DoJE=F BraDBF=F KetDBF=F FulRan=T
         wScrn=  0.000000 ICntrl=      3107 IOpCl=  0 I1Cent=           0 NGrid=           0
         NMat0=    1 NMatS0=      1 NMatT0=    0 NMatD0=    1 NMtDS0=    0 NMtDT0=    0
 Symmetry not used in FoFCou.
 NEqPCM:  Using equilibrium solvation (IEInf=0, Eps=   2.2706, EpsInf=   2.2533)
 G2PCM: DoFxE=T DoFxN=T DoGrad=T DoDP/DQ/DG/TGxP=FFFF NFrqRd=   0 IEInf=0 SqF1=F DoCFld=F IF1Alg=4.
 GePol: Maximum number of non-zero 1st derivatives   =     563
 CoulSu:  requested number of processors reduced to:  13 ShMem   1 Linda.
 CoulSu:  requested number of processors reduced to:  13 ShMem   1 Linda.
 CoulSu:  requested number of processors reduced to:  13 ShMem   1 Linda.
 CoulSu:  requested number of processors reduced to:  17 ShMem   1 Linda.
 CoulSu:  requested number of processors reduced to:  23 ShMem   1 Linda.
 CoulSu:  requested number of processors reduced to:  13 ShMem   1 Linda.
 CoulSu:  requested number of processors reduced to:  13 ShMem   1 Linda.
 CoulSu:  requested number of processors reduced to:  13 ShMem   1 Linda.
 CoulSu:  requested number of processors reduced to:  13 ShMem   1 Linda.
 End of G2Drv F.D. properties file   721 does not exist.
 End of G2Drv F.D. properties file   722 does not exist.
 End of G2Drv F.D. properties file   788 does not exist.
 Leave Link 1110 at Fri Oct 18 01:01:30 2019, MaxMem=   104857600 cpu:             124.3 elap:               5.4
 (Enter /share/home/wli/program/opt/Chem_soft/g16/l1002.exe)
 Minotr:  Closed shell wavefunction.
          IDoAtm=111111
 NEqPCM:  Using equilibrium solvation (IEInf=0, Eps=   2.2706, EpsInf=   2.2533)
          Direct CPHF calculation.
          Differentiating once with respect to electric field.
                with respect to dipole field.
          Differentiating once with respect to nuclear coordinates.
          Requested convergence is 1.0D-08 RMS, and 1.0D-07 maximum.
          Secondary convergence is 1.0D-12 RMS, and 1.0D-12 maximum.
          NewPWx=T KeepS1=F KeepF1=F KeepIn=T MapXYZ=F SortEE=F KeepMc=T.
         1761 words used for storage of precomputed grid.
 Keep R1 ints in memory in canonical form, NReq=64236638.
 FoFCou: FMM=F IPFlag=           0 FMFlag=           0 FMFlg1=           0
         NFxFlg=           0 DoJE=F BraDBF=F KetDBF=F FulRan=T
         wScrn=  0.000000 ICntrl=       600 IOpCl=  0 I1Cent=           0 NGrid=           0
         NMat0=    1 NMatS0=   9045 NMatT0=    0 NMatD0=    1 NMtDS0=    0 NMtDT0=    0
 Symmetry not used in FoFCou.
 Two-electron integral symmetry not used.
          MDV=     104857600 using IRadAn=       1.
          Solving linear equations simultaneously, MaxMat=       0.
 CoulSu:  requested number of processors reduced to:  13 ShMem   1 Linda.
 CoulSu:  requested number of processors reduced to:  13 ShMem   1 Linda.
          There are    21 degrees of freedom in the 1st order CPHF.  IDoFFX=6 NUNeed=     3.
     18 vectors produced by pass  0 Test12= 1.52D-14 4.76D-09 XBig12= 2.27D+02 1.44D+01.
 AX will form    18 AO Fock derivatives at one time.
 CoulSu:  requested number of processors reduced to:  14 ShMem   1 Linda.
 CoulSu:  requested number of processors reduced to:  14 ShMem   1 Linda.
     18 vectors produced by pass  1 Test12= 1.52D-14 4.76D-09 XBig12= 3.69D+01 2.13D+00.
 CoulSu:  requested number of processors reduced to:  14 ShMem   1 Linda.
 CoulSu:  requested number of processors reduced to:  14 ShMem   1 Linda.
     18 vectors produced by pass  2 Test12= 1.52D-14 4.76D-09 XBig12= 1.78D+00 2.86D-01.
 CoulSu:  requested number of processors reduced to:  14 ShMem   1 Linda.
 CoulSu:  requested number of processors reduced to:  14 ShMem   1 Linda.
     18 vectors produced by pass  3 Test12= 1.52D-14 4.76D-09 XBig12= 4.21D-02 4.14D-02.
 CoulSu:  requested number of processors reduced to:  14 ShMem   1 Linda.
 CoulSu:  requested number of processors reduced to:  14 ShMem   1 Linda.
     18 vectors produced by pass  4 Test12= 1.52D-14 4.76D-09 XBig12= 7.30D-04 7.29D-03.
 CoulSu:  requested number of processors reduced to:  14 ShMem   1 Linda.
 CoulSu:  requested number of processors reduced to:  14 ShMem   1 Linda.
     16 vectors produced by pass  5 Test12= 1.52D-14 4.76D-09 XBig12= 3.40D-06 3.98D-04.
 CoulSu:  requested number of processors reduced to:  15 ShMem   1 Linda.
 CoulSu:  requested number of processors reduced to:  15 ShMem   1 Linda.
      5 vectors produced by pass  6 Test12= 1.52D-14 4.76D-09 XBig12= 4.22D-09 1.11D-05.
      1 vectors produced by pass  7 Test12= 1.52D-14 4.76D-09 XBig12= 5.68D-12 3.50D-07.
      1 vectors produced by pass  8 Test12= 1.52D-14 4.76D-09 XBig12= 1.14D-14 1.76D-08.
 InvSVY:  IOpt=1 It=  1 EMax= 2.13D-14
 Solved reduced A of dimension   113 with    21 vectors.
 FullF1:  Do perturbations      1 to       3.
 Isotropic polarizability for W=    0.000000       78.05 Bohr**3.
 End of Minotr F.D. properties file   721 does not exist.
 End of Minotr F.D. properties file   722 does not exist.
 End of Minotr F.D. properties file   788 does not exist.
 Leave Link 1002 at Fri Oct 18 01:01:37 2019, MaxMem=   104857600 cpu:             130.8 elap:               6.1
 (Enter /share/home/wli/program/opt/Chem_soft/g16/l601.exe)
 Copying SCF densities to generalized density rwf, IOpCl= 0 IROHF=0.

 **********************************************************************

            Population analysis using the SCF density.

 **********************************************************************

 Orbital symmetries:
       Occupied  (A) (A) (A) (A) (A) (A) (A) (A) (A) (A) (A) (A)
                 (A) (A) (A) (A) (A) (A) (A) (A) (A) (A) (A) (A)
                 (A) (A) (A) (A) (A) (A) (A)
       Virtual   (A) (A) (A) (A) (A) (A) (A) (A) (A) (A) (A) (A)
                 (A) (A) (A) (A) (A) (A) (A) (A) (A) (A) (A) (A)
                 (A) (A) (A) (A) (A) (A) (A) (A) (A) (A) (A) (A)
                 (A) (A) (A) (A) (A) (A) (A) (A) (A) (A) (A) (A)
                 (A) (A) (A) (A) (A) (A) (A) (A) (A) (A) (A) (A)
                 (A) (A) (A) (A) (A) (A) (A) (A) (A) (A) (A) (A)
                 (A) (A) (A) (A) (A) (A) (A) (A) (A) (A) (A) (A)
                 (A) (A) (A) (A) (A) (A) (A) (A) (A) (A) (A) (A)
                 (A) (A) (A) (A) (A) (A) (A)
 The electronic state is 1-A.
 Alpha  occ. eigenvalues -- -482.71872-101.35090 -62.36716 -56.18210 -56.18031
 Alpha  occ. eigenvalues --  -56.18031 -10.15703  -9.28297  -8.55794  -7.04073
 Alpha  occ. eigenvalues --   -7.03785  -7.03785  -6.38377  -6.37828  -6.37828
 Alpha  occ. eigenvalues --   -2.49882  -2.49734  -2.49734  -2.49296  -2.49296
 Alpha  occ. eigenvalues --   -0.66715  -0.63430  -0.59021  -0.37465  -0.37460
 Alpha  occ. eigenvalues --   -0.24390  -0.18046  -0.18045  -0.17330  -0.17329
 Alpha  occ. eigenvalues --   -0.16282
 Alpha virt. eigenvalues --    0.03365   0.12039   0.18239   0.18241   0.26593
 Alpha virt. eigenvalues --    0.27041   0.27044   0.33811   0.34621   0.34621
 Alpha virt. eigenvalues --    0.39843   0.39845   0.41169   0.42624   0.42624
 Alpha virt. eigenvalues --    0.47544   0.47837   0.47838   0.50900   0.53736
 Alpha virt. eigenvalues --    0.53737   0.56082   0.58703   0.58706   0.59022
 Alpha virt. eigenvalues --    0.59022   0.61648   0.84755   0.84757   0.85351
 Alpha virt. eigenvalues --    1.03042   1.03046   1.04135   1.17671   1.41964
 Alpha virt. eigenvalues --    1.44954   1.44954   1.46160   1.46161   1.51924
 Alpha virt. eigenvalues --    1.52854   1.52854   1.52948   1.54065   1.63487
 Alpha virt. eigenvalues --    1.63487   1.64971   1.65015   1.69812   1.69813
 Alpha virt. eigenvalues --    1.71138   1.74190   1.74191   1.86840   1.86840
 Alpha virt. eigenvalues --    1.89066   1.90331   1.90332   2.00829   2.00833
 Alpha virt. eigenvalues --    2.03707   2.10431   2.12526   2.12526   2.22302
 Alpha virt. eigenvalues --    2.22302   2.23647   2.23754   2.32750   2.32752
 Alpha virt. eigenvalues --    2.35583   2.35585   2.36753   2.40819   2.51665
 Alpha virt. eigenvalues --    2.51674   2.68905   2.73000   2.73000   2.85289
 Alpha virt. eigenvalues --    3.13829   3.13832   3.27069   3.27072   3.30087
 Alpha virt. eigenvalues --    3.36283   3.36283   3.68394   3.90634   4.10416
 Alpha virt. eigenvalues --    4.10419   4.13926   4.13926   4.22258   4.22259
 Alpha virt. eigenvalues --    4.34266   4.76259   7.48724  10.82754  10.82754
 Alpha virt. eigenvalues --   10.93913  22.16887  24.63237
          Condensed to atoms (all electrons):
               1          2          3          4          5          6
     1  C    4.861783   0.410061   0.410067   0.410022   0.016972   0.049193
     2  H    0.410061   0.499939  -0.022251  -0.022238  -0.004367  -0.015191
     3  H    0.410067  -0.022251   0.500002  -0.022270  -0.004372  -0.015189
     4  H    0.410022  -0.022238  -0.022270   0.499749  -0.004396  -0.015155
     5  Cl   0.016972  -0.004367  -0.004372  -0.004396  17.693510   0.009905
     6  Br   0.049193  -0.015191  -0.015189  -0.015155   0.009905  35.583436
 Mulliken charges:
               1
     1  C   -0.158098
     2  H    0.154046
     3  H    0.154013
     4  H    0.154289
     5  Cl  -0.707251
     6  Br  -0.596999
 Sum of Mulliken charges =  -1.00000
 Mulliken charges with hydrogens summed into heavy atoms:
               1
     1  C    0.304250
     5  Cl  -0.707251
     6  Br  -0.596999
 APT charges:
               1
     1  C    1.235960
     2  H   -0.018015
     3  H   -0.018599
     4  H   -0.018872
     5  Cl  -1.146747
     6  Br  -1.033727
 Sum of APT charges =  -1.00000
 APT charges with hydrogens summed into heavy atoms:
               1
     1  C    1.180474
     5  Cl  -1.146747
     6  Br  -1.033727
 Electronic spatial extent (au):  <R**2>=           1123.4791
 Charge=             -1.0000 electrons
 Dipole moment (field-independent basis, Debye):
    X=              0.0020    Y=             -0.0255    Z=             -4.6982  Tot=              4.6983
 Quadrupole moment (field-independent basis, Debye-Ang):
   XX=            -42.4904   YY=            -42.4928   ZZ=            -85.3895
   XY=              0.0000   XZ=              0.0048   YZ=             -0.2381
 Traceless Quadrupole moment (field-independent basis, Debye-Ang):
   XX=             14.3005   YY=             14.2981   ZZ=            -28.5986
   XY=              0.0000   XZ=              0.0048   YZ=             -0.2381
 Octapole moment (field-independent basis, Debye-Ang**2):
  XXX=              1.0604  YYY=             -0.1903  ZZZ=           -145.7513  XYY=             -1.0553
  XXY=             -0.1540  XXZ=            -15.5347  XZZ=              0.0101  YZZ=             -0.6362
  YYZ=            -15.5404  XYZ=              0.0059
 Hexadecapole moment (field-independent basis, Debye-Ang**3):
 XXXX=            -61.2885 YYYY=            -61.3319 ZZZZ=          -1673.7649 XXXY=              0.0045
 XXXZ=              0.8141 YYYX=             -0.0130 YYYZ=             -3.5396 ZZZX=              0.0523
 ZZZY=             -5.3794 XXYY=            -20.4384 XXZZ=           -235.4963 YYZZ=           -235.5175
 XXYZ=             -1.2472 YYXZ=             -0.7781 ZZXY=              0.0090
 N-N= 1.735617161811D+02 E-N=-7.700072977943D+03  KE= 3.069811965547D+03
  Exact polarizability:  42.199  -0.002  42.219  -0.012   0.597 149.741
 Approx polarizability:  60.570  -0.000  60.577  -0.003   0.810 206.160
 No NMR shielding tensors so no spin-rotation constants.
 Leave Link  601 at Fri Oct 18 01:01:37 2019, MaxMem=   104857600 cpu:              13.6 elap:               0.6
 (Enter /share/home/wli/program/opt/Chem_soft/g16/l701.exe)
 ... and contract with generalized density number  0.
 Compute integral second derivatives.
 R6Disp: Adding Grimme-D3(BJ) dispersion energy 2nd derivatives to the Hessian.
 PrsmSu:  requested number of processors reduced to:   9 ShMem   1 Linda.
 PrsmSu:  requested number of processors reduced to:  13 ShMem   1 Linda.
   1 Symmetry operations used in ECPInt.
 ECPInt:  NShTT=    1378 NPrTT=    5593 LenC2=    1324 LenP2D=    4259.
 LDataN:  DoStor=T MaxTD1= 8 Len=  415
 D2PCM: PCM CHGder 2nd derivatives, FixD1E=F FixD2E=F DoIter=F DoCFld=F I1PDM=0
 GePol: Maximum number of non-zero 2nd derivatives   =     563
 CoulSu:  requested number of processors reduced to:  13 ShMem   1 Linda.
 CoulSu:  requested number of processors reduced to:  13 ShMem   1 Linda.
 CoulSu:  requested number of processors reduced to:  13 ShMem   1 Linda.
 CoulSu:  requested number of processors reduced to:  13 ShMem   1 Linda.
 CoulSu:  requested number of processors reduced to:  13 ShMem   1 Linda.
 CoulSu:  requested number of processors reduced to:  11 ShMem   1 Linda.
 CoulSu:  requested number of processors reduced to:  13 ShMem   1 Linda.
 CoulSu:  requested number of processors reduced to:  11 ShMem   1 Linda.
 CoulSu:  requested number of processors reduced to:  13 ShMem   1 Linda.
 CoulSu:  requested number of processors reduced to:  11 ShMem   1 Linda.
 CoulSu:  requested number of processors reduced to:  11 ShMem   1 Linda.
 CoulSu:  requested number of processors reduced to:  13 ShMem   1 Linda.
 CoulSu:  requested number of processors reduced to:  13 ShMem   1 Linda.
 CoulSu:  requested number of processors reduced to:  13 ShMem   1 Linda.
 CoulSu:  requested number of processors reduced to:  13 ShMem   1 Linda.
 CoulSu:  requested number of processors reduced to:  13 ShMem   1 Linda.
 Leave Link  701 at Fri Oct 18 01:01:41 2019, MaxMem=   104857600 cpu:              62.2 elap:               3.6
 (Enter /share/home/wli/program/opt/Chem_soft/g16/l702.exe)
 L702 exits ... SP integral derivatives will be done elsewhere.
 Leave Link  702 at Fri Oct 18 01:01:41 2019, MaxMem=   104857600 cpu:               1.2 elap:               0.1
 (Enter /share/home/wli/program/opt/Chem_soft/g16/l703.exe)
 Integral derivatives from FoFJK, PRISM(SPDF).
 Compute integral second derivatives, UseDBF=F ICtDFT=           0.
 Calling FoFJK, ICntrl=    100127 FMM=F ISym2X=0 I1Cent= 0 IOpClX= 0 NMat=1 NMatS=1 NMatT=0.
 FoFJK:  IHMeth= 1 ICntrl=  100127 DoSepK=F KAlg= 0 I1Cent=           0 FoldK=F
 IRaf=         0 NMat=       1 IRICut=       1 DoRegI=T DoRafI=F ISym2E= 0 IDoP0=0 IntGTp=1.
 FoFCou: FMM=F IPFlag=           0 FMFlag=      100000 FMFlg1=         800
         NFxFlg=           0 DoJE=F BraDBF=F KetDBF=F FulRan=T
         wScrn=  0.000000 ICntrl=    100127 IOpCl=  0 I1Cent=           0 NGrid=           0
         NMat0=    1 NMatS0=      1 NMatT0=    0 NMatD0=    1 NMtDS0=    0 NMtDT0=    0
 Symmetry not used in FoFCou.
 CoulSu:  requested number of processors reduced to:  13 ShMem   1 Linda.
 Leave Link  703 at Fri Oct 18 01:01:47 2019, MaxMem=   104857600 cpu:             114.5 elap:               6.1
 (Enter /share/home/wli/program/opt/Chem_soft/g16/l716.exe)
 Dipole        = 7.95197741D-04-1.00311553D-02-1.84841883D+00
 Polarizability= 4.21987833D+01-1.87521713D-03 4.22194957D+01
                -1.15550880D-02 5.96578941D-01 1.49741198D+02
 ***** Axes restored to original set *****
 -------------------------------------------------------------------
 Center     Atomic                   Forces (Hartrees/Bohr)
 Number     Number              X              Y              Z
 -------------------------------------------------------------------
      1        6          -0.006194177   -0.000008840    0.000122016
      2        1           0.000233231   -0.000605616   -0.000358389
      3        1           0.000215269    0.000650969   -0.000403472
      4        1           0.000188869   -0.000028544    0.000921262
      5       17           0.002515051    0.000017687   -0.000237486
      6       35           0.003041757   -0.000025656   -0.000043932
 -------------------------------------------------------------------
 Cartesian Forces:  Max     0.006194177 RMS     0.001765213
 Force constants in Cartesian coordinates: 
                1             2             3             4             5 
      1 -0.380140D-01
      2  0.526287D-04  0.681472D+00
      3  0.418885D-03 -0.209484D-03  0.680980D+00
      4 -0.992897D-02  0.160628D-01  0.853115D-02  0.333665D-01
      5  0.141639D-01 -0.309542D+00 -0.137940D+00 -0.138446D-01  0.312944D+00
      6  0.751411D-02 -0.137817D+00 -0.128422D+00 -0.764970D-02  0.145116D+00
      7 -0.100058D-01 -0.155220D-01  0.962444D-02  0.266002D-02  0.151877D-02
      8 -0.136053D-01 -0.293813D+00  0.147075D+00 -0.156504D-02 -0.120214D-01
      9  0.852743D-02  0.146821D+00 -0.144434D+00 -0.847659D-03 -0.128772D-01
     10 -0.102108D-01 -0.476993D-03 -0.183027D-01  0.266745D-02  0.486960D-04
     11 -0.385194D-03 -0.545593D-01 -0.888698D-02 -0.157109D-02  0.428189D-02
     12 -0.161602D-01 -0.887415D-02 -0.383888D+00 -0.851573D-03  0.345372D-02
     13  0.334219D-01  0.175979D-03  0.623143D-04 -0.130438D-01  0.118015D-02
     14  0.121155D-03 -0.957613D-02 -0.206663D-04 -0.550850D-02  0.209787D-02
     15 -0.152655D-03  0.376634D-04 -0.102704D-01 -0.281067D-02  0.110170D-02
     16  0.347377D-01 -0.292465D-03 -0.334052D-03 -0.157212D-01 -0.306689D-02
     17 -0.347178D-03 -0.139824D-01 -0.176805D-04  0.642640D-02  0.223896D-02
     18 -0.147556D-03  0.424644D-04 -0.139668D-01  0.362845D-02  0.114545D-02
                6             7             8             9            10 
      6  0.123055D+00
      7 -0.932603D-03  0.337962D-01
      8  0.140768D-01  0.137860D-01  0.296461D+00
      9  0.104043D-01 -0.904180D-02 -0.154624D+00  0.139788D+00
     10  0.176999D-02  0.266438D-02  0.469158D-04  0.176968D-02  0.353532D-01
     11 -0.235524D-01  0.150455D-02  0.532978D-02  0.229385D-01  0.685137D-03
     12 -0.587937D-02 -0.926282D-03 -0.405830D-02 -0.692011D-02  0.177761D-01
     13  0.749323D-03 -0.131955D-01 -0.127967D-02  0.121045D-02 -0.143660D-01
     14  0.103961D-02  0.526582D-02  0.201824D-02 -0.106313D-02 -0.677405D-04
     15  0.303179D-03 -0.271301D-02 -0.119136D-02  0.173209D-03  0.536329D-02
     16 -0.145112D-02 -0.159192D-01  0.261713D-02 -0.161811D-02 -0.161083D-01
     17  0.113680D-02 -0.655310D-02  0.202526D-02 -0.119459D-02 -0.236015D-03
     18  0.538185D-03  0.398926D-02 -0.127776D-02  0.987748D-03 -0.837630D-02
               11            12            13            14            15 
     11  0.459657D-01
     12  0.982958D-02  0.388926D+00
     13 -0.255237D-03 -0.223098D-02  0.295123D-01
     14 -0.373830D-03 -0.333421D-03  0.181383D-03  0.428753D-02
     15 -0.323421D-03  0.398304D-02  0.230203D-03  0.373759D-03  0.426088D-02
     16  0.218364D-04  0.239297D-02 -0.223289D-01  0.788190D-05  0.828477D-04
     17 -0.644223D-03 -0.174259D-04 -0.261452D-05  0.154632D-02  0.165502D-05
     18 -0.525467D-05  0.377770D-02 -0.213123D-04  0.384745D-05  0.155008D-02
               16            17            18 
     16  0.353399D-01
     17  0.712508D-03  0.881604D-02
     18  0.927466D-03  0.912472D-04  0.711307D-02
 FormGI is forming the generalized inverse of G from B-inverse, IUseBI=4.
 Force constants in internal coordinates: 
                1             2             3             4             5 
      1  0.392108D+00
      2 -0.127335D-03  0.392216D+00
      3 -0.119113D-03 -0.124362D-03  0.390103D+00
      4 -0.205571D-02 -0.239000D-02 -0.295617D-02  0.295123D-01
      5 -0.259321D-02 -0.226683D-02 -0.157199D-02  0.223289D-01  0.353401D-01
      6  0.177673D-02  0.165896D-02 -0.321983D-02  0.509271D-03 -0.556000D-03
      7  0.169720D-02 -0.324797D-02  0.180766D-02  0.922952D-03 -0.110661D-02
      8 -0.225758D-02  0.198337D-02  0.263028D-02  0.437038D-02 -0.579851D-02
      9 -0.470659D-02  0.159954D-02  0.164749D-02 -0.400375D-02  0.437232D-02
     10 -0.325782D-02  0.176595D-02  0.154678D-02  0.954798D-03 -0.119029D-02
     11  0.188733D-02 -0.266229D-02  0.340807D-02  0.423094D-02 -0.540524D-02
     12  0.185401D-02 -0.420788D-02  0.221346D-02 -0.426002D-02  0.553771D-02
     13  0.160919D-02  0.169335D-02 -0.526769D-02  0.507954D-02 -0.514719D-02
     14  0.161422D-02  0.159442D-02 -0.463292D-02 -0.541716D-02  0.644107D-02
     15 -0.696417D-02  0.358291D-02  0.427777D-02  0.366632D-03 -0.142618D-02
     16 -0.298893D-03  0.587232D-02 -0.897394D-02 -0.178464D-03  0.671581D-03
     17  0.158942D-02  0.132196D-02  0.553606D-03  0.156276D-01 -0.186724D-01
     18  0.181835D-02  0.172711D-02 -0.376672D-02 -0.243613D-03  0.425228D-03
     19 -0.153590D-02 -0.143894D-02  0.289804D-02  0.212031D-03 -0.309273D-03
     20 -0.176240D-02  0.358666D-02 -0.204853D-02 -0.996680D-04  0.153314D-03
     21  0.143432D-02 -0.298440D-02  0.155530D-02  0.101283D-03 -0.163758D-03
     22 -0.358075D-02  0.185955D-02  0.171820D-02  0.143945D-03 -0.271914D-03
     23  0.297021D-02 -0.154545D-02 -0.134274D-02 -0.110749D-03  0.145515D-03
                6             7             8             9            10 
      6  0.687446D-02
      7 -0.342543D-02  0.705258D-02
      8  0.792754D-03  0.111401D-02  0.264922D-01
      9 -0.979031D-03 -0.136291D-02 -0.152804D-01  0.315010D-01
     10 -0.343402D-02 -0.342789D-02 -0.112658D-02  0.164663D-02  0.706218D-02
     11  0.857070D-03 -0.123357D-02 -0.114921D-01  0.528604D-02  0.113581D-02
     12 -0.105073D-02  0.157192D-02  0.535991D-02 -0.135349D-01 -0.127787D-02
     13 -0.156288D-02  0.126119D-02 -0.105294D-01  0.600965D-02  0.113811D-02
     14  0.194441D-02 -0.135140D-02  0.544934D-02 -0.139818D-01 -0.151696D-02
     15 -0.186277D-03 -0.248902D-03  0.112118D-01  0.162206D-01  0.520052D-03
     16  0.333449D-03 -0.248251D-03  0.607441D-03  0.159535D-03 -0.137350D-03
     17  0.791340D-03  0.954781D-03  0.517092D-02 -0.463589D-02  0.960481D-03
     18  0.676481D-02 -0.343250D-02 -0.520638D-03 -0.106244D-03 -0.345245D-02
     19 -0.673173D-02  0.342461D-02  0.722637D-04 -0.589873D-03  0.341923D-02
     20  0.337527D-02 -0.688047D-02  0.276200D-03  0.559159D-03  0.344656D-02
     21 -0.335841D-02  0.685056D-02  0.256312D-03  0.169112D-03 -0.343391D-02
     22 -0.338954D-02 -0.344798D-02  0.796838D-03  0.665403D-03  0.689901D-02
     23  0.337333D-02  0.342595D-02  0.184048D-03  0.758984D-03 -0.685314D-02
               11            12            13            14            15 
     11  0.257291D-01
     12 -0.158247D-01  0.317566D-01
     13 -0.988570D-02  0.612827D-02  0.252101D-01
     14  0.618707D-02 -0.138856D-01 -0.169325D-01  0.331644D-01
     15 -0.620602D-02 -0.817500D-02 -0.451972D-02 -0.853248D-02  0.274324D-01
     16 -0.786351D-02 -0.136944D-01  0.695765D-02  0.138344D-01  0.766976D-03
     17  0.504128D-02 -0.504364D-02  0.530030D-02 -0.583301D-02  0.535037D-03
     18 -0.389116D-03 -0.136907D-03  0.222256D-03  0.932299D-03 -0.626882D-03
     19  0.616960D-04 -0.540040D-03  0.507583D-03  0.486837D-03 -0.517609D-03
     20 -0.633006D-03 -0.573365D-03  0.211861D-04  0.350596D-03  0.835359D-03
     21 -0.233435D-03 -0.825507D-03  0.310486D-03  0.322310D-03  0.425423D-03
     22 -0.243890D-03 -0.436458D-03 -0.201070D-03 -0.581703D-03  0.146224D-02
     23 -0.295131D-03 -0.285467D-03 -0.197096D-03 -0.164526D-03  0.943033D-03
               16            17            18            19            20 
     16  0.244823D-01
     17 -0.306683D-03  0.177415D-01
     18  0.972513D-03 -0.101589D-03  0.687943D-02
     19  0.850470D-03  0.525425D-04 -0.677803D-02  0.686506D-02
     20  0.912783D-03 -0.422212D-04  0.342393D-02 -0.339125D-02  0.694163D-02
     21  0.977471D-03  0.413289D-04 -0.337764D-02  0.343304D-02 -0.683587D-02
     22 -0.597301D-04  0.593674D-04 -0.345550D-02  0.338678D-02  0.351770D-02
     23  0.127001D-03 -0.112136D-04  0.340039D-02 -0.343202D-02 -0.344461D-02
               21            22            23 
     21  0.692872D-02
     22 -0.345822D-02  0.697320D-02
     23  0.349568D-02 -0.684500D-02  0.692770D-02
 Leave Link  716 at Fri Oct 18 01:01:47 2019, MaxMem=   104857600 cpu:               2.6 elap:               0.1
 (Enter /share/home/wli/program/opt/Chem_soft/g16/l103.exe)

 GradGradGradGradGradGradGradGradGradGradGradGradGradGradGradGradGradGrad
 Berny optimization.
 Red2BG is reusing G-inverse.
 Internal  Forces:  Max     0.003041748 RMS     0.000881324
 Search for a saddle point.
 Step number   1 out of a maximum of   33
 All quantities printed in internal units (Hartrees-Bohrs-Radians)
 Swapping is turned off.
 Second derivative matrix not updated -- analytic derivatives used.
 ITU=  0
     Eigenvalues ---   -0.01257   0.03026   0.03072   0.03889   0.04577
     Eigenvalues ---    0.04758   0.05679   0.06457   0.06734   0.39065
     Eigenvalues ---    0.39241   0.39289
 Eigenvectors required to have negative eigenvalues:
                          R4        R5        D1        A9        A3
   1                   -0.57186   0.55640   0.48919  -0.14928   0.14564
                          A7        A6        A8        A4        A5
   1                   -0.14264   0.14159   0.14046  -0.13577   0.02672
 RFO step:  Lambda0=8.095880027D-04 Lambda=-1.07735164D-04.
 Linear search not attempted -- option 19 set.
 Iteration  1 RMS(Cart)=  0.02120361 RMS(Int)=  0.00136277
 Iteration  2 RMS(Cart)=  0.00068755 RMS(Int)=  0.00117638
 Iteration  3 RMS(Cart)=  0.00000009 RMS(Int)=  0.00117638
 ITry= 1 IFail=0 DXMaxC= 8.37D-02 DCOld= 1.00D+10 DXMaxT= 3.00D-01 DXLimC= 3.00D+00 Rises=F
 Variable       Old X    -DE/DX   Delta X   Delta X   Delta X     New X
                                 (Linear)    (Quad)   (Total)
    R1        2.02150   0.00071   0.00000   0.00101   0.00101   2.02250
    R2        2.02150   0.00078   0.00000   0.00098   0.00098   2.02248
    R3        2.02153   0.00093   0.00000   0.00187   0.00187   2.02340
    R4        4.61365   0.00252   0.00000  -0.12514  -0.12514   4.48851
    R5        4.56930  -0.00304   0.00000   0.11531   0.11531   4.68461
    A1        2.09003  -0.00002   0.00000   0.00744   0.00431   2.09434
    A2        2.08995  -0.00002   0.00000   0.00708   0.00379   2.09374
    A3        1.52013  -0.00018   0.00000   0.04094   0.04079   1.56092
    A4        1.62132  -0.00000   0.00000  -0.04348  -0.04334   1.57799
    A5        2.08994   0.00000   0.00000   0.00816   0.00488   2.09482
    A6        1.52014  -0.00018   0.00000   0.03956   0.03941   1.55955
    A7        1.62133  -0.00000   0.00000  -0.04489  -0.04475   1.57658
    A8        1.52038   0.00019   0.00000   0.04945   0.04931   1.56969
    A9        1.62148   0.00018   0.00000  -0.04158  -0.04143   1.58005
   A10        3.14145  -0.00018   0.00000  -0.00254  -0.00254   3.13891
   A11        3.14182   0.00032   0.00000   0.00763   0.00763   3.14945
    D1        2.96690  -0.00020   0.00000   0.14870   0.14903   3.11592
    D2        2.09447   0.00002   0.00000   0.00040   0.00006   2.09453
    D3       -2.09444   0.00002   0.00000   0.00027   0.00003  -2.09441
    D4       -2.09436   0.00002   0.00000   0.00080   0.00058  -2.09378
    D5        2.09437  -0.00000   0.00000  -0.00035  -0.00052   2.09386
    D6        2.09436   0.00000   0.00000   0.00040   0.00052   2.09487
    D7       -2.09437  -0.00002   0.00000  -0.00061  -0.00055  -2.09492
         Item               Value     Threshold  Converged?
 Maximum Force            0.003042     0.000450     NO 
 RMS     Force            0.000881     0.000300     NO 
 Maximum Displacement     0.083686     0.001800     NO 
 RMS     Displacement     0.021156     0.001200     NO 
 Predicted change in Energy= 3.752662D-04
 Lowest energy point so far.  Saving SCF results.
 GradGradGradGradGradGradGradGradGradGradGradGradGradGradGradGradGradGrad

 Leave Link  103 at Fri Oct 18 01:01:47 2019, MaxMem=   104857600 cpu:               4.9 elap:               0.2
 (Enter /share/home/wli/program/opt/Chem_soft/g16/l202.exe)
                          Input orientation:                          
 ---------------------------------------------------------------------
 Center     Atomic      Atomic             Coordinates (Angstroms)
 Number     Number       Type             X           Y           Z
 ---------------------------------------------------------------------
      1          6           0        0.748585   -0.000453    0.003383
      2          1           0        0.757527   -0.941498   -0.506340
      3          1           0        0.757473    0.911528   -0.556658
      4          1           0        0.754549    0.028036    1.073726
      5         17           0        3.123779    0.001211   -0.007268
      6         35           0       -1.730388    0.001235   -0.005797
 ---------------------------------------------------------------------
                    Distance matrix (angstroms):
                    1          2          3          4          5
     1  C    0.000000
     2  H    1.070263   0.000000
     3  H    1.070250   1.853709   0.000000
     4  H    1.070738   1.853810   1.854378   0.000000
     5  Cl   2.375218   2.595557   2.594206   2.604326   0.000000
     6  Br   2.478991   2.707215   2.705834   2.709429   4.854167
                    6
     6  Br   0.000000
 Stoichiometry    CH3BrCl(1-)
 Framework group  C1[X(CH3BrCl)]
 Deg. of freedom    12
 Full point group                 C1      NOp   1
 RotChk:  IX=2 Diff= 2.30D+00
 Largest Abelian subgroup         C1      NOp   1
 Largest concise Abelian subgroup C1      NOp   1
                         Standard orientation:                         
 ---------------------------------------------------------------------
 Center     Atomic      Atomic             Coordinates (Angstroms)
 Number     Number       Type             X           Y           Z
 ---------------------------------------------------------------------
      1          6           0       -0.760032    0.008260    0.001480
      2          1           0       -0.769054   -0.155055   -1.056210
      3          1           0       -0.768913   -0.826016    0.671808
      4          1           0       -0.765924    1.006590    0.388499
      5         17           0       -3.135226   -0.002221   -0.000374
      6         35           0        1.718941   -0.001066   -0.000189
 ---------------------------------------------------------------------
 Rotational constants (GHZ):         145.8354154           0.8628433           0.8628392
 Leave Link  202 at Fri Oct 18 01:01:48 2019, MaxMem=   104857600 cpu:               1.8 elap:               0.1
 (Enter /share/home/wli/program/opt/Chem_soft/g16/l301.exe)
 Standard basis: def2TZVP (5D, 7F)
 Ernie: Thresh=  0.10000D-02 Tol=  0.10000D-05 Strict=F.
 There are   151 symmetry adapted cartesian basis functions of A   symmetry.
 There are   134 symmetry adapted basis functions of A   symmetry.
   134 basis functions,   258 primitive gaussians,   151 cartesian basis functions
    31 alpha electrons       31 beta electrons
       nuclear repulsion energy       173.0811833766 Hartrees.
 IExCor=  402 DFT=T Ex+Corr=B3LYP ExCW=0 ScaHFX=  0.200000
 ScaDFX=  0.800000  0.720000  1.000000  0.810000 ScalE2=  1.000000  1.000000
 IRadAn=      5 IRanWt=     -1 IRanGd=            0 ICorTp=0 IEmpDi=141
 NAtoms=    6 NActive=    6 NUniq=    6 SFac= 1.00D+00 NAtFMM=   60 NAOKFM=F Big=F
 Integral buffers will be    131072 words long.
 Raffenetti 2 integral format.
 Two-electron integral symmetry is turned on.
 R6Disp:  Grimme-D3(BJ) Dispersion energy=       -0.0069930209 Hartrees.
 Nuclear repulsion after empirical dispersion term =      173.0741903556 Hartrees.
 Force inversion solution in PCM.
 ------------------------------------------------------------------------------
 Polarizable Continuum Model (PCM)
 =================================
 Model                : PCM.
 Atomic radii         : SMD-Coulomb.
 Polarization charges : Total charges.
 Charge compensation  : None.
 Solution method      : Matrix inversion.
 Cavity type          : VdW (van der Waals Surface) (Alpha=1.000).
 Cavity algorithm     : GePol (No added spheres)
                        Default sphere list used, NSphG=    6.
                        Lebedev-Laikov grids with approx.  5.0 points / Ang**2.
                        Smoothing algorithm: York/Karplus (Gamma=1.0000).
                        Polarization charges: spherical gaussians, with
                                              point-specific exponents (IZeta= 3).
                        Self-potential: point-specific (ISelfS= 7).
                        Self-field    : sphere-specific E.n sum rule (ISelfD= 2).
 1st derivatives      : Analytical E(r).r(x)/FMM algorithm (CHGder, D1EAlg=3).
                        Cavity 1st derivative terms included.
 2nd derivatives      : Analytical E(r).r(xy)/FMM algorithm (CHGder, D2EAlg=3).
                        Cavity 2nd derivative terms included.
 Solvent              : Benzene, Eps=   2.270600 Eps(inf)=   2.253301
 ------------------------------------------------------------------------------
 Spheres list:
 ISph  on   Nord     Re0    Alpha      Xe            Ye            Ze
    1   C      1    1.8500  1.000     -0.760032      0.008260      0.001480
    2   H      2    1.2000  1.000     -0.769054     -0.155055     -1.056210
    3   H      3    1.2000  1.000     -0.768913     -0.826016      0.671808
    4   H      4    1.2000  1.000     -0.765924      1.006590      0.388499
    5  Cl      5    2.3800  1.000     -3.135226     -0.002221     -0.000374
    6  Br      6    3.0600  1.000      1.718941     -0.001066     -0.000189
 ------------------------------------------------------------------------------
 GePol: Number of generator spheres                  =       6
 GePol: Total number of spheres                      =       6
 GePol: Number of exposed spheres                    =       6 (100.00%)
 GePol: Number of points                             =    1026
 GePol: Average weight of points                     =       0.17
 GePol: Minimum weight of points                     =   0.47D-08
 GePol: Maximum weight of points                     =    0.22025
 GePol: Number of points with low weight             =      12
 GePol: Fraction of low-weight points (<1% of avg)   =       1.17%
 GePol: Cavity surface area                          =    175.784 Ang**2
 GePol: Cavity volume                                =    179.234 Ang**3
 ------------------------------------------------------------------------------
 Atomic radii for non-electrostatic terms: SMD-CDS.
 ------------------------------------------------------------------------------
 PCM non-electrostatic energy =        -0.0053961268 Hartrees.
 Nuclear repulsion after PCM non-electrostatic terms =      173.0687942288 Hartrees.
 Leave Link  301 at Fri Oct 18 01:01:48 2019, MaxMem=   104857600 cpu:               3.6 elap:               0.2
 (Enter /share/home/wli/program/opt/Chem_soft/g16/l302.exe)
 NPDir=0 NMtPBC=     1 NCelOv=     1 NCel=       1 NClECP=     1 NCelD=      1
         NCelK=      1 NCelE2=     1 NClLst=     1 CellRange=     0.0.
 One-electron integrals computed using PRISM.
 One-electron integral symmetry used in STVInt
 PrsmSu:  requested number of processors reduced to:  13 ShMem   1 Linda.
   1 Symmetry operations used in ECPInt.
 ECPInt:  NShTT=    1378 NPrTT=    5593 LenC2=    1324 LenP2D=    4257.
 LDataN:  DoStor=T MaxTD1= 6 Len=  172
 NBasis=   134 RedAO= T EigKep=  1.43D-03  NBF=   134
 NBsUse=   134 1.00D-06 EigRej= -1.00D+00 NBFU=   134
 Precomputing XC quadrature grid using
 IXCGrd= 4 IRadAn=           5 IRanWt=          -1 IRanGd=           0 AccXCQ= 0.00D+00.
 Generated NRdTot=       0 NPtTot=           0 NUsed=           0 NTot=          32
 NSgBfM=   150   150   150   150   150 MxSgAt=     6 MxSgA2=     6.
 Leave Link  302 at Fri Oct 18 01:01:48 2019, MaxMem=   104857600 cpu:              11.8 elap:               0.5
 (Enter /share/home/wli/program/opt/Chem_soft/g16/l303.exe)
 DipDrv:  MaxL=1.
 Leave Link  303 at Fri Oct 18 01:01:48 2019, MaxMem=   104857600 cpu:               3.3 elap:               0.2
 (Enter /share/home/wli/program/opt/Chem_soft/g16/l401.exe)
 Initial guess from the checkpoint file:  "ts_smd_benzene_maugccpvtz.chk"
 B after Tr=    -0.000000    0.000000   -0.000000
         Rot=    0.580310    0.404056    0.578027   -0.407265 Ang= 109.06 deg.
 Guess basis will be translated and rotated to current coordinates.
 JPrj=2 DoOrth=T DoCkMO=T.
 Generating alternative initial guess.
 ExpMin= 9.52D-02 ExpMax= 5.65D+05 ExpMxC= 5.46D+03 IAcc=2 IRadAn=         4 AccDes= 0.00D+00
 Harris functional with IExCor=  402 and IRadAn=       4 diagonalized for initial guess.
 HarFok:  IExCor=  402 AccDes= 0.00D+00 IRadAn=         4 IDoV= 1 UseB2=F ITyADJ=14
 ICtDFT=  3500011 ScaDFX=  1.000000  1.000000  1.000000  1.000000
 FoFCou: FMM=F IPFlag=           0 FMFlag=      100000 FMFlg1=           0
         NFxFlg=           0 DoJE=T BraDBF=F KetDBF=T FulRan=T
         wScrn=  0.000000 ICntrl=       500 IOpCl=  0 I1Cent=   200000004 NGrid=           0
         NMat0=    1 NMatS0=      1 NMatT0=    0 NMatD0=    1 NMtDS0=    0 NMtDT0=    0
 Petite list used in FoFCou.
 Harris En= -3074.57803898703    
 Leave Link  401 at Fri Oct 18 01:01:49 2019, MaxMem=   104857600 cpu:              18.2 elap:               0.8
 (Enter /share/home/wli/program/opt/Chem_soft/g16/l502.exe)
 Keep R1 ints in memory in canonical form, NReq=64315121.
 FoFCou: FMM=F IPFlag=           0 FMFlag=           0 FMFlg1=           0
         NFxFlg=           0 DoJE=F BraDBF=F KetDBF=F FulRan=T
         wScrn=  0.000000 ICntrl=       600 IOpCl=  0 I1Cent=           0 NGrid=           0
         NMat0=    1 NMatS0=   9045 NMatT0=    0 NMatD0=    1 NMtDS0=    0 NMtDT0=    0
 Symmetry not used in FoFCou.
 Two-electron integral symmetry not used.
 Closed shell SCF:
 Using DIIS extrapolation, IDIIS=  1040.
 NGot=   104857600 LenX=    63896377 LenY=    63873135
 Requested convergence on RMS density matrix=1.00D-08 within 128 cycles.
 Requested convergence on MAX density matrix=1.00D-06.
 Requested convergence on             energy=1.00D-06.
 No special actions if energy rises.

 Cycle   1  Pass 1  IDiag  1:
 CoulSu:  requested number of processors reduced to:  17 ShMem   1 Linda.
 Inv3:  Mode=1 IEnd=     3158028.
 Iteration    1 A*A^-1 deviation from unit magnitude is 4.33D-15 for   1022.
 Iteration    1 A*A^-1 deviation from orthogonality  is 1.12D-15 for   1022    748.
 Iteration    1 A^-1*A deviation from unit magnitude is 4.33D-15 for   1022.
 Iteration    1 A^-1*A deviation from orthogonality  is 1.17D-15 for    723    100.
 CoulSu:  requested number of processors reduced to:  17 ShMem   1 Linda.
 CoulSu:  requested number of processors reduced to:  17 ShMem   1 Linda.
 E= -3074.47170567655    
 DIIS: error= 2.78D-03 at cycle   1 NSaved=   1.
 NSaved= 1 IEnMin= 1 EnMin= -3074.47170567655     IErMin= 1 ErrMin= 2.78D-03
 ErrMax= 2.78D-03  0.00D+00 EMaxC= 1.00D-01 BMatC= 6.55D-04 BMatP= 6.55D-04
 IDIUse=3 WtCom= 9.72D-01 WtEn= 2.78D-02
 Coeff-Com:  0.100D+01
 Coeff-En:   0.100D+01
 Coeff:      0.100D+01
 Gap=     0.630 Goal=   None    Shift=    0.000
 GapD=    0.630 DampG=2.000 DampE=1.000 DampFc=2.0000 IDamp=-1.
 RMSDP=3.82D-04 MaxDP=7.84D-03              OVMax= 3.77D-02

 Cycle   2  Pass 1  IDiag  1:
 E= -3074.47279499345     Delta-E=       -0.001089316900 Rises=F Damp=F
 DIIS: error= 7.65D-04 at cycle   2 NSaved=   2.
 NSaved= 2 IEnMin= 2 EnMin= -3074.47279499345     IErMin= 2 ErrMin= 7.65D-04
 ErrMax= 7.65D-04  0.00D+00 EMaxC= 1.00D-01 BMatC= 9.78D-05 BMatP= 6.55D-04
 IDIUse=3 WtCom= 9.92D-01 WtEn= 7.65D-03
 Coeff-Com:  0.105D+00 0.895D+00
 Coeff-En:   0.000D+00 0.100D+01
 Coeff:      0.104D+00 0.896D+00
 Gap=     0.197 Goal=   None    Shift=    0.000
 RMSDP=2.24D-04 MaxDP=5.55D-03 DE=-1.09D-03 OVMax= 1.62D-02

 Cycle   3  Pass 1  IDiag  1:
 E= -3074.47273766697     Delta-E=        0.000057326475 Rises=F Damp=F
 DIIS: error= 9.68D-04 at cycle   3 NSaved=   3.
 NSaved= 3 IEnMin= 2 EnMin= -3074.47279499345     IErMin= 2 ErrMin= 7.65D-04
 ErrMax= 9.68D-04  0.00D+00 EMaxC= 1.00D-01 BMatC= 1.75D-04 BMatP= 9.78D-05
 IDIUse=3 WtCom= 2.43D-01 WtEn= 7.57D-01
 Coeff-Com: -0.185D-01 0.587D+00 0.432D+00
 Coeff-En:   0.000D+00 0.573D+00 0.427D+00
 Coeff:     -0.451D-02 0.576D+00 0.428D+00
 Gap=     0.197 Goal=   None    Shift=    0.000
 RMSDP=1.09D-04 MaxDP=2.88D-03 DE= 5.73D-05 OVMax= 9.61D-03

 Cycle   4  Pass 1  IDiag  1:
 E= -3074.47294285237     Delta-E=       -0.000205185398 Rises=F Damp=F
 DIIS: error= 7.99D-05 at cycle   4 NSaved=   4.
 NSaved= 4 IEnMin= 4 EnMin= -3074.47294285237     IErMin= 4 ErrMin= 7.99D-05
 ErrMax= 7.99D-05  0.00D+00 EMaxC= 1.00D-01 BMatC= 1.47D-06 BMatP= 9.78D-05
 IDIUse=1 WtCom= 1.00D+00 WtEn= 0.00D+00
 Coeff-Com: -0.126D-01 0.173D+00 0.129D+00 0.710D+00
 Coeff:     -0.126D-01 0.173D+00 0.129D+00 0.710D+00
 Gap=     0.197 Goal=   None    Shift=    0.000
 RMSDP=8.86D-06 MaxDP=2.47D-04 DE=-2.05D-04 OVMax= 8.62D-04

 Cycle   5  Pass 1  IDiag  1:
 E= -3074.47294373796     Delta-E=       -0.000000885585 Rises=F Damp=F
 DIIS: error= 3.55D-05 at cycle   5 NSaved=   5.
 NSaved= 5 IEnMin= 5 EnMin= -3074.47294373796     IErMin= 5 ErrMin= 3.55D-05
 ErrMax= 3.55D-05  0.00D+00 EMaxC= 1.00D-01 BMatC= 2.18D-07 BMatP= 1.47D-06
 IDIUse=1 WtCom= 1.00D+00 WtEn= 0.00D+00
 Coeff-Com: -0.448D-02 0.391D-01 0.354D-01 0.279D+00 0.651D+00
 Coeff:     -0.448D-02 0.391D-01 0.354D-01 0.279D+00 0.651D+00
 Gap=     0.197 Goal=   None    Shift=    0.000
 RMSDP=3.89D-06 MaxDP=1.15D-04 DE=-8.86D-07 OVMax= 3.78D-04

 Cycle   6  Pass 1  IDiag  1:
 E= -3074.47294385704     Delta-E=       -0.000000119088 Rises=F Damp=F
 DIIS: error= 2.73D-05 at cycle   6 NSaved=   6.
 NSaved= 6 IEnMin= 6 EnMin= -3074.47294385704     IErMin= 6 ErrMin= 2.73D-05
 ErrMax= 2.73D-05  0.00D+00 EMaxC= 1.00D-01 BMatC= 8.20D-08 BMatP= 2.18D-07
 IDIUse=1 WtCom= 1.00D+00 WtEn= 0.00D+00
 Coeff-Com: -0.583D-03-0.561D-02 0.294D-02 0.492D-01 0.395D+00 0.559D+00
 Coeff:     -0.583D-03-0.561D-02 0.294D-02 0.492D-01 0.395D+00 0.559D+00
 Gap=     0.197 Goal=   None    Shift=    0.000
 RMSDP=1.75D-06 MaxDP=3.83D-05 DE=-1.19D-07 OVMax= 1.81D-04

 Cycle   7  Pass 1  IDiag  1:
 E= -3074.47294394991     Delta-E=       -0.000000092871 Rises=F Damp=F
 DIIS: error= 3.94D-06 at cycle   7 NSaved=   7.
 NSaved= 7 IEnMin= 7 EnMin= -3074.47294394991     IErMin= 7 ErrMin= 3.94D-06
 ErrMax= 3.94D-06  0.00D+00 EMaxC= 1.00D-01 BMatC= 1.95D-09 BMatP= 8.20D-08
 IDIUse=1 WtCom= 1.00D+00 WtEn= 0.00D+00
 Coeff-Com:  0.474D-04-0.512D-02-0.500D-03 0.502D-02 0.111D+00 0.228D+00
 Coeff-Com:  0.662D+00
 Coeff:      0.474D-04-0.512D-02-0.500D-03 0.502D-02 0.111D+00 0.228D+00
 Coeff:      0.662D+00
 Gap=     0.197 Goal=   None    Shift=    0.000
 RMSDP=3.01D-07 MaxDP=5.70D-06 DE=-9.29D-08 OVMax= 2.07D-05

 Cycle   8  Pass 1  IDiag  1:
 E= -3074.47294395196     Delta-E=       -0.000000002043 Rises=F Damp=F
 DIIS: error= 5.52D-07 at cycle   8 NSaved=   8.
 NSaved= 8 IEnMin= 8 EnMin= -3074.47294395196     IErMin= 8 ErrMin= 5.52D-07
 ErrMax= 5.52D-07  0.00D+00 EMaxC= 1.00D-01 BMatC= 4.88D-11 BMatP= 1.95D-09
 IDIUse=1 WtCom= 1.00D+00 WtEn= 0.00D+00
 Coeff-Com:  0.313D-04-0.131D-02-0.944D-04 0.102D-02 0.144D-01 0.419D-01
 Coeff-Com:  0.193D+00 0.751D+00
 Coeff:      0.313D-04-0.131D-02-0.944D-04 0.102D-02 0.144D-01 0.419D-01
 Coeff:      0.193D+00 0.751D+00
 Gap=     0.197 Goal=   None    Shift=    0.000
 RMSDP=6.13D-08 MaxDP=1.85D-06 DE=-2.04D-09 OVMax= 2.53D-06

 Cycle   9  Pass 1  IDiag  1:
 E= -3074.47294395201     Delta-E=       -0.000000000053 Rises=F Damp=F
 DIIS: error= 1.18D-07 at cycle   9 NSaved=   9.
 NSaved= 9 IEnMin= 9 EnMin= -3074.47294395201     IErMin= 9 ErrMin= 1.18D-07
 ErrMax= 1.18D-07  0.00D+00 EMaxC= 1.00D-01 BMatC= 2.85D-12 BMatP= 4.88D-11
 IDIUse=1 WtCom= 1.00D+00 WtEn= 0.00D+00
 Coeff-Com:  0.571D-05-0.123D-03 0.346D-04 0.481D-04-0.118D-02-0.144D-02
 Coeff-Com:  0.815D-02 0.214D+00 0.781D+00
 Coeff:      0.571D-05-0.123D-03 0.346D-04 0.481D-04-0.118D-02-0.144D-02
 Coeff:      0.815D-02 0.214D+00 0.781D+00
 Gap=     0.197 Goal=   None    Shift=    0.000
 RMSDP=1.95D-08 MaxDP=6.91D-07 DE=-5.32D-11 OVMax= 9.24D-07

 Cycle  10  Pass 1  IDiag  1:
 E= -3074.47294395202     Delta-E=       -0.000000000013 Rises=F Damp=F
 DIIS: error= 3.11D-08 at cycle  10 NSaved=  10.
 NSaved=10 IEnMin=10 EnMin= -3074.47294395202     IErMin=10 ErrMin= 3.11D-08
 ErrMax= 3.11D-08  0.00D+00 EMaxC= 1.00D-01 BMatC= 8.81D-14 BMatP= 2.85D-12
 IDIUse=1 WtCom= 1.00D+00 WtEn= 0.00D+00
 Coeff-Com:  0.225D-05-0.247D-04 0.130D-04-0.111D-04-0.928D-03-0.174D-02
 Coeff-Com: -0.543D-03 0.784D-01 0.319D+00 0.606D+00
 Coeff:      0.225D-05-0.247D-04 0.130D-04-0.111D-04-0.928D-03-0.174D-02
 Coeff:     -0.543D-03 0.784D-01 0.319D+00 0.606D+00
 Gap=     0.197 Goal=   None    Shift=    0.000
 RMSDP=1.73D-09 MaxDP=4.25D-08 DE=-1.27D-11 OVMax= 8.35D-08

 CoulSu:  requested number of processors reduced to:  17 ShMem   1 Linda.
 CoulSu:  requested number of processors reduced to:  16 ShMem   1 Linda.
 Error on total polarization charges =  0.00296
 SCF Done:  E(RB3LYP) =  -3074.47294395     A.U. after   10 cycles
            NFock= 10  Conv=0.17D-08     -V/T= 2.0015
 KE= 3.069812793777D+03 PE=-7.699265109387D+03 EE= 1.381910577429D+03
 SMD-CDS (non-electrostatic) energy       (kcal/mol) =      -3.39
 (included in total energy above)
 Leave Link  502 at Fri Oct 18 01:01:55 2019, MaxMem=   104857600 cpu:             126.4 elap:               6.0
 (Enter /share/home/wli/program/opt/Chem_soft/g16/l801.exe)
 DoSCS=F DFT=T ScalE2(SS,OS)=  1.000000  1.000000
 Range of M.O.s used for correlation:     1   134
 NBasis=   134 NAE=    31 NBE=    31 NFC=     0 NFV=     0
 NROrb=    134 NOA=    31 NOB=    31 NVA=   103 NVB=   103
 Leave Link  801 at Fri Oct 18 01:01:55 2019, MaxMem=   104857600 cpu:               0.5 elap:               0.0
 (Enter /share/home/wli/program/opt/Chem_soft/g16/l1101.exe)
 Using compressed storage, NAtomX=     6.
 Will process      7 centers per pass.
 PrsmSu:  requested number of processors reduced to:  11 ShMem   1 Linda.
   1 Symmetry operations used in ECPInt.
 ECPInt:  NShTT=    1378 NPrTT=    5593 LenC2=    1324 LenP2D=    4257.
 LDataN:  DoStor=T MaxTD1= 7 Len=  274
 Number of processors reduced to  18 by ecpmxn.
 R6Disp: Adding Grimme-D3(BJ) dispersion energy 1st derivatives to the gradient.
 Leave Link 1101 at Fri Oct 18 01:01:56 2019, MaxMem=   104857600 cpu:              16.2 elap:               0.7
 (Enter /share/home/wli/program/opt/Chem_soft/g16/l1102.exe)
 Symmetrizing basis deriv contribution to polar:
 IMax=3 JMax=2 DiffMx= 0.00D+00
 Leave Link 1102 at Fri Oct 18 01:01:56 2019, MaxMem=   104857600 cpu:               2.4 elap:               0.1
 (Enter /share/home/wli/program/opt/Chem_soft/g16/l1110.exe)
 Forming Gx(P) for the SCF density, NAtomX=     6.
 Integral derivatives from FoFJK, PRISM(SPDF).
 Do as many integral derivatives as possible in FoFJK.
 G2DrvN: MDV=     104857020.
 G2DrvN: will do     7 centers at a time, making    1 passes.
 Calling FoFCou, ICntrl=  3107 FMM=F I1Cent=   0 AccDes= 0.00D+00.
 FoFJK:  IHMeth= 1 ICntrl=    3107 DoSepK=F KAlg= 0 I1Cent=           0 FoldK=F
 IRaf=         0 NMat=       1 IRICut=       1 DoRegI=T DoRafI=F ISym2E= 0 IDoP0=0 IntGTp=1.
 FoFCou: FMM=F IPFlag=           0 FMFlag=      100000 FMFlg1=           0
         NFxFlg=           0 DoJE=F BraDBF=F KetDBF=F FulRan=T
         wScrn=  0.000000 ICntrl=      3107 IOpCl=  0 I1Cent=           0 NGrid=           0
         NMat0=    1 NMatS0=      1 NMatT0=    0 NMatD0=    1 NMtDS0=    0 NMtDT0=    0
 Symmetry not used in FoFCou.
 NEqPCM:  Using equilibrium solvation (IEInf=0, Eps=   2.2706, EpsInf=   2.2533)
 G2PCM: DoFxE=T DoFxN=T DoGrad=T DoDP/DQ/DG/TGxP=FFFF NFrqRd=   0 IEInf=0 SqF1=F DoCFld=F IF1Alg=4.
 GePol: Maximum number of non-zero 1st derivatives   =     565
 CoulSu:  requested number of processors reduced to:  13 ShMem   1 Linda.
 CoulSu:  requested number of processors reduced to:  13 ShMem   1 Linda.
 CoulSu:  requested number of processors reduced to:  13 ShMem   1 Linda.
 CoulSu:  requested number of processors reduced to:  17 ShMem   1 Linda.
 CoulSu:  requested number of processors reduced to:  23 ShMem   1 Linda.
 CoulSu:  requested number of processors reduced to:  13 ShMem   1 Linda.
 CoulSu:  requested number of processors reduced to:  13 ShMem   1 Linda.
 CoulSu:  requested number of processors reduced to:  13 ShMem   1 Linda.
 CoulSu:  requested number of processors reduced to:  13 ShMem   1 Linda.
 End of G2Drv F.D. properties file   721 does not exist.
 End of G2Drv F.D. properties file   722 does not exist.
 End of G2Drv F.D. properties file   788 does not exist.
 Leave Link 1110 at Fri Oct 18 01:02:03 2019, MaxMem=   104857600 cpu:             155.1 elap:               6.8
 (Enter /share/home/wli/program/opt/Chem_soft/g16/l1002.exe)
 Minotr:  Closed shell wavefunction.
          IDoAtm=111111
 NEqPCM:  Using equilibrium solvation (IEInf=0, Eps=   2.2706, EpsInf=   2.2533)
          Direct CPHF calculation.
          Differentiating once with respect to electric field.
                with respect to dipole field.
          Differentiating once with respect to nuclear coordinates.
          Requested convergence is 1.0D-08 RMS, and 1.0D-07 maximum.
          Secondary convergence is 1.0D-12 RMS, and 1.0D-12 maximum.
          NewPWx=T KeepS1=F KeepF1=F KeepIn=T MapXYZ=F SortEE=F KeepMc=T.
         1761 words used for storage of precomputed grid.
 Keep R1 ints in memory in canonical form, NReq=64236638.
 FoFCou: FMM=F IPFlag=           0 FMFlag=           0 FMFlg1=           0
         NFxFlg=           0 DoJE=F BraDBF=F KetDBF=F FulRan=T
         wScrn=  0.000000 ICntrl=       600 IOpCl=  0 I1Cent=           0 NGrid=           0
         NMat0=    1 NMatS0=   9045 NMatT0=    0 NMatD0=    1 NMtDS0=    0 NMtDT0=    0
 Symmetry not used in FoFCou.
 Two-electron integral symmetry not used.
          MDV=     104857600 using IRadAn=       1.
          Solving linear equations simultaneously, MaxMat=       0.
 CoulSu:  requested number of processors reduced to:  13 ShMem   1 Linda.
 CoulSu:  requested number of processors reduced to:  13 ShMem   1 Linda.
          There are    21 degrees of freedom in the 1st order CPHF.  IDoFFX=6 NUNeed=     3.
[...]
 Red. masses --      1.0079                 1.1238                 1.1230
 Frc consts  --      6.0697                 7.6090                 7.6265
 IR Inten    --      0.2417                 6.0718                 5.7905
  Atom  AN      X      Y      Z        X      Y      Z        X      Y      Z
     1   6    -0.00  -0.00  -0.00    -0.00  -0.10  -0.00    -0.00   0.00  -0.10
     2   1     0.01   0.59   0.04     0.01   0.80   0.05     0.00   0.03  -0.01
     3   1     0.00  -0.26  -0.51    -0.00   0.17   0.36    -0.00   0.33   0.64
     4   1     0.00  -0.31   0.48    -0.00   0.24  -0.38     0.01  -0.38   0.57
     5  17    -0.00   0.00  -0.00    -0.00   0.00  -0.00    -0.00  -0.00   0.00
     6  35     0.00   0.00  -0.00    -0.00   0.00  -0.00    -0.00   0.00   0.00

 -------------------
 - Thermochemistry -
 -------------------
 Temperature   298.150 Kelvin.  Pressure   1.00000 Atm.
 Atom     1 has atomic number  6 and mass  12.00000
 Atom     2 has atomic number  1 and mass   1.00783
 Atom     3 has atomic number  1 and mass   1.00783
 Atom     4 has atomic number  1 and mass   1.00783
 Atom     5 has atomic number 17 and mass  34.96885
 Atom     6 has atomic number 35 and mass  78.91834
 Molecular mass:   128.91066 amu.
 Principal axes and moments of inertia in atomic units:
                           1         2         3
     Eigenvalues --    12.371262092.565682092.56990
           X            1.00000  -0.00000   0.00000
           Y            0.00000   1.00000  -0.00269
           Z           -0.00000   0.00269   1.00000
 This molecule is an asymmetric top.
 Rotational symmetry number  1.
 Rotational temperatures (Kelvin)      7.00122     0.04139     0.04139
 Rotational constants (GHZ):         145.88170     0.86245     0.86245
    1 imaginary frequencies ignored.
 Zero-point vibrational energy      96437.2 (Joules/Mol)
                                   23.04905 (Kcal/Mol)
 Warning -- explicit consideration of   3 degrees of freedom as
           vibrations may cause significant error
 Vibrational temperatures:    237.57   242.10   242.96  1289.20  1307.37
          (Kelvin)           1472.85  2019.11  2024.38  4599.82  4877.31
                             4884.79
 
 Zero-point correction=                           0.036731 (Hartree/Particle)
 Thermal correction to Energy=                    0.041560
 Thermal correction to Enthalpy=                  0.042504
 Thermal correction to Gibbs Free Energy=         0.007457
 Sum of electronic and zero-point Energies=          -3074.436249
 Sum of electronic and thermal Energies=             -3074.431420
 Sum of electronic and thermal Enthalpies=           -3074.430476
 Sum of electronic and thermal Free Energies=        -3074.465523
 
                     E (Thermal)             CV                S
                      KCal/Mol        Cal/Mol-Kelvin    Cal/Mol-Kelvin
 Total                   26.079             13.163             73.762
 Electronic               0.000              0.000              0.000
 Translational            0.889              2.981             40.475
 Rotational               0.889              2.981             25.497
 Vibrational             24.302              7.202              7.790
 Vibration     1          0.624              1.885              2.490
 Vibration     2          0.625              1.882              2.455
 Vibration     3          0.625              1.881              2.448
                       Q            Log10(Q)             Ln(Q)
 Total Bot       0.371479D-03         -3.430066         -7.898019
 Total V=0       0.291746D+14         13.465005         31.004319
 Vib (Bot)       0.775023D-16        -16.110685        -37.096224
 Vib (Bot)    1  0.122242D+01          0.087222          0.200836
 Vib (Bot)    2  0.119830D+01          0.078567          0.180907
 Vib (Bot)    3  0.119385D+01          0.076951          0.177186
 Vib (V=0)       0.608675D+01          0.784385          1.806114
 Vib (V=0)    1  0.182073D+01          0.260245          0.599236
 Vib (V=0)    2  0.179843D+01          0.254895          0.586917
 Vib (V=0)    3  0.179433D+01          0.253902          0.584631
 Electronic      0.100000D+01          0.000000          0.000000
 Translational   0.575290D+08          7.759887         17.867800
 Rotational      0.833167D+05          4.920732         11.330405
 
                                                         Title Card Required
                                                             IR Spectrum
 
     33      3                                                                 11             1                                      
     33      1                                                                 44             0   98                        111      
     99      9                                                                 00             2   09                        666      
     50      7                                                                 73             4   96                        985      
 
     XX      X                                                                 XX             X   XX                        XXX      
                                                                                              X                                      
                                                                                              X                                      
                                                                                              X                                      
                                                                                              X                                      
                                                                                              X                                      
                                                                                              X                                      
                                                                                              X                                      
                                                                                              X                                      
                                                                                              X                                      
                                                                                              X                                      
                                                                                              X                                      
                                                                                              X                                      
                                                                                              X                                      
                                                                                              X                                      
                                                                                              X                                      
                                                                                              X                                      
                                                                                              X                                      
                                                                                              X                                      
                                                                                              X                                      
 
 ***** Axes restored to original set *****
 -------------------------------------------------------------------
 Center     Atomic                   Forces (Hartrees/Bohr)
 Number     Number              X              Y              Z
 -------------------------------------------------------------------
      1        6           0.000025341    0.000028112   -0.000001620
      2        1          -0.000065765   -0.000061343   -0.000121307
      3        1           0.000158534    0.000027534   -0.000061062
      4        1           0.000008158   -0.000060084    0.000035216
      5       17          -0.000092463    0.000167431    0.000143673
      6       35          -0.000033804   -0.000101649    0.000005100
 -------------------------------------------------------------------
 Cartesian Forces:  Max     0.000167431 RMS     0.000084163
 Force constants in Cartesian coordinates: 
                1             2             3             4             5 
      1 -0.469824D-01
      2 -0.738666D-03  0.681107D+00
      3 -0.181660D-03  0.398442D-03  0.679476D+00
      4 -0.888458D-02  0.301426D-02  0.129509D-02  0.344311D-01
      5  0.238316D-02 -0.309202D+00 -0.137497D+00 -0.351247D-02  0.311560D+00
      6  0.107497D-02 -0.137422D+00 -0.128962D+00 -0.158083D-02  0.143250D+00
      7 -0.883137D-02 -0.253284D-02  0.171245D-02  0.256533D-02  0.275881D-03
      8 -0.196842D-02 -0.293947D+00  0.146496D+00 -0.236984D-03 -0.118307D-01
      9  0.145501D-02  0.146531D+00 -0.144713D+00 -0.176313D-03 -0.128585D-01
     10 -0.901149D-02 -0.533517D-04 -0.353159D-02  0.255878D-02 -0.275373D-04
     11  0.120245D-03 -0.552014D-01 -0.862606D-02 -0.295764D-03  0.438347D-02
     12 -0.277243D-02 -0.893648D-02 -0.383244D+00 -0.119366D-03  0.352414D-02
     13  0.379037D-01 -0.141399D-03  0.276018D-03 -0.159532D-01  0.280335D-02
     14 -0.991476D-04 -0.121558D-01 -0.285781D-03 -0.524981D-02  0.266758D-02
     15  0.138046D-03 -0.229686D-03 -0.117932D-01 -0.281386D-02  0.205882D-02
     16  0.358062D-01  0.451992D-03  0.429698D-03 -0.147175D-01 -0.192238D-02
     17  0.302833D-03 -0.106006D-01 -0.485457D-03  0.628077D-02  0.242256D-02
     18  0.286073D-03 -0.341137D-03 -0.107628D-01  0.339528D-02  0.152241D-02
                6             7             8             9            10 
      6  0.121807D+00
      7 -0.226642D-03  0.328720D-01
      8  0.140631D-01  0.113143D-02  0.296674D+00
      9  0.104605D-01 -0.902109D-03 -0.153867D+00  0.139868D+00
     10  0.309534D-03  0.257061D-02  0.568460D-04  0.312191D-03  0.334487D-01
     11 -0.233885D-01  0.294574D-03  0.538319D-02  0.228310D-01  0.273353D-03
     12 -0.574076D-02 -0.129107D-03 -0.410458D-02 -0.681467D-02  0.275914D-02
     13  0.153239D-02 -0.144887D-01 -0.137528D-02  0.828508D-03 -0.149411D-01
     14  0.199583D-02  0.632971D-02  0.216638D-02 -0.140202D-02 -0.127531D-03
     15  0.151716D-02 -0.380106D-02 -0.136072D-02  0.696117D-03  0.694779D-02
     16 -0.110942D-02 -0.146879D-01  0.239241D-02 -0.151728D-02 -0.146255D-01
     17  0.150163D-02 -0.549875D-02  0.155420D-02 -0.123398D-02 -0.121779D-03
     18  0.918689D-03  0.334647D-02 -0.122602D-02  0.503571D-03 -0.679706D-02
               11            12            13            14            15 
     11  0.455582D-01
     12  0.949021D-02  0.390654D+00
     13 -0.419965D-03 -0.217270D-02  0.302276D-01
     14 -0.124268D-03 -0.109430D-03 -0.844475D-03  0.585194D-02
     15 -0.265450D-03  0.288306D-02 -0.454771D-03 -0.206371D-03  0.511118D-02
     16  0.275567D-04  0.243447D-02 -0.227484D-01 -0.874590D-05 -0.161437D-04
     17  0.000000D+00  0.136147D-03 -0.222338D-04  0.159423D-02  0.340729D-05
     18 -0.412778D-04  0.226257D-02 -0.944622D-05  0.777173D-05  0.158572D-02
               16            17            18 
     16  0.309731D-01
     17 -0.940832D-03  0.502891D-02
     18 -0.221319D-03  0.782467D-04  0.549224D-02
 Red2BG is reusing G-inverse.
 Force constants in internal coordinates: 
                1             2             3             4             5 
      1  0.388536D+00
      2 -0.152000D-03  0.390961D+00
      3 -0.164211D-03 -0.135398D-03  0.390934D+00
      4 -0.332504D-02 -0.170030D-02 -0.229727D-02  0.302284D-01
      5 -0.210150D-02 -0.273510D-02 -0.232039D-02  0.227484D-01  0.309726D-01
      6  0.193558D-02  0.169912D-02 -0.329777D-02  0.707344D-04 -0.456754D-04
      7  0.133862D-02 -0.329814D-02  0.166395D-02  0.924352D-04 -0.170335D-03
      8 -0.579872D-02  0.169218D-02  0.169726D-02  0.496164D-02 -0.454464D-02
      9 -0.394052D-02  0.179375D-02  0.153198D-02 -0.629825D-02  0.579045D-02
     10 -0.328192D-02  0.160905D-02  0.163657D-02  0.231755D-03 -0.168073D-03
     11  0.219126D-02 -0.299519D-02  0.191898D-02  0.496160D-02 -0.529536D-02
     12  0.169734D-02 -0.405435D-02  0.158583D-02 -0.430234D-02  0.436723D-02
     13  0.331433D-02  0.168616D-02 -0.350916D-02  0.536508D-02 -0.502889D-02
     14  0.254338D-02  0.187277D-02 -0.322585D-02 -0.468707D-02  0.471051D-02
     15 -0.973923D-02  0.348593D-02  0.322924D-02 -0.133661D-02  0.124581D-02
     16  0.113614D-02  0.612835D-02 -0.591448D-02  0.107801D-04  0.352203D-03
     17 -0.316102D-03  0.473688D-03  0.737400D-04  0.176465D-01 -0.171617D-01
     18  0.197524D-02  0.171904D-02 -0.334363D-02 -0.536903D-04  0.782516D-04
     19 -0.190898D-02 -0.166903D-02  0.325864D-02  0.628997D-04 -0.825159D-04
     20 -0.137251D-02  0.334655D-02 -0.169079D-02  0.542613D-04  0.343303D-04
     21  0.132002D-02 -0.324912D-02  0.164127D-02 -0.555909D-04 -0.288403D-04
     22 -0.334775D-02  0.162752D-02  0.165283D-02  0.107952D-03 -0.439213D-04
     23  0.322901D-02 -0.158009D-02 -0.161737D-02 -0.118491D-03  0.536757D-04
                6             7             8             9            10 
      6  0.684560D-02
      7 -0.340441D-02  0.683292D-02
      8  0.160780D-03  0.687026D-04  0.272996D-01
      9 -0.597641D-04 -0.409175D-03 -0.168133D-01  0.302233D-01
     10 -0.344118D-02 -0.342394D-02 -0.118853D-03  0.340166D-03  0.686937D-02
     11  0.146107D-03 -0.209625D-03 -0.119899D-01  0.571495D-02  0.178987D-03
     12 -0.224360D-03  0.280501D-03  0.632152D-02 -0.122845D-01 -0.157465D-03
     13 -0.309552D-03  0.326594D-03 -0.110412D-01  0.612112D-02  0.982804D-04
     14  0.285921D-03 -0.518842D-04  0.621747D-02 -0.129690D-01 -0.345351D-03
     15  0.101016D-03 -0.340472D-03  0.104862D-01  0.134099D-01  0.221313D-03
     16  0.345505D-04  0.113577D-03  0.488621D-03 -0.159790D-03 -0.153983D-03
     17  0.102066D-03  0.153360D-03  0.494539D-02 -0.575454D-02  0.138631D-03
     18  0.684248D-02 -0.340281D-02 -0.273714D-05  0.630893D-04 -0.344252D-02
     19 -0.684268D-02  0.340621D-02 -0.345083D-04 -0.155321D-03  0.343938D-02
     20  0.340268D-02 -0.682819D-02  0.155585D-03  0.261332D-03  0.342414D-02
     21 -0.340177D-02  0.682754D-02 -0.738402D-04 -0.177157D-03 -0.342443D-02
     22 -0.343980D-02 -0.342538D-02  0.158322D-03  0.198243D-03  0.686666D-02
     23  0.344091D-02  0.342133D-02 -0.393319D-04 -0.218362D-04 -0.686381D-02
               11            12            13            14            15 
     11  0.288201D-01
     12 -0.162546D-01  0.278436D-01
     13 -0.123515D-01  0.600596D-02  0.278626D-01
     14  0.606505D-02 -0.116280D-01 -0.165949D-01  0.289125D-01
     15 -0.627494D-02 -0.596301D-02 -0.492008D-02 -0.675152D-02  0.238962D-01
     16 -0.108870D-01 -0.993928D-02  0.101707D-01  0.103251D-01  0.328831D-03
     17  0.516138D-02 -0.453053D-02  0.514808D-02 -0.496932D-02 -0.809150D-03
     18 -0.944624D-04 -0.834850D-04 -0.153046D-04  0.132046D-03  0.603522D-04
     19 -0.647685D-05  0.160581D-04  0.156086D-03  0.250721D-04 -0.189830D-03
     20 -0.136057D-03 -0.105543D-03 -0.811043D-04 -0.993797D-04  0.416916D-03
     21 -0.508810D-04 -0.417390D-04  0.185221D-03  0.163453D-03 -0.250998D-03
     22 -0.415942D-04 -0.220578D-04 -0.657997D-04 -0.231425D-03  0.356564D-03
     23 -0.444041D-04 -0.577971D-04  0.291350D-04  0.138381D-03 -0.611681D-04
               16            17            18            19            20 
     16  0.238624D-01
     17 -0.261116D-03  0.176082D-01
     18  0.173179D-03 -0.248129D-04  0.684449D-02
     19  0.960671D-04  0.277882D-04 -0.684292D-02  0.684513D-02
     20  0.394302D-04 -0.100183D-04  0.340301D-02 -0.340491D-02  0.683012D-02
     21  0.250710D-03  0.885587D-05 -0.340059D-02  0.340487D-02 -0.682683D-02
     22 -0.133749D-03  0.147945D-04 -0.344149D-02  0.343800D-02  0.342711D-02
     23  0.154643D-03 -0.189323D-04  0.344233D-02 -0.344026D-02 -0.342192D-02
               21            22            23 
     21  0.682819D-02
     22 -0.342625D-02  0.686860D-02
     23  0.342331D-02 -0.686425D-02  0.686357D-02
 Leave Link  716 at Fri Oct 18 01:18:03 2019, MaxMem=   104857600 cpu:               6.1 elap:               0.3
 (Enter /share/home/wli/program/opt/Chem_soft/g16/l9999.exe)

 ----------------------------------------------------------------------

 Electric dipole moment (input orientation):
 (Debye = 10**-18 statcoulomb cm , SI units = C m)
                  (au)            (Debye)         (10**-30 SI)
   Tot        0.141388D+01      0.359372D+01      0.119874D+02
   x         -0.141388D+01     -0.359372D+01     -0.119874D+02
   y          0.103692D-02      0.263558D-02      0.879134D-02
   z         -0.739088D-03     -0.187857D-02     -0.626625D-02

 Dipole polarizability, Alpha (input orientation).
 (esu units = cm**3 , SI units = C**2 m**2 J**-1)
 Alpha(0;0):
               (au)            (10**-24 esu)      (10**-40 SI)
   iso        0.785854D+02      0.116452D+02      0.129570D+02
   aniso      0.108762D+03      0.161169D+02      0.179325D+02
   xx         0.151094D+03      0.223898D+02      0.249120D+02
   yx        -0.154699D-01     -0.229240D-02     -0.255064D-02
   yy         0.423301D+02      0.627267D+01      0.697928D+01
   zx         0.171860D-01      0.254670D-02      0.283358D-02
   zy        -0.352479D-02     -0.522320D-03     -0.581160D-03
   zz         0.423324D+02      0.627301D+01      0.697967D+01

 ----------------------------------------------------------------------

 Dipole orientation:
     6         -0.00060525          0.00153869         -1.41405452
     1         -0.96571795         -1.77610956         -1.43114290
     1         -1.05716917          1.72651710         -1.42551934
     1          2.02149546          0.05534743         -1.43075692
    17         -0.00223728          0.00220177         -5.90519359
    35          0.00185757         -0.00326829          3.27009564

 Electric dipole moment (dipole orientation):
 (Debye = 10**-18 statcoulomb cm , SI units = C m)
                  (au)            (Debye)         (10**-30 SI)
   Tot        0.141388D+01      0.359372D+01      0.119874D+02
   x          0.000000D+00      0.000000D+00      0.000000D+00
   y          0.000000D+00      0.000000D+00      0.000000D+00
   z          0.141388D+01      0.359372D+01      0.119874D+02

 Dipole polarizability, Alpha (dipole orientation).
 (esu units = cm**3 , SI units = C**2 m**2 J**-1)
 Alpha(0;0):
               (au)            (10**-24 esu)      (10**-40 SI)
   iso        0.785854D+02      0.116452D+02      0.129570D+02
   aniso      0.108762D+03      0.161169D+02      0.179325D+02
   xx         0.423324D+02      0.627301D+01      0.697967D+01
   yx        -0.354748D-02     -0.525682D-03     -0.584900D-03
   yy         0.423301D+02      0.627267D+01      0.697929D+01
   zx         0.396179D-01      0.587077D-02      0.653211D-02
   zy        -0.643227D-01     -0.953165D-02     -0.106054D-01
   zz         0.151094D+03      0.223898D+02      0.249120D+02

 ----------------------------------------------------------------------



 IN THIS SHORT LIFE

 THAT ONLY LASTS AN HOUR

 HOW MUCH, HOW LITTLE, IS WITHIN OUR POWER....


 EMILY DICKINSON BOLTS OF MELODY NO. 521
 Error termination request processed by link 9999.
 Error termination via Lnk1e in /share/home/wli/program/opt/Chem_soft/g16/l9999.exe at Fri Oct 18 01:18:04 2019.
 Job cpu time:       0 days  5 hours 46 minutes 12.0 seconds.
 Elapsed time:       0 days  0 hours 16 minutes 45.5 seconds.
 File lengths (MBytes):  RWF=    288 Int=      0 D2E=      0 Chk=     32 Scr=     32
