 Entering Gaussian System, Link 0=g16
 Input=ts_def2tzvp_scrf_cpcm_dichloromethane.gjf
 Output=ts_def2tzvp_scrf_cpcm_dichloromethane.log
 Initial command:
 /share/home/wli/program/opt/Chem_soft/g16/l1.exe "/scratch/wli/Gau-6090.inp" -scrdir="/scratch/wli/"
 Entering Link 1 = /share/home/wli/program/opt/Chem_soft/g16/l1.exe PID=      6091.
  
 Copyright (c) 1988,1990,1992,1993,1995,1998,2003,2009,2016,
            Gaussian, Inc.  All Rights Reserved.
  
 This is part of the Gaussian(R) 16 program.  It is based on
 the Gaussian(R) 09 system (copyright 2009, Gaussian, Inc.),
 the Gaussian(R) 03 system (copyright 2003, Gaussian, Inc.),
 the Gaussian(R) 98 system (copyright 1998, Gaussian, Inc.),
 the Gaussian(R) 94 system (copyright 1995, Gaussian, Inc.),
 the Gaussian 92(TM) system (copyright 1992, Gaussian, Inc.),
 the Gaussian 90(TM) system (copyright 1990, Gaussian, Inc.),
 the Gaussian 88(TM) system (copyright 1988, Gaussian, Inc.),
 the Gaussian 86(TM) system (copyright 1986, Carnegie Mellon
 University), and the Gaussian 82(TM) system (copyright 1983,
 Carnegie Mellon University). Gaussian is a federally registered
 trademark of Gaussian, Inc.
  
 This software contains proprietary and confidential information,
 including trade secrets, belonging to Gaussian, Inc.
  
 This software is provided under written license and may be
 used, copied, transmitted, or stored only in accord with that
 written license.
  
 The following legend is applicable only to US Government
 contracts under FAR:
  
                    RESTRICTED RIGHTS LEGEND
  
 Use, reproduction and disclosure by the US Government is
 subject to restrictions as set forth in subparagraphs (a)
 and (c) of the Commercial Computer Software - Restricted
 Rights clause in FAR 52.227-19.
  
 Gaussian, Inc.
 340 Quinnipiac St., Bldg. 40, Wallingford CT 06492
  
  
 ---------------------------------------------------------------
 Warning -- This program may not be used in any manner that
 competes with the business of Gaussian, Inc. or will provide
 assistance to any competitor of Gaussian, Inc.  The licensee
 of this program is prohibited from giving any competitor of
 Gaussian, Inc. access to this program.  By using this program,
 the user acknowledges that Gaussian, Inc. is engaged in the
 business of creating and licensing software in the field of
 computational chemistry and represents and warrants to the
 licensee that it is not a competitor of Gaussian, Inc. and that
 it will not use this program in any manner prohibited above.
 ---------------------------------------------------------------
  

 Cite this work as:
 Gaussian 16, Revision A.03,
 M. J. Frisch, G. W. Trucks, H. B. Schlegel, G. E. Scuseria, 
 M. A. Robb, J. R. Cheeseman, G. Scalmani, V. Barone, 
 G. A. Petersson, H. Nakatsuji, X. Li, M. Caricato, A. V. Marenich, 
 J. Bloino, B. G. Janesko, R. Gomperts, B. Mennucci, H. P. Hratchian, 
 J. V. Ortiz, A. F. Izmaylov, J. L. Sonnenberg, D. Williams-Young, 
 F. Ding, F. Lipparini, F. Egidi, J. Goings, B. Peng, A. Petrone, 
 T. Henderson, D. Ranasinghe, V. G. Zakrzewski, J. Gao, N. Rega, 
 G. Zheng, W. Liang, M. Hada, M. Ehara, K. Toyota, R. Fukuda, 
 J. Hasegawa, M. Ishida, T. Nakajima, Y. Honda, O. Kitao, H. Nakai, 
 T. Vreven, K. Throssell, J. A. Montgomery, Jr., J. E. Peralta, 
 F. Ogliaro, M. J. Bearpark, J. J. Heyd, E. N. Brothers, K. N. Kudin, 
 V. N. Staroverov, T. A. Keith, R. Kobayashi, J. Normand, 
 K. Raghavachari, A. P. Rendell, J. C. Burant, S. S. Iyengar, 
 J. Tomasi, M. Cossi, J. M. Millam, M. Klene, C. Adamo, R. Cammi, 
 J. W. Ochterski, R. L. Martin, K. Morokuma, O. Farkas, 
 J. B. Foresman, and D. J. Fox, Gaussian, Inc., Wallingford CT, 2016.
 
 ******************************************
 Gaussian 16:  ES64L-G16RevA.03 25-Dec-2016
                18-Oct-2019 
 ******************************************
 %chk=ts_cpcm_dichloromethane_maugccpvtz.chk
 %nprocshared=24
 Will use up to   24 processors via shared memory.
 ----------------------------------------------------------------------
 #p opt=(calcall,ts,noeigen) freq b3lyp def2tzvp em=gd3bj scrf=(cpcm,so
 lvent=dichloromethane)
 ----------------------------------------------------------------------
 1/5=1,10=4,11=1,18=20,26=3,38=1/1,3;
 2/9=110,12=2,17=6,18=5,40=1/2;
 3/5=44,7=101,11=2,25=1,30=1,70=2101,71=2,72=9,74=-5,124=41,140=1/1,2,3;
 4//1;
 5/5=2,38=5,53=9/2;
 8/6=4,10=90,11=11/1;
 11/6=1,8=1,9=11,15=111,16=1/1,2,10;
 10/6=1/2;
 6/7=2,8=2,9=2,10=2,18=1,28=1/1;
 7/10=1,25=1/1,2,3,16;
 1/5=1,10=4,11=1,18=20,26=3/3(3);
 2/9=110/2;
 7/8=1,9=1,25=1,44=-1/16;
 99//99;
 2/9=110/2;
 3/5=44,7=101,11=2,25=1,30=1,70=2105,71=2,72=9,74=-5,124=41,140=1/1,2,3;
 4/5=5,16=3,69=1/1;
 5/5=2,38=5,53=9/2;
 8/6=4,10=90,11=11/1;
 11/6=1,8=1,9=11,15=111,16=1/1,2,10;
 10/6=1/2;
 7/10=1,25=1/1,2,3,16;
 1/5=1,10=4,11=1,18=20,26=3/3(-8);
 2/9=110/2;
 6/7=2,8=2,9=2,10=2,18=1,19=2,28=1/1;
 7/8=1,9=1,25=1,44=-1/16;
 99//99;
 Leave Link    1 at Fri Oct 18 01:08:42 2019, MaxMem=           0 cpu:              11.9 elap:               0.5
 (Enter /share/home/wli/program/opt/Chem_soft/g16/l101.exe)
 -------------------
 Title Card Required
 -------------------
 Symbolic Z-matrix:
 Charge = -1 Multiplicity = 1
 C                     0.7043    0.00002   0.00027 
 H                     0.7584   -0.9393   -0.50874 
 H                     0.7584    0.91052  -0.55864 
 H                     0.75836   0.02883   1.06826 
 Cl                    3.14574  0.        -0.00007 
 Br                   -1.71367  0.        -0.00004 
 
 Add virtual bond connecting atoms Br6        and C1         Dist= 4.57D+00.
 Add virtual bond connecting atoms Cl5        and C1         Dist= 4.61D+00.
 ITRead=  0  0  0  0  0  0
 MicOpt= -1 -1 -1 -1 -1 -1
 NAtoms=      6 NQM=        6 NQMF=       0 NMMI=      0 NMMIF=      0
                NMic=       0 NMicF=      0.
                    Isotopes and Nuclear Properties:
 (Nuclear quadrupole moments (NQMom) in fm**2, nuclear magnetic moments (NMagM)
  in nuclear magnetons)

  Atom         1           2           3           4           5           6
 IAtWgt=          12           1           1           1          35          79
 AtmWgt=  12.0000000   1.0078250   1.0078250   1.0078250  34.9688527  78.9183361
 NucSpn=           0           1           1           1           3           3
 AtZEff=  -0.0000000  -0.0000000  -0.0000000  -0.0000000  -0.0000000  -0.0000000
 NQMom=    0.0000000   0.0000000   0.0000000   0.0000000  -8.1650000  31.3000000
 NMagM=    0.0000000   2.7928460   2.7928460   2.7928460   0.8218740   2.1063990
 AtZNuc=   6.0000000   1.0000000   1.0000000   1.0000000  17.0000000  35.0000000
 Leave Link  101 at Fri Oct 18 01:08:42 2019, MaxMem=   104857600 cpu:               4.7 elap:               0.2
 (Enter /share/home/wli/program/opt/Chem_soft/g16/l103.exe)

 GradGradGradGradGradGradGradGradGradGradGradGradGradGradGradGradGradGrad
 Berny optimization.
 Initialization pass.
                           ----------------------------
                           !    Initial Parameters    !
                           ! (Angstroms and Degrees)  !
 --------------------------                            --------------------------
 ! Name  Definition              Value          Derivative Info.                !
 --------------------------------------------------------------------------------
 ! R1    R(1,2)                  1.0697         calculate D2E/DX2 analytically  !
 ! R2    R(1,3)                  1.0697         calculate D2E/DX2 analytically  !
 ! R3    R(1,4)                  1.0697         calculate D2E/DX2 analytically  !
 ! R4    R(1,5)                  2.4414         calculate D2E/DX2 analytically  !
 ! R5    R(1,6)                  2.418          calculate D2E/DX2 analytically  !
 ! A1    A(2,1,3)              119.75           calculate D2E/DX2 analytically  !
 ! A2    A(2,1,4)              119.7451         calculate D2E/DX2 analytically  !
 ! A3    A(2,1,5)               87.097          calculate D2E/DX2 analytically  !
 ! A4    A(2,1,6)               92.895          calculate D2E/DX2 analytically  !
 ! A5    A(3,1,4)              119.7448         calculate D2E/DX2 analytically  !
 ! A6    A(3,1,5)               87.0974         calculate D2E/DX2 analytically  !
 ! A7    A(3,1,6)               92.8953         calculate D2E/DX2 analytically  !
 ! A8    A(4,1,5)               87.1112         calculate D2E/DX2 analytically  !
 ! A9    A(4,1,6)               92.9041         calculate D2E/DX2 analytically  !
 ! A10   L(5,1,6,2,-1)         179.9919         calculate D2E/DX2 analytically  !
 ! A11   L(5,1,6,2,-2)         180.0131         calculate D2E/DX2 analytically  !
 ! D1    D(2,1,4,3)            169.9907         calculate D2E/DX2 analytically  !
 ! D2    D(2,1,5,3)            120.0042         calculate D2E/DX2 analytically  !
 ! D3    D(2,1,6,3)           -120.0028         calculate D2E/DX2 analytically  !
 ! D4    D(2,1,5,4)           -119.998          calculate D2E/DX2 analytically  !
 ! D5    D(2,1,6,4)            119.9987         calculate D2E/DX2 analytically  !
 ! D6    D(3,1,5,4)            119.9978         calculate D2E/DX2 analytically  !
 ! D7    D(3,1,6,4)           -119.9985         calculate D2E/DX2 analytically  !
 --------------------------------------------------------------------------------
 Trust Radius=3.00D-01 FncErr=1.00D-07 GrdErr=1.00D-06 EigMax=2.50D+02 EigMin=1.00D-04
 Number of steps in this run=     33 maximum allowed number of steps=    100.
 Search for a saddle point of order  1.
 GradGradGradGradGradGradGradGradGradGradGradGradGradGradGradGradGradGrad

 Leave Link  103 at Fri Oct 18 01:08:42 2019, MaxMem=   104857600 cpu:               0.9 elap:               0.1
 (Enter /share/home/wli/program/opt/Chem_soft/g16/l202.exe)
                          Input orientation:                          
 ---------------------------------------------------------------------
 Center     Atomic      Atomic             Coordinates (Angstroms)
 Number     Number       Type             X           Y           Z
 ---------------------------------------------------------------------
      1          6           0        0.704300    0.000015    0.000271
      2          1           0        0.758398   -0.939298   -0.508737
      3          1           0        0.758398    0.910520   -0.558639
      4          1           0        0.758363    0.028828    1.068261
      5         17           0        3.145737   -0.000004   -0.000074
      6         35           0       -1.713671   -0.000002   -0.000036
 ---------------------------------------------------------------------
                    Distance matrix (angstroms):
                    1          2          3          4          5
     1  C    0.000000
     2  H    1.069731   0.000000
     3  H    1.069732   1.850491   0.000000
     4  H    1.069746   1.850457   1.850455   0.000000
     5  Cl   2.441437   2.615416   2.615423   2.615669   0.000000
     6  Br   2.417971   2.692987   2.692993   2.693147   4.859408
                    6
     6  Br   0.000000
 This structure is nearly, but not quite of a higher symmetry.
 Consider Symm=Loose if the higher symmetry is desired.
 Stoichiometry    CH3BrCl(1-)
 Framework group  C1[X(CH3BrCl)]
 Deg. of freedom    12
 Full point group                 C1      NOp   1
 Largest Abelian subgroup         C1      NOp   1
 Largest concise Abelian subgroup C1      NOp   1
                         Standard orientation:                         
 ---------------------------------------------------------------------
 Center     Atomic      Atomic             Coordinates (Angstroms)
 Number     Number       Type             X           Y           Z
 ---------------------------------------------------------------------
      1          6           0        0.000249    0.003906    0.704289
      2          1           0       -0.513980    0.940658    0.753158
      3          1           0       -0.553586   -0.909380    0.763454
      4          1           0        1.068382   -0.018660    0.758512
      5         17           0       -0.000171    0.017512    3.145688
      6         35           0        0.000017   -0.009536   -1.713645
 ---------------------------------------------------------------------
 Rotational constants (GHZ):         146.4430850           0.8630335           0.8630334
 Leave Link  202 at Fri Oct 18 01:08:42 2019, MaxMem=   104857600 cpu:               1.8 elap:               0.1
 (Enter /share/home/wli/program/opt/Chem_soft/g16/l301.exe)
 Standard basis: def2TZVP (5D, 7F)
 Ernie: Thresh=  0.10000D-02 Tol=  0.10000D-05 Strict=F.
 There are   151 symmetry adapted cartesian basis functions of A   symmetry.
 There are   134 symmetry adapted basis functions of A   symmetry.
   134 basis functions,   258 primitive gaussians,   151 cartesian basis functions
    31 alpha electrons       31 beta electrons
       nuclear repulsion energy       173.5741035171 Hartrees.
 IExCor=  402 DFT=T Ex+Corr=B3LYP ExCW=0 ScaHFX=  0.200000
 ScaDFX=  0.800000  0.720000  1.000000  0.810000 ScalE2=  1.000000  1.000000
 IRadAn=      5 IRanWt=     -1 IRanGd=            0 ICorTp=0 IEmpDi=141
 NAtoms=    6 NActive=    6 NUniq=    6 SFac= 1.00D+00 NAtFMM=   60 NAOKFM=F Big=F
 Integral buffers will be    131072 words long.
 Raffenetti 2 integral format.
 Two-electron integral symmetry is turned on.
 R6Disp:  Grimme-D3(BJ) Dispersion energy=       -0.0069969608 Hartrees.
 Nuclear repulsion after empirical dispersion term =      173.5671065563 Hartrees.
 Force inversion solution in PCM.
 ------------------------------------------------------------------------------
 Polarizable Continuum Model (PCM)
 =================================
 Model                : C-PCM.
 Atomic radii         : UFF (Universal Force Field).
 Polarization charges : Total charges.
 Charge compensation  : None.
 Solution method      : Matrix inversion.
 Cavity type          : Scaled VdW (van der Waals Surface) (Alpha=1.100).
 Cavity algorithm     : GePol (No added spheres)
                        Default sphere list used, NSphG=    6.
                        Lebedev-Laikov grids with approx.  5.0 points / Ang**2.
                        Smoothing algorithm: York/Karplus (Gamma=1.0000).
                        Polarization charges: spherical gaussians, with
                                              point-specific exponents (IZeta= 3).
                        Self-potential: point-specific (ISelfS= 7).
                        Self-field    : sphere-specific E.n sum rule (ISelfD= 2).
 1st derivatives      : Analytical E(r).r(x)/FMM algorithm (CHGder, D1EAlg=3).
                        Cavity 1st derivative terms included.
 2nd derivatives      : Analytical E(r).r(xy)/FMM algorithm (CHGder, D2EAlg=3).
                        Cavity 2nd derivative terms included.
 Solvent              : Dichloromethane, Eps=   8.930000 Eps(inf)=   2.028346
 ------------------------------------------------------------------------------
 Spheres list:
 ISph  on   Nord     Re0    Alpha      Xe            Ye            Ze
    1   C      1    1.9255  1.100      0.000249      0.003906      0.704289
    2   H      2    1.4430  1.100     -0.513980      0.940658      0.753158
    3   H      3    1.4430  1.100     -0.553586     -0.909380      0.763454
    4   H      4    1.4430  1.100      1.068382     -0.018660      0.758512
    5  Cl      5    1.9735  1.100     -0.000171      0.017512      3.145688
    6  Br      6    2.0945  1.100      0.000017     -0.009536     -1.713645
 ------------------------------------------------------------------------------
 GePol: Number of generator spheres                  =       6
 GePol: Total number of spheres                      =       6
 GePol: Number of exposed spheres                    =       6 (100.00%)
 GePol: Number of points                             =     873
 GePol: Average weight of points                     =       0.16
 GePol: Minimum weight of points                     =   0.22D-10
 GePol: Maximum weight of points                     =    0.21616
 GePol: Number of points with low weight             =      25
 GePol: Fraction of low-weight points (<1% of avg)   =       2.86%
 GePol: Cavity surface area                          =    136.563 Ang**2
 GePol: Cavity volume                                =    119.900 Ang**3
 Leave Link  301 at Fri Oct 18 01:08:42 2019, MaxMem=   104857600 cpu:               2.9 elap:               0.1
 (Enter /share/home/wli/program/opt/Chem_soft/g16/l302.exe)
 NPDir=0 NMtPBC=     1 NCelOv=     1 NCel=       1 NClECP=     1 NCelD=      1
         NCelK=      1 NCelE2=     1 NClLst=     1 CellRange=     0.0.
 One-electron integrals computed using PRISM.
 One-electron integral symmetry used in STVInt
 PrsmSu:  requested number of processors reduced to:  13 ShMem   1 Linda.
   1 Symmetry operations used in ECPInt.
 ECPInt:  NShTT=    1378 NPrTT=    5593 LenC2=    1324 LenP2D=    4259.
 LDataN:  DoStor=T MaxTD1= 6 Len=  172
 NBasis=   134 RedAO= T EigKep=  1.43D-03  NBF=   134
 NBsUse=   134 1.00D-06 EigRej= -1.00D+00 NBFU=   134
 Precomputing XC quadrature grid using
 IXCGrd= 4 IRadAn=           5 IRanWt=          -1 IRanGd=           0 AccXCQ= 0.00D+00.
 Generated NRdTot=       0 NPtTot=           0 NUsed=           0 NTot=          32
 NSgBfM=   150   150   150   150   150 MxSgAt=     6 MxSgA2=     6.
 Leave Link  302 at Fri Oct 18 01:08:43 2019, MaxMem=   104857600 cpu:              12.0 elap:               0.5
 (Enter /share/home/wli/program/opt/Chem_soft/g16/l303.exe)
 DipDrv:  MaxL=1.
 Leave Link  303 at Fri Oct 18 01:08:43 2019, MaxMem=   104857600 cpu:               3.5 elap:               0.2
 (Enter /share/home/wli/program/opt/Chem_soft/g16/l401.exe)
 ExpMin= 9.52D-02 ExpMax= 5.65D+05 ExpMxC= 5.46D+03 IAcc=3 IRadAn=         5 AccDes= 0.00D+00
 Harris functional with IExCor=  402 and IRadAn=       5 diagonalized for initial guess.
 HarFok:  IExCor=  402 AccDes= 0.00D+00 IRadAn=         5 IDoV= 1 UseB2=F ITyADJ=14
 ICtDFT=  3500011 ScaDFX=  1.000000  1.000000  1.000000  1.000000
 FoFCou: FMM=F IPFlag=           0 FMFlag=      100000 FMFlg1=           0
         NFxFlg=           0 DoJE=T BraDBF=F KetDBF=T FulRan=T
         wScrn=  0.000000 ICntrl=       500 IOpCl=  0 I1Cent=   200000004 NGrid=           0
         NMat0=    1 NMatS0=      1 NMatT0=    0 NMatD0=    1 NMtDS0=    0 NMtDT0=    0
 Petite list used in FoFCou.
 Harris En= -3074.56577756357    
 JPrj=0 DoOrth=F DoCkMO=F.
 Leave Link  401 at Fri Oct 18 01:08:43 2019, MaxMem=   104857600 cpu:               8.9 elap:               0.4
 (Enter /share/home/wli/program/opt/Chem_soft/g16/l502.exe)
 Keep R1 ints in memory in canonical form, NReq=64315121.
 FoFCou: FMM=F IPFlag=           0 FMFlag=           0 FMFlg1=           0
         NFxFlg=           0 DoJE=F BraDBF=F KetDBF=F FulRan=T
         wScrn=  0.000000 ICntrl=       600 IOpCl=  0 I1Cent=           0 NGrid=           0
         NMat0=    1 NMatS0=   9045 NMatT0=    0 NMatD0=    1 NMtDS0=    0 NMtDT0=    0
 Symmetry not used in FoFCou.
 Two-electron integral symmetry not used.
 Closed shell SCF:
 Using DIIS extrapolation, IDIIS=  1040.
 NGot=   104857600 LenX=    63896377 LenY=    63873135
 Requested convergence on RMS density matrix=1.00D-08 within 128 cycles.
 Requested convergence on MAX density matrix=1.00D-06.
 Requested convergence on             energy=1.00D-06.
 No special actions if energy rises.

 Cycle   1  Pass 1  IDiag  1:
 Inv3:  Mode=1 IEnd=     2286387.
 Iteration    1 A*A^-1 deviation from unit magnitude is 3.89D-15 for    865.
 Iteration    1 A*A^-1 deviation from orthogonality  is 1.32D-15 for    335    104.
 Iteration    1 A^-1*A deviation from unit magnitude is 3.89D-15 for    865.
 Iteration    1 A^-1*A deviation from orthogonality  is 1.07D-15 for    228     81.
 E= -3074.40689852001    
 DIIS: error= 5.06D-02 at cycle   1 NSaved=   1.
 NSaved= 1 IEnMin= 1 EnMin= -3074.40689852001     IErMin= 1 ErrMin= 5.06D-02
 ErrMax= 5.06D-02  0.00D+00 EMaxC= 1.00D-01 BMatC= 2.13D-01 BMatP= 2.13D-01
 IDIUse=3 WtCom= 4.94D-01 WtEn= 5.06D-01
 Coeff-Com:  0.100D+01
 Coeff-En:   0.100D+01
 Coeff:      0.100D+01
 Gap=     0.306 Goal=   None    Shift=    0.000
 GapD=    0.306 DampG=1.000 DampE=0.500 DampFc=0.5000 IDamp=-1.
 Damping current iteration by 5.00D-01
 RMSDP=4.36D-03 MaxDP=1.29D-01              OVMax= 2.69D-01

 Cycle   2  Pass 1  IDiag  1:
 E= -3074.45084352288     Delta-E=       -0.043945002863 Rises=F Damp=T
 DIIS: error= 2.04D-02 at cycle   2 NSaved=   2.
 NSaved= 2 IEnMin= 2 EnMin= -3074.45084352288     IErMin= 2 ErrMin= 2.04D-02
 ErrMax= 2.04D-02  0.00D+00 EMaxC= 1.00D-01 BMatC= 2.54D-02 BMatP= 2.13D-01
 IDIUse=3 WtCom= 7.96D-01 WtEn= 2.04D-01
 Coeff-Com: -0.200D+00 0.120D+01
 Coeff-En:   0.000D+00 0.100D+01
 Coeff:     -0.159D+00 0.116D+01
 Gap=     0.194 Goal=   None    Shift=    0.000
 RMSDP=1.47D-03 MaxDP=3.99D-02 DE=-4.39D-02 OVMax= 1.95D-01

 Cycle   3  Pass 1  IDiag  1:
 E= -3074.48077710595     Delta-E=       -0.029933583070 Rises=F Damp=F
 DIIS: error= 1.33D-02 at cycle   3 NSaved=   3.
 NSaved= 3 IEnMin= 3 EnMin= -3074.48077710595     IErMin= 3 ErrMin= 1.33D-02
 ErrMax= 1.33D-02  0.00D+00 EMaxC= 1.00D-01 BMatC= 1.81D-02 BMatP= 2.54D-02
 IDIUse=3 WtCom= 8.67D-01 WtEn= 1.33D-01
 Coeff-Com: -0.194D+00 0.636D+00 0.558D+00
 Coeff-En:   0.000D+00 0.000D+00 0.100D+01
 Coeff:     -0.168D+00 0.551D+00 0.617D+00
 Gap=     0.209 Goal=   None    Shift=    0.000
 RMSDP=9.78D-04 MaxDP=2.48D-02 DE=-2.99D-02 OVMax= 1.11D-01

 Cycle   4  Pass 1  IDiag  1:
 E= -3074.49784522236     Delta-E=       -0.017068116417 Rises=F Damp=F
 DIIS: error= 4.98D-03 at cycle   4 NSaved=   4.
 NSaved= 4 IEnMin= 4 EnMin= -3074.49784522236     IErMin= 4 ErrMin= 4.98D-03
 ErrMax= 4.98D-03  0.00D+00 EMaxC= 1.00D-01 BMatC= 2.78D-03 BMatP= 1.81D-02
 IDIUse=3 WtCom= 9.50D-01 WtEn= 4.98D-02
 Coeff-Com: -0.190D-01 0.668D-01 0.298D+00 0.654D+00
 Coeff-En:   0.000D+00 0.000D+00 0.151D+00 0.849D+00
 Coeff:     -0.181D-01 0.634D-01 0.291D+00 0.664D+00
 Gap=     0.199 Goal=   None    Shift=    0.000
 RMSDP=3.59D-04 MaxDP=1.07D-02 DE=-1.71D-02 OVMax= 3.09D-02

 Cycle   5  Pass 1  IDiag  1:
 E= -3074.50096614007     Delta-E=       -0.003120917704 Rises=F Damp=F
 DIIS: error= 8.08D-04 at cycle   5 NSaved=   5.
 NSaved= 5 IEnMin= 5 EnMin= -3074.50096614007     IErMin= 5 ErrMin= 8.08D-04
 ErrMax= 8.08D-04  0.00D+00 EMaxC= 1.00D-01 BMatC= 9.69D-05 BMatP= 2.78D-03
 IDIUse=3 WtCom= 9.92D-01 WtEn= 8.08D-03
 Coeff-Com: -0.972D-02 0.188D-01 0.139D+00 0.328D+00 0.523D+00
 Coeff-En:   0.000D+00 0.000D+00 0.000D+00 0.000D+00 0.100D+01
 Coeff:     -0.964D-02 0.187D-01 0.138D+00 0.326D+00 0.527D+00
 Gap=     0.199 Goal=   None    Shift=    0.000
 RMSDP=8.53D-05 MaxDP=3.65D-03 DE=-3.12D-03 OVMax= 4.15D-03

 Cycle   6  Pass 1  IDiag  1:
 E= -3074.50103538353     Delta-E=       -0.000069243465 Rises=F Damp=F
 DIIS: error= 1.24D-04 at cycle   6 NSaved=   6.
 NSaved= 6 IEnMin= 6 EnMin= -3074.50103538353     IErMin= 6 ErrMin= 1.24D-04
 ErrMax= 1.24D-04  0.00D+00 EMaxC= 1.00D-01 BMatC= 3.94D-06 BMatP= 9.69D-05
 IDIUse=3 WtCom= 9.99D-01 WtEn= 1.24D-03
 Coeff-Com: -0.419D-03-0.573D-03 0.210D-01 0.529D-01 0.187D+00 0.740D+00
 Coeff-En:   0.000D+00 0.000D+00 0.000D+00 0.000D+00 0.000D+00 0.100D+01
 Coeff:     -0.418D-03-0.572D-03 0.210D-01 0.529D-01 0.187D+00 0.740D+00
 Gap=     0.200 Goal=   None    Shift=    0.000
 RMSDP=2.15D-05 MaxDP=6.46D-04 DE=-6.92D-05 OVMax= 1.90D-03

 Cycle   7  Pass 1  IDiag  1:
 E= -3074.50103858736     Delta-E=       -0.000003203826 Rises=F Damp=F
 DIIS: error= 9.90D-05 at cycle   7 NSaved=   7.
 NSaved= 7 IEnMin= 7 EnMin= -3074.50103858736     IErMin= 7 ErrMin= 9.90D-05
 ErrMax= 9.90D-05  0.00D+00 EMaxC= 1.00D-01 BMatC= 7.67D-07 BMatP= 3.94D-06
 IDIUse=1 WtCom= 1.00D+00 WtEn= 0.00D+00
 Coeff-Com:  0.791D-03-0.198D-02-0.649D-02-0.155D-01 0.238D-01 0.374D+00
 Coeff-Com:  0.625D+00
 Coeff:      0.791D-03-0.198D-02-0.649D-02-0.155D-01 0.238D-01 0.374D+00
 Coeff:      0.625D+00
 Gap=     0.200 Goal=   None    Shift=    0.000
 RMSDP=8.01D-06 MaxDP=3.19D-04 DE=-3.20D-06 OVMax= 4.09D-04

 Cycle   8  Pass 1  IDiag  1:
 E= -3074.50103932920     Delta-E=       -0.000000741844 Rises=F Damp=F
 DIIS: error= 7.80D-06 at cycle   8 NSaved=   8.
 NSaved= 8 IEnMin= 8 EnMin= -3074.50103932920     IErMin= 8 ErrMin= 7.80D-06
 ErrMax= 7.80D-06  0.00D+00 EMaxC= 1.00D-01 BMatC= 7.89D-09 BMatP= 7.67D-07
 IDIUse=1 WtCom= 1.00D+00 WtEn= 0.00D+00
 Coeff-Com:  0.153D-03-0.284D-03-0.152D-02-0.385D-02-0.477D-02 0.283D-01
 Coeff-Com:  0.134D+00 0.848D+00
 Coeff:      0.153D-03-0.284D-03-0.152D-02-0.385D-02-0.477D-02 0.283D-01
 Coeff:      0.134D+00 0.848D+00
 Gap=     0.200 Goal=   None    Shift=    0.000
 RMSDP=1.04D-06 MaxDP=3.51D-05 DE=-7.42D-07 OVMax= 8.19D-05

 Cycle   9  Pass 1  IDiag  1:
 E= -3074.50103933918     Delta-E=       -0.000000009974 Rises=F Damp=F
 DIIS: error= 1.90D-06 at cycle   9 NSaved=   9.
 NSaved= 9 IEnMin= 9 EnMin= -3074.50103933918     IErMin= 9 ErrMin= 1.90D-06
 ErrMax= 1.90D-06  0.00D+00 EMaxC= 1.00D-01 BMatC= 4.25D-10 BMatP= 7.89D-09
 IDIUse=1 WtCom= 1.00D+00 WtEn= 0.00D+00
 Coeff-Com:  0.438D-04-0.751D-04-0.329D-03-0.849D-03-0.244D-02-0.175D-02
 Coeff-Com:  0.169D-01 0.275D+00 0.713D+00
 Coeff:      0.438D-04-0.751D-04-0.329D-03-0.849D-03-0.244D-02-0.175D-02
 Coeff:      0.169D-01 0.275D+00 0.713D+00
 Gap=     0.200 Goal=   None    Shift=    0.000
 RMSDP=1.56D-07 MaxDP=4.63D-06 DE=-9.97D-09 OVMax= 5.82D-06

 Cycle  10  Pass 1  IDiag  1:
 E= -3074.50103933961     Delta-E=       -0.000000000430 Rises=F Damp=F
 DIIS: error= 4.66D-07 at cycle  10 NSaved=  10.
 NSaved=10 IEnMin=10 EnMin= -3074.50103933961     IErMin=10 ErrMin= 4.66D-07
 ErrMax= 4.66D-07  0.00D+00 EMaxC= 1.00D-01 BMatC= 2.83D-11 BMatP= 4.25D-10
 IDIUse=1 WtCom= 1.00D+00 WtEn= 0.00D+00
 Coeff-Com:  0.548D-06-0.132D-05 0.366D-04 0.824D-04-0.408D-03-0.287D-02
 Coeff-Com: -0.873D-02 0.166D-01 0.199D+00 0.796D+00
 Coeff:      0.548D-06-0.132D-05 0.366D-04 0.824D-04-0.408D-03-0.287D-02
 Coeff:     -0.873D-02 0.166D-01 0.199D+00 0.796D+00
 Gap=     0.200 Goal=   None    Shift=    0.000
 RMSDP=5.95D-08 MaxDP=1.49D-06 DE=-4.30D-10 OVMax= 1.88D-06

 Cycle  11  Pass 1  IDiag  1:
 E= -3074.50103933964     Delta-E=       -0.000000000038 Rises=F Damp=F
 DIIS: error= 5.71D-08 at cycle  11 NSaved=  11.
 NSaved=11 IEnMin=11 EnMin= -3074.50103933964     IErMin=11 ErrMin= 5.71D-08
 ErrMax= 5.71D-08  0.00D+00 EMaxC= 1.00D-01 BMatC= 3.61D-13 BMatP= 2.83D-11
 IDIUse=1 WtCom= 1.00D+00 WtEn= 0.00D+00
 Coeff-Com: -0.109D-05 0.215D-05 0.798D-05 0.249D-04 0.131D-04-0.104D-03
 Coeff-Com: -0.804D-03-0.314D-02 0.460D-03 0.907D-01 0.913D+00
 Coeff:     -0.109D-05 0.215D-05 0.798D-05 0.249D-04 0.131D-04-0.104D-03
 Coeff:     -0.804D-03-0.314D-02 0.460D-03 0.907D-01 0.913D+00
 Gap=     0.200 Goal=   None    Shift=    0.000
 RMSDP=4.58D-09 MaxDP=1.06D-07 DE=-3.82D-11 OVMax= 3.24D-07

 Error on total polarization charges =  0.01985
 SCF Done:  E(RB3LYP) =  -3074.50103934     A.U. after   11 cycles
            NFock= 11  Conv=0.46D-08     -V/T= 2.0015
 KE= 3.069823798941D+03 PE=-7.700141075176D+03 EE= 1.382249130340D+03
 Leave Link  502 at Fri Oct 18 01:08:49 2019, MaxMem=   104857600 cpu:             104.5 elap:               5.2
 (Enter /share/home/wli/program/opt/Chem_soft/g16/l801.exe)
 DoSCS=F DFT=T ScalE2(SS,OS)=  1.000000  1.000000
 Range of M.O.s used for correlation:     1   134
 NBasis=   134 NAE=    31 NBE=    31 NFC=     0 NFV=     0
 NROrb=    134 NOA=    31 NOB=    31 NVA=   103 NVB=   103
 Leave Link  801 at Fri Oct 18 01:08:49 2019, MaxMem=   104857600 cpu:               1.1 elap:               0.1
 (Enter /share/home/wli/program/opt/Chem_soft/g16/l1101.exe)
 Using compressed storage, NAtomX=     6.
 Will process      7 centers per pass.
 PrsmSu:  requested number of processors reduced to:  11 ShMem   1 Linda.
   1 Symmetry operations used in ECPInt.
 ECPInt:  NShTT=    1378 NPrTT=    5593 LenC2=    1324 LenP2D=    4259.
 LDataN:  DoStor=T MaxTD1= 7 Len=  274
 Number of processors reduced to  18 by ecpmxn.
 R6Disp: Adding Grimme-D3(BJ) dispersion energy 1st derivatives to the gradient.
 Leave Link 1101 at Fri Oct 18 01:08:49 2019, MaxMem=   104857600 cpu:              10.0 elap:               0.5
 (Enter /share/home/wli/program/opt/Chem_soft/g16/l1102.exe)
 Symmetrizing basis deriv contribution to polar:
 IMax=3 JMax=2 DiffMx= 0.00D+00
 Leave Link 1102 at Fri Oct 18 01:08:49 2019, MaxMem=   104857600 cpu:               2.3 elap:               0.1
 (Enter /share/home/wli/program/opt/Chem_soft/g16/l1110.exe)
 Forming Gx(P) for the SCF density, NAtomX=     6.
 Integral derivatives from FoFJK, PRISM(SPDF).
 Do as many integral derivatives as possible in FoFJK.
 G2DrvN: MDV=     104857020.
 G2DrvN: will do     7 centers at a time, making    1 passes.
 Calling FoFCou, ICntrl=  3107 FMM=F I1Cent=   0 AccDes= 0.00D+00.
 FoFJK:  IHMeth= 1 ICntrl=    3107 DoSepK=F KAlg= 0 I1Cent=           0 FoldK=F
 IRaf=         0 NMat=       1 IRICut=       1 DoRegI=T DoRafI=F ISym2E= 0 IDoP0=0 IntGTp=1.
 FoFCou: FMM=F IPFlag=           0 FMFlag=      100000 FMFlg1=           0
         NFxFlg=           0 DoJE=F BraDBF=F KetDBF=F FulRan=T
         wScrn=  0.000000 ICntrl=      3107 IOpCl=  0 I1Cent=           0 NGrid=           0
         NMat0=    1 NMatS0=      1 NMatT0=    0 NMatD0=    1 NMtDS0=    0 NMtDT0=    0
 Symmetry not used in FoFCou.
 NEqPCM:  Using equilibrium solvation (IEInf=0, Eps=   8.9300, EpsInf=   2.0283)
 G2PCM: DoFxE=T DoFxN=T DoGrad=T DoDP/DQ/DG/TGxP=FFFF NFrqRd=   0 IEInf=0 SqF1=F DoCFld=F IF1Alg=4.
 GePol: Maximum number of non-zero 1st derivatives   =     380
 CoulSu:  requested number of processors reduced to:  17 ShMem   1 Linda.
 CoulSu:  requested number of processors reduced to:  23 ShMem   1 Linda.
 End of G2Drv F.D. properties file   721 does not exist.
 End of G2Drv F.D. properties file   722 does not exist.
 End of G2Drv F.D. properties file   788 does not exist.
 Leave Link 1110 at Fri Oct 18 01:08:53 2019, MaxMem=   104857600 cpu:              98.2 elap:               4.2
 (Enter /share/home/wli/program/opt/Chem_soft/g16/l1002.exe)
 Minotr:  Closed shell wavefunction.
          IDoAtm=111111
 NEqPCM:  Using equilibrium solvation (IEInf=0, Eps=   8.9300, EpsInf=   2.0283)
          Direct CPHF calculation.
          Differentiating once with respect to electric field.
                with respect to dipole field.
          Differentiating once with respect to nuclear coordinates.
          Requested convergence is 1.0D-08 RMS, and 1.0D-07 maximum.
          Secondary convergence is 1.0D-12 RMS, and 1.0D-12 maximum.
          NewPWx=T KeepS1=F KeepF1=F KeepIn=T MapXYZ=F SortEE=F KeepMc=T.
         1761 words used for storage of precomputed grid.
 Keep R1 ints in memory in canonical form, NReq=64236638.
 FoFCou: FMM=F IPFlag=           0 FMFlag=           0 FMFlg1=           0
         NFxFlg=           0 DoJE=F BraDBF=F KetDBF=F FulRan=T
         wScrn=  0.000000 ICntrl=       600 IOpCl=  0 I1Cent=           0 NGrid=           0
         NMat0=    1 NMatS0=   9045 NMatT0=    0 NMatD0=    1 NMtDS0=    0 NMtDT0=    0
 Symmetry not used in FoFCou.
 Two-electron integral symmetry not used.
          MDV=     104857600 using IRadAn=       1.
          Solving linear equations simultaneously, MaxMat=       0.
 CoulSu:  requested number of processors reduced to:  13 ShMem   1 Linda.
 CoulSu:  requested number of processors reduced to:  13 ShMem   1 Linda.
          There are    21 degrees of freedom in the 1st order CPHF.  IDoFFX=6 NUNeed=     3.
     18 vectors produced by pass  0 Test12= 1.52D-14 4.76D-09 XBig12= 2.16D+02 1.40D+01.
 AX will form    18 AO Fock derivatives at one time.
 CoulSu:  requested number of processors reduced to:  15 ShMem   1 Linda.
 CoulSu:  requested number of processors reduced to:  14 ShMem   1 Linda.
     18 vectors produced by pass  1 Test12= 1.52D-14 4.76D-09 XBig12= 3.22D+01 1.98D+00.
 CoulSu:  requested number of processors reduced to:  15 ShMem   1 Linda.
 CoulSu:  requested number of processors reduced to:  14 ShMem   1 Linda.
     18 vectors produced by pass  2 Test12= 1.52D-14 4.76D-09 XBig12= 1.43D+00 2.45D-01.
 CoulSu:  requested number of processors reduced to:  15 ShMem   1 Linda.
 CoulSu:  requested number of processors reduced to:  14 ShMem   1 Linda.
     18 vectors produced by pass  3 Test12= 1.52D-14 4.76D-09 XBig12= 3.65D-02 4.36D-02.
 CoulSu:  requested number of processors reduced to:  15 ShMem   1 Linda.
 CoulSu:  requested number of processors reduced to:  14 ShMem   1 Linda.
     18 vectors produced by pass  4 Test12= 1.52D-14 4.76D-09 XBig12= 8.00D-04 9.47D-03.
 CoulSu:  requested number of processors reduced to:  15 ShMem   1 Linda.
 CoulSu:  requested number of processors reduced to:  14 ShMem   1 Linda.
     14 vectors produced by pass  5 Test12= 1.52D-14 4.76D-09 XBig12= 4.15D-06 5.85D-04.
 CoulSu:  requested number of processors reduced to:  17 ShMem   1 Linda.
 CoulSu:  requested number of processors reduced to:  16 ShMem   1 Linda.
      5 vectors produced by pass  6 Test12= 1.52D-14 4.76D-09 XBig12= 5.48D-09 1.94D-05.
      3 vectors produced by pass  7 Test12= 1.52D-14 4.76D-09 XBig12= 5.93D-12 5.28D-07.
      1 vectors produced by pass  8 Test12= 1.52D-14 4.76D-09 XBig12= 1.05D-14 1.97D-08.
 InvSVY:  IOpt=1 It=  1 EMax= 7.11D-15
 Solved reduced A of dimension   113 with    21 vectors.
 FullF1:  Do perturbations      1 to       3.
 Isotropic polarizability for W=    0.000000       92.27 Bohr**3.
 End of Minotr F.D. properties file   721 does not exist.
 End of Minotr F.D. properties file   722 does not exist.
 End of Minotr F.D. properties file   788 does not exist.
 Leave Link 1002 at Fri Oct 18 01:08:59 2019, MaxMem=   104857600 cpu:             129.1 elap:               6.0
 (Enter /share/home/wli/program/opt/Chem_soft/g16/l601.exe)
 Copying SCF densities to generalized density rwf, IOpCl= 0 IROHF=0.

 **********************************************************************

            Population analysis using the SCF density.

 **********************************************************************

 Orbital symmetries:
       Occupied  (A) (A) (A) (A) (A) (A) (A) (A) (A) (A) (A) (A)
                 (A) (A) (A) (A) (A) (A) (A) (A) (A) (A) (A) (A)
                 (A) (A) (A) (A) (A) (A) (A)
       Virtual   (A) (A) (A) (A) (A) (A) (A) (A) (A) (A) (A) (A)
                 (A) (A) (A) (A) (A) (A) (A) (A) (A) (A) (A) (A)
                 (A) (A) (A) (A) (A) (A) (A) (A) (A) (A) (A) (A)
                 (A) (A) (A) (A) (A) (A) (A) (A) (A) (A) (A) (A)
                 (A) (A) (A) (A) (A) (A) (A) (A) (A) (A) (A) (A)
                 (A) (A) (A) (A) (A) (A) (A) (A) (A) (A) (A) (A)
                 (A) (A) (A) (A) (A) (A) (A) (A) (A) (A) (A) (A)
                 (A) (A) (A) (A) (A) (A) (A) (A) (A) (A) (A) (A)
                 (A) (A) (A) (A) (A) (A) (A)
 The electronic state is 1-A.
 Alpha  occ. eigenvalues -- -482.78077-101.41315 -62.42923 -56.24413 -56.24240
 Alpha  occ. eigenvalues --  -56.24240 -10.21417  -9.34536  -8.62003  -7.10302
 Alpha  occ. eigenvalues --   -7.10029  -7.10029  -6.44572  -6.44044  -6.44044
 Alpha  occ. eigenvalues --   -2.56079  -2.55937  -2.55937  -2.55518  -2.55518
 Alpha  occ. eigenvalues --   -0.72688  -0.69699  -0.65005  -0.43053  -0.43052
 Alpha  occ. eigenvalues --   -0.30467  -0.24371  -0.24371  -0.23658  -0.23657
 Alpha  occ. eigenvalues --   -0.22525
 Alpha virt. eigenvalues --   -0.02568   0.07189   0.13332   0.13333   0.20715
 Alpha virt. eigenvalues --    0.21756   0.21759   0.27873   0.28488   0.28488
 Alpha virt. eigenvalues --    0.33708   0.33709   0.35163   0.36276   0.36277
 Alpha virt. eigenvalues --    0.41542   0.41544   0.42227   0.45026   0.48233
 Alpha virt. eigenvalues --    0.48235   0.50400   0.52624   0.52625   0.53044
 Alpha virt. eigenvalues --    0.53045   0.55451   0.78859   0.78861   0.79572
 Alpha virt. eigenvalues --    0.97715   0.97715   0.98133   1.11741   1.36052
 Alpha virt. eigenvalues --    1.38618   1.38619   1.39991   1.39991   1.46191
 Alpha virt. eigenvalues --    1.46940   1.46943   1.47024   1.48613   1.57260
 Alpha virt. eigenvalues --    1.57260   1.58627   1.58673   1.63637   1.63638
 Alpha virt. eigenvalues --    1.65064   1.68355   1.68359   1.80562   1.80563
 Alpha virt. eigenvalues --    1.83216   1.84290   1.84291   1.94928   1.94930
 Alpha virt. eigenvalues --    1.97426   2.04864   2.06759   2.06759   2.16033
 Alpha virt. eigenvalues --    2.16033   2.17284   2.17397   2.26649   2.26649
 Alpha virt. eigenvalues --    2.29429   2.29429   2.30519   2.34928   2.46019
 Alpha virt. eigenvalues --    2.46029   2.63137   2.67539   2.67543   2.79640
 Alpha virt. eigenvalues --    3.08095   3.08095   3.21406   3.21408   3.24263
 Alpha virt. eigenvalues --    3.30545   3.30546   3.62830   3.84781   4.04127
 Alpha virt. eigenvalues --    4.04130   4.07735   4.07735   4.16685   4.16687
 Alpha virt. eigenvalues --    4.28203   4.70695   7.42539  10.76494  10.76494
 Alpha virt. eigenvalues --   10.87687  22.11182  24.56999
          Condensed to atoms (all electrons):
               1          2          3          4          5          6
     1  C    4.877722   0.408151   0.408147   0.408125   0.010638   0.046931
     2  H    0.408151   0.488374  -0.021285  -0.021276  -0.003988  -0.014679
     3  H    0.408147  -0.021285   0.488394  -0.021276  -0.003983  -0.014679
     4  H    0.408125  -0.021276  -0.021276   0.488426  -0.003936  -0.014663
     5  Cl   0.010638  -0.003988  -0.003983  -0.003936  17.714582   0.009607
     6  Br   0.046931  -0.014679  -0.014679  -0.014663   0.009607  35.598835
 Mulliken charges:
               1
     1  C   -0.159713
     2  H    0.164704
     3  H    0.164682
     4  H    0.164599
     5  Cl  -0.722920
     6  Br  -0.611352
 Sum of Mulliken charges =  -1.00000
 Mulliken charges with hydrogens summed into heavy atoms:
               1
     1  C    0.334272
     5  Cl  -0.722920
     6  Br  -0.611352
 APT charges:
               1
     1  C    1.491690
     2  H   -0.023265
     3  H   -0.023186
     4  H   -0.023851
     5  Cl  -1.271050
     6  Br  -1.150338
 Sum of APT charges =  -1.00000
 APT charges with hydrogens summed into heavy atoms:
               1
     1  C    1.421388
     5  Cl  -1.271050
     6  Br  -1.150338
 Electronic spatial extent (au):  <R**2>=           1124.1330
 Charge=             -1.0000 electrons
 Dipole moment (field-independent basis, Debye):
    X=              0.0008    Y=             -0.0261    Z=             -4.6977  Tot=              4.6978
 Quadrupole moment (field-independent basis, Debye-Ang):
   XX=            -42.4187   YY=            -42.4189   ZZ=            -86.4147
   XY=             -0.0000   XZ=              0.0023   YZ=             -0.2450
 Traceless Quadrupole moment (field-independent basis, Debye-Ang):
   XX=             14.6654   YY=             14.6652   ZZ=            -29.3306
   XY=             -0.0000   XZ=              0.0023   YZ=             -0.2450
 Octapole moment (field-independent basis, Debye-Ang**2):
  XXX=              1.0990  YYY=             -0.1880  ZZZ=           -148.1493  XYY=             -1.0968
  XXY=             -0.1567  XXZ=            -15.4893  XZZ=              0.0041  YZZ=             -0.6521
  YYZ=            -15.4916  XYZ=              0.0061
 Hexadecapole moment (field-independent basis, Debye-Ang**3):
 XXXX=            -60.9848 YYYY=            -61.0218 ZZZZ=          -1689.2787 XXXY=              0.0046
 XXXZ=              0.8396 YYYX=             -0.0135 YYYZ=             -3.5480 ZZZX=              0.0374
 ZZZY=             -5.4630 XXYY=            -20.3360 XXZZ=           -235.9528 YYZZ=           -235.9677
 XXYZ=             -1.2527 YYXZ=             -0.8091 ZZXY=              0.0091
 N-N= 1.735671065563D+02 E-N=-7.700141077376D+03  KE= 3.069823798941D+03
  Exact polarizability:  49.150   0.002  49.137  -0.004   0.721 178.536
 Approx polarizability:  60.237   0.000  60.239  -0.004   0.777 199.864
 No NMR shielding tensors so no spin-rotation constants.
 Leave Link  601 at Fri Oct 18 01:09:00 2019, MaxMem=   104857600 cpu:              13.6 elap:               0.6
 (Enter /share/home/wli/program/opt/Chem_soft/g16/l701.exe)
 ... and contract with generalized density number  0.
 Compute integral second derivatives.
 R6Disp: Adding Grimme-D3(BJ) dispersion energy 2nd derivatives to the Hessian.
 PrsmSu:  requested number of processors reduced to:   9 ShMem   1 Linda.
 PrsmSu:  requested number of processors reduced to:  13 ShMem   1 Linda.
   1 Symmetry operations used in ECPInt.
 ECPInt:  NShTT=    1378 NPrTT=    5593 LenC2=    1324 LenP2D=    4259.
 LDataN:  DoStor=T MaxTD1= 8 Len=  415
 D2PCM: C-PCM CHGder 2nd derivatives, FixD1E=F FixD2E=F DoIter=F DoCFld=F I1PDM=0
 GePol: Maximum number of non-zero 2nd derivatives   =     380
 CoulSu:  requested number of processors reduced to:  13 ShMem   1 Linda.
 CoulSu:  requested number of processors reduced to:  13 ShMem   1 Linda.
 CoulSu:  requested number of processors reduced to:  13 ShMem   1 Linda.
 CoulSu:  requested number of processors reduced to:  13 ShMem   1 Linda.
 Leave Link  701 at Fri Oct 18 01:09:02 2019, MaxMem=   104857600 cpu:              34.9 elap:               2.0
 (Enter /share/home/wli/program/opt/Chem_soft/g16/l702.exe)
 L702 exits ... SP integral derivatives will be done elsewhere.
 Leave Link  702 at Fri Oct 18 01:09:02 2019, MaxMem=   104857600 cpu:               1.1 elap:               0.1
 (Enter /share/home/wli/program/opt/Chem_soft/g16/l703.exe)
 Integral derivatives from FoFJK, PRISM(SPDF).
 Compute integral second derivatives, UseDBF=F ICtDFT=           0.
 Calling FoFJK, ICntrl=    100127 FMM=F ISym2X=0 I1Cent= 0 IOpClX= 0 NMat=1 NMatS=1 NMatT=0.
 FoFJK:  IHMeth= 1 ICntrl=  100127 DoSepK=F KAlg= 0 I1Cent=           0 FoldK=F
 IRaf=         0 NMat=       1 IRICut=       1 DoRegI=T DoRafI=F ISym2E= 0 IDoP0=0 IntGTp=1.
 FoFCou: FMM=F IPFlag=           0 FMFlag=      100000 FMFlg1=         800
         NFxFlg=           0 DoJE=F BraDBF=F KetDBF=F FulRan=T
         wScrn=  0.000000 ICntrl=    100127 IOpCl=  0 I1Cent=           0 NGrid=           0
         NMat0=    1 NMatS0=      1 NMatT0=    0 NMatD0=    1 NMtDS0=    0 NMtDT0=    0
 Symmetry not used in FoFCou.
 CoulSu:  requested number of processors reduced to:  13 ShMem   1 Linda.
 Leave Link  703 at Fri Oct 18 01:09:08 2019, MaxMem=   104857600 cpu:             114.3 elap:               6.0
 (Enter /share/home/wli/program/opt/Chem_soft/g16/l716.exe)
 Dipole        = 3.20051279D-04-1.02772238D-02-1.84822766D+00
 Polarizability= 4.91500157D+01 2.19137514D-03 4.91368610D+01
                -4.12813808D-03 7.20578592D-01 1.78535904D+02
 ***** Axes restored to original set *****
 -------------------------------------------------------------------
 Center     Atomic                   Forces (Hartrees/Bohr)
 Number     Number              X              Y              Z
 -------------------------------------------------------------------
      1        6          -0.005730860    0.000003721    0.000009782
      2        1          -0.000035434   -0.000789126   -0.000421419
      3        1          -0.000035267    0.000766114   -0.000463634
      4        1          -0.000026765    0.000020145    0.000900232
      5       17           0.002550983   -0.000001052   -0.000018190
      6       35           0.003277343    0.000000199   -0.000006771
 -------------------------------------------------------------------
 Cartesian Forces:  Max     0.005730860 RMS     0.001707955
 Force constants in Cartesian coordinates: 
                1             2             3             4             5 
      1 -0.540592D-01
      2 -0.202433D-04  0.678363D+00
      3 -0.132791D-03 -0.943972D-05  0.678241D+00
      4 -0.101595D-01  0.160101D-01  0.868279D-02  0.336190D-01
      5  0.143652D-01 -0.308524D+00 -0.137821D+00 -0.148789D-01  0.311856D+00
      6  0.778644D-02 -0.137810D+00 -0.128880D+00 -0.808827D-02  0.144938D+00
      7 -0.101509D-01 -0.155104D-01  0.953584D-02  0.286481D-02  0.146556D-02
      8 -0.139107D-01 -0.293163D+00  0.146689D+00 -0.151357D-02 -0.118100D-01
      9  0.853858D-02  0.146677D+00 -0.144225D+00 -0.828071D-03 -0.128153D-01
     10 -0.101912D-01 -0.503510D-03 -0.182065D-01  0.286730D-02  0.423867D-04
     11 -0.459055D-03 -0.544636D-01 -0.888375D-02 -0.151813D-02  0.437206D-02
     12 -0.163168D-01 -0.887074D-02 -0.382926D+00 -0.818461D-03  0.347681D-02
     13  0.412305D-01  0.313121D-04  0.123092D-03 -0.133610D-01  0.168003D-02
     14  0.314691D-04 -0.906624D-02  0.340642D-04 -0.492027D-02  0.183104D-02
     15  0.919152D-04  0.184946D-04 -0.908785D-02 -0.263508D-02  0.999840D-03
     16  0.433304D-01 -0.732458D-05 -0.243964D-05 -0.158305D-01 -0.267432D-02
     17 -0.667768D-05 -0.131450D-01 -0.884942D-05  0.682068D-02  0.227545D-02
     18  0.326408D-04 -0.527317D-05 -0.131222D-01  0.368709D-02  0.122109D-02
                6             7             8             9            10 
      6  0.122976D+00
      7 -0.907754D-03  0.336844D-01
      8  0.140174D-01  0.144123D-01  0.295674D+00
      9  0.104576D-01 -0.892639D-02 -0.154234D+00  0.139156D+00
     10  0.171971D-02  0.286785D-02  0.504965D-04  0.171845D-02  0.338217D-01
     11 -0.233673D-01  0.147304D-02  0.541500D-02  0.227660D-01  0.462202D-03
     12 -0.573319D-02 -0.900101D-03 -0.407980D-02 -0.677831D-02  0.168889D-01
     13  0.937014D-03 -0.134110D-01 -0.163670D-02  0.109395D-02 -0.135225D-01
     14  0.100104D-02  0.476290D-02  0.173504D-02 -0.109415D-02  0.153252D-03
     15  0.512177D-03 -0.284403D-02 -0.109125D-02  0.598231D-03  0.561439D-02
     16 -0.144713D-02 -0.158551D-01  0.259817D-02 -0.159652D-02 -0.158431D-01
     17  0.122075D-02 -0.660341D-02  0.214903D-02 -0.130008D-02 -0.204827D-03
     18  0.667331D-03  0.404244D-02 -0.130146D-02  0.791630D-03 -0.773496D-02
               11            12            13            14            15 
     11  0.447288D-01
     12  0.931974D-02  0.390351D+00
     13 -0.471805D-04 -0.190274D-02  0.250208D-01
     14 -0.783939D-04  0.748833D-04 -0.283875D-04  0.422462D-02
     15  0.882295D-04  0.213526D-02 -0.242026D-03 -0.157536D-04  0.448468D-02
     16  0.891197D-04  0.304918D-02 -0.259568D-01  0.103525D-05  0.148317D-04
     17  0.260953D-04  0.790897D-04  0.000000D+00  0.135394D-02  0.000000D+00
     18  0.770679D-04  0.295115D-02 -0.928740D-05  0.000000D+00  0.135751D-02
               16            17            18 
     16  0.301551D-01
     17 -0.668805D-05  0.734048D-02
     18 -0.179181D-04  0.865520D-05  0.735461D-02
 FormGI is forming the generalized inverse of G from B-inverse, IUseBI=4.
 Force constants in internal coordinates: 
                1             2             3             4             5 
      1  0.391206D+00
      2 -0.209470D-03  0.391168D+00
      3 -0.207277D-03 -0.206243D-03  0.391395D+00
      4 -0.259607D-02 -0.264223D-02 -0.258558D-02  0.250209D-01
      5 -0.223594D-02 -0.224360D-02 -0.224643D-02  0.259568D-01  0.301551D-01
      6  0.163485D-02  0.163145D-02 -0.320411D-02  0.457849D-03 -0.531628D-03
      7  0.168032D-02 -0.318041D-02  0.169217D-02  0.960353D-03 -0.115524D-02
      8 -0.299606D-02  0.191558D-02  0.188817D-02  0.432761D-02 -0.539470D-02
      9 -0.378575D-02  0.153193D-02  0.138209D-02 -0.451116D-02  0.540925D-02
     10 -0.318134D-02  0.168152D-02  0.169714D-02  0.949600D-03 -0.115409D-02
     11  0.188846D-02 -0.303300D-02  0.186238D-02  0.440121D-02 -0.542100D-02
     12  0.151867D-02 -0.378286D-02  0.136548D-02 -0.453781D-02  0.542274D-02
     13  0.187504D-02  0.187746D-02 -0.268978D-02  0.484187D-02 -0.546675D-02
     14  0.150023D-02  0.149140D-02 -0.380944D-02 -0.452177D-02  0.545054D-02
     15 -0.678181D-02  0.344751D-02  0.327026D-02 -0.183554D-03  0.145562D-04
     16 -0.179096D-04  0.588782D-02 -0.562378D-02  0.263930D-03 -0.102552D-04
     17  0.103825D-02  0.102953D-02  0.885314D-03  0.154970D-01 -0.185919D-01
     18  0.174051D-02  0.173798D-02 -0.354998D-02 -0.306498D-03  0.415642D-03
     19 -0.144459D-02 -0.144260D-02  0.297978D-02  0.332500D-03 -0.414536D-03
     20 -0.178677D-02  0.352897D-02 -0.177137D-02 -0.161845D-03  0.209516D-03
     21  0.148818D-02 -0.293146D-02  0.148813D-02  0.172846D-03 -0.208466D-03
     22 -0.352728D-02  0.179099D-02  0.177861D-02  0.144653D-03 -0.206125D-03
     23  0.293277D-02 -0.148886D-02 -0.149165D-02 -0.159654D-03  0.206070D-03
                6             7             8             9            10 
      6  0.684422D-02
      7 -0.341741D-02  0.697612D-02
      8  0.830541D-03  0.120381D-02  0.248852D-01
      9 -0.937993D-03 -0.130483D-02 -0.159324D-01  0.311692D-01
     10 -0.341927D-02 -0.335518D-02 -0.126200D-02  0.146597D-02  0.697777D-02
     11  0.846944D-03 -0.126444D-02 -0.101866D-01  0.580162D-02  0.119273D-02
     12 -0.943451D-03  0.146512D-02  0.582383D-02 -0.133636D-01 -0.130124D-02
     13 -0.163337D-02  0.122668D-02 -0.102727D-01  0.567867D-02  0.123412D-02
     14  0.183890D-02 -0.132710D-02  0.568227D-02 -0.133539D-01 -0.133043D-02
     15 -0.107451D-03 -0.101024D-03  0.895287D-02  0.152368D-01  0.203973D-03
     16  0.175536D-03 -0.174575D-03 -0.132269D-03 -0.658776D-04  0.660554D-05
     17  0.739539D-03  0.983405D-03  0.512370D-02 -0.516392D-02  0.981902D-03
     18  0.673199D-02 -0.342961D-02 -0.456182D-03 -0.530141D-04 -0.343073D-02
     19 -0.671433D-02  0.342081D-02  0.507615D-04 -0.617064D-03  0.342228D-02
     20  0.336434D-02 -0.679878D-02  0.677718D-04  0.414688D-03  0.337004D-02
     21 -0.335600D-02  0.678093D-02  0.309770D-03  0.253414D-03 -0.336033D-02
     22 -0.336765D-02 -0.336917D-02  0.523954D-03  0.467702D-03  0.680077D-02
     23  0.335834D-02  0.336012D-02  0.259008D-03  0.870477D-03 -0.678261D-02
               11            12            13            14            15 
     11  0.248857D-01
     12 -0.159511D-01  0.311964D-01
     13 -0.102566D-01  0.565959D-02  0.252728D-01
     14  0.570662D-02 -0.133655D-01 -0.160814D-01  0.314128D-01
     15 -0.438499D-02 -0.753973D-02 -0.459402D-02 -0.767165D-02  0.241897D-01
     16 -0.779515D-02 -0.132678D-01  0.797131D-02  0.132909D-01 -0.198147D-03
     17  0.514413D-02 -0.518213D-02  0.523459D-02 -0.515641D-02 -0.402200D-04
     18 -0.439879D-03 -0.587222D-04  0.161440D-03  0.847993D-03 -0.509196D-03
     19  0.377801D-04 -0.613802D-03  0.648480D-03  0.492322D-03 -0.566302D-03
     20 -0.520220D-03 -0.466505D-03  0.838396D-04  0.421202D-03  0.482460D-03
     21 -0.261334D-03 -0.872215D-03  0.321382D-03  0.248258D-03  0.563184D-03
     22 -0.803410D-04 -0.407783D-03 -0.776000D-04 -0.426790D-03  0.991656D-03
     23 -0.299114D-03 -0.258412D-03 -0.327098D-03 -0.244064D-03  0.112949D-02
               16            17            18            19            20 
     16  0.244680D-01
     17  0.670823D-04  0.177248D-01
     18  0.872757D-03 -0.158542D-03  0.684523D-02
     19  0.991565D-03  0.162995D-03 -0.675655D-02  0.685642D-02
     20  0.862859D-03 -0.808874D-04  0.342134D-02 -0.337697D-02  0.684677D-02
     21  0.984085D-03  0.830777D-04 -0.337747D-02  0.342733D-02 -0.676025D-02
     22 -0.989836D-05  0.776543D-04 -0.342389D-02  0.337958D-02  0.342543D-02
     23 -0.747948D-05 -0.799170D-04  0.337909D-02 -0.342909D-02 -0.338328D-02
               21            22            23 
     21  0.685964D-02
     22 -0.338278D-02  0.684932D-02
     23  0.343232D-02 -0.676236D-02  0.686141D-02
 Leave Link  716 at Fri Oct 18 01:09:08 2019, MaxMem=   104857600 cpu:               2.6 elap:               0.1
 (Enter /share/home/wli/program/opt/Chem_soft/g16/l103.exe)

 GradGradGradGradGradGradGradGradGradGradGradGradGradGradGradGradGradGrad
 Berny optimization.
 Red2BG is reusing G-inverse.
 Internal  Forces:  Max     0.003277341 RMS     0.000924564
 Search for a saddle point.
 Step number   1 out of a maximum of   33
 All quantities printed in internal units (Hartrees-Bohrs-Radians)
 Swapping is turned off.
 Second derivative matrix not updated -- analytic derivatives used.
 ITU=  0
     Eigenvalues ---   -0.01803   0.03011   0.03023   0.03963   0.04044
     Eigenvalues ---    0.04515   0.05503   0.06419   0.06434   0.39095
     Eigenvalues ---    0.39194   0.39206
 Eigenvectors required to have negative eigenvalues:
                          R4        R5        D1        A8        A7
   1                   -0.59672   0.58331   0.44727   0.13241  -0.13072
                          A4        A9        A6        A3        A2
   1                   -0.13062  -0.12980   0.12972   0.12900   0.02455
 RFO step:  Lambda0=6.122284849D-04 Lambda=-1.27435272D-04.
 Linear search not attempted -- option 19 set.
 Iteration  1 RMS(Cart)=  0.01527799 RMS(Int)=  0.00081125
 Iteration  2 RMS(Cart)=  0.00040860 RMS(Int)=  0.00070076
 Iteration  3 RMS(Cart)=  0.00000002 RMS(Int)=  0.00070076
 ITry= 1 IFail=0 DXMaxC= 6.29D-02 DCOld= 1.00D+10 DXMaxT= 3.00D-01 DXLimC= 3.00D+00 Rises=F
 Variable       Old X    -DE/DX   Delta X   Delta X   Delta X     New X
                                 (Linear)    (Quad)   (Total)
    R1        2.02150   0.00089   0.00000   0.00167   0.00167   2.02317
    R2        2.02150   0.00089   0.00000   0.00167   0.00167   2.02317
    R3        2.02153   0.00090   0.00000   0.00175   0.00175   2.02327
    R4        4.61365   0.00255   0.00000  -0.09310  -0.09310   4.52055
    R5        4.56930  -0.00328   0.00000   0.08168   0.08168   4.65099
    A1        2.09003   0.00001   0.00000   0.00601   0.00409   2.09412
    A2        2.08995   0.00000   0.00000   0.00575   0.00381   2.09376
    A3        1.52013   0.00002   0.00000   0.03306   0.03298   1.55311
    A4        1.62132  -0.00004   0.00000  -0.03375  -0.03367   1.58765
    A5        2.08994   0.00001   0.00000   0.00577   0.00384   2.09378
    A6        1.52014   0.00002   0.00000   0.03320   0.03312   1.55326
    A7        1.62133  -0.00004   0.00000  -0.03374  -0.03366   1.58767
    A8        1.52038   0.00004   0.00000   0.03420   0.03412   1.55450
    A9        1.62148  -0.00001   0.00000  -0.03298  -0.03290   1.58859
   A10        3.14145  -0.00002   0.00000  -0.00069  -0.00069   3.14076
   A11        3.14182   0.00003   0.00000   0.00102   0.00102   3.14284
    D1        2.96690   0.00009   0.00000   0.11499   0.11523   3.08213
    D2        2.09447   0.00000   0.00000   0.00022   0.00019   2.09465
    D3       -2.09444   0.00000   0.00000  -0.00013  -0.00016  -2.09461
    D4       -2.09436   0.00000   0.00000   0.00012   0.00010  -2.09426
    D5        2.09437  -0.00000   0.00000  -0.00008  -0.00009   2.09428
    D6        2.09436  -0.00000   0.00000  -0.00011  -0.00008   2.09427
    D7       -2.09437  -0.00000   0.00000   0.00005   0.00007  -2.09430
         Item               Value     Threshold  Converged?
 Maximum Force            0.003277     0.000450     NO 
 RMS     Force            0.000925     0.000300     NO 
 Maximum Displacement     0.062863     0.001800     NO 
 RMS     Displacement     0.015241     0.001200     NO 
 Predicted change in Energy= 2.522775D-04
 Lowest energy point so far.  Saving SCF results.
 GradGradGradGradGradGradGradGradGradGradGradGradGradGradGradGradGradGrad

 Leave Link  103 at Fri Oct 18 01:09:09 2019, MaxMem=   104857600 cpu:              14.5 elap:               0.7
 (Enter /share/home/wli/program/opt/Chem_soft/g16/l202.exe)
                          Input orientation:                          
 ---------------------------------------------------------------------
 Center     Atomic      Atomic             Coordinates (Angstroms)
 Number     Number       Type             X           Y           Z
 ---------------------------------------------------------------------
      1          6           0        0.737566    0.000065    0.000731
      2          1           0        0.756032   -0.941134   -0.509188
      3          1           0        0.755974    0.912400   -0.559198
      4          1           0        0.755849    0.028928    1.070855
      5         17           0        3.129735   -0.000114   -0.001133
      6         35           0       -1.723631   -0.000086   -0.001021
 ---------------------------------------------------------------------
                    Distance matrix (angstroms):
                    1          2          3          4          5
     1  C    0.000000
     2  H    1.070613   0.000000
     3  H    1.070614   1.854208   0.000000
     4  H    1.070669   1.854065   1.854075   0.000000
     5  Cl   2.392171   2.603480   2.603625   2.604868   0.000000
     6  Br   2.461197   2.700468   2.700487   2.701403   4.853366
                    6
     6  Br   0.000000
 Stoichiometry    CH3BrCl(1-)
 Framework group  C1[X(CH3BrCl)]
 Deg. of freedom    12
 Full point group                 C1      NOp   1
 RotChk:  IX=3 Diff= 2.00D+00
 Largest Abelian subgroup         C1      NOp   1
 Largest concise Abelian subgroup C1      NOp   1
                         Standard orientation:                         
 ---------------------------------------------------------------------
 Center     Atomic      Atomic             Coordinates (Angstroms)
 Number     Number       Type             X           Y           Z
 ---------------------------------------------------------------------
      1          6           0       -0.744587   -0.000051    0.001510
      2          1           0       -0.763044    0.910229   -0.561751
      3          1           0       -0.762982   -0.943109   -0.504966
      4          1           0       -0.762893    0.032743    1.071520
      5         17           0       -3.136757    0.000013   -0.000413
      6         35           0        1.716609    0.000007   -0.000195
 ---------------------------------------------------------------------
 Rotational constants (GHZ):         145.8655518           0.8637122           0.8637118
 Leave Link  202 at Fri Oct 18 01:09:09 2019, MaxMem=   104857600 cpu:               1.8 elap:               0.1
 (Enter /share/home/wli/program/opt/Chem_soft/g16/l301.exe)
 Standard basis: def2TZVP (5D, 7F)
 Ernie: Thresh=  0.10000D-02 Tol=  0.10000D-05 Strict=F.
 There are   151 symmetry adapted cartesian basis functions of A   symmetry.
 There are   134 symmetry adapted basis functions of A   symmetry.
   134 basis functions,   258 primitive gaussians,   151 cartesian basis functions
    31 alpha electrons       31 beta electrons
       nuclear repulsion energy       173.2802354994 Hartrees.
 IExCor=  402 DFT=T Ex+Corr=B3LYP ExCW=0 ScaHFX=  0.200000
 ScaDFX=  0.800000  0.720000  1.000000  0.810000 ScalE2=  1.000000  1.000000
 IRadAn=      5 IRanWt=     -1 IRanGd=            0 ICorTp=0 IEmpDi=141
 NAtoms=    6 NActive=    6 NUniq=    6 SFac= 1.00D+00 NAtFMM=   60 NAOKFM=F Big=F
 Integral buffers will be    131072 words long.
 Raffenetti 2 integral format.
 Two-electron integral symmetry is turned on.
 R6Disp:  Grimme-D3(BJ) Dispersion energy=       -0.0069971169 Hartrees.
 Nuclear repulsion after empirical dispersion term =      173.2732383825 Hartrees.
 Force inversion solution in PCM.
 ------------------------------------------------------------------------------
 Polarizable Continuum Model (PCM)
 =================================
 Model                : C-PCM.
 Atomic radii         : UFF (Universal Force Field).
 Polarization charges : Total charges.
 Charge compensation  : None.
 Solution method      : Matrix inversion.
 Cavity type          : Scaled VdW (van der Waals Surface) (Alpha=1.100).
 Cavity algorithm     : GePol (No added spheres)
                        Default sphere list used, NSphG=    6.
                        Lebedev-Laikov grids with approx.  5.0 points / Ang**2.
                        Smoothing algorithm: York/Karplus (Gamma=1.0000).
                        Polarization charges: spherical gaussians, with
                                              point-specific exponents (IZeta= 3).
                        Self-potential: point-specific (ISelfS= 7).
                        Self-field    : sphere-specific E.n sum rule (ISelfD= 2).
 1st derivatives      : Analytical E(r).r(x)/FMM algorithm (CHGder, D1EAlg=3).
                        Cavity 1st derivative terms included.
 2nd derivatives      : Analytical E(r).r(xy)/FMM algorithm (CHGder, D2EAlg=3).
                        Cavity 2nd derivative terms included.
 Solvent              : Dichloromethane, Eps=   8.930000 Eps(inf)=   2.028346
 ------------------------------------------------------------------------------
 Spheres list:
 ISph  on   Nord     Re0    Alpha      Xe            Ye            Ze
    1   C      1    1.9255  1.100     -0.744587     -0.000051      0.001510
    2   H      2    1.4430  1.100     -0.763044      0.910229     -0.561751
    3   H      3    1.4430  1.100     -0.762982     -0.943109     -0.504966
    4   H      4    1.4430  1.100     -0.762893      0.032743      1.071520
    5  Cl      5    1.9735  1.100     -3.136757      0.000013     -0.000413
    6  Br      6    2.0945  1.100      1.716609      0.000007     -0.000195
 ------------------------------------------------------------------------------
 GePol: Number of generator spheres                  =       6
 GePol: Total number of spheres                      =       6
 GePol: Number of exposed spheres                    =       6 (100.00%)
 GePol: Number of points                             =     871
 GePol: Average weight of points                     =       0.16
 GePol: Minimum weight of points                     =   0.39D-06
 GePol: Maximum weight of points                     =    0.21616
 GePol: Number of points with low weight             =      20
 GePol: Fraction of low-weight points (<1% of avg)   =       2.30%
 GePol: Cavity surface area                          =    136.353 Ang**2
 GePol: Cavity volume                                =    119.779 Ang**3
 Leave Link  301 at Fri Oct 18 01:09:09 2019, MaxMem=   104857600 cpu:               3.0 elap:               0.1
 (Enter /share/home/wli/program/opt/Chem_soft/g16/l302.exe)
 NPDir=0 NMtPBC=     1 NCelOv=     1 NCel=       1 NClECP=     1 NCelD=      1
         NCelK=      1 NCelE2=     1 NClLst=     1 CellRange=     0.0.
 One-electron integrals computed using PRISM.
 One-electron integral symmetry used in STVInt
 PrsmSu:  requested number of processors reduced to:  13 ShMem   1 Linda.
   1 Symmetry operations used in ECPInt.
 ECPInt:  NShTT=    1378 NPrTT=    5593 LenC2=    1324 LenP2D=    4259.
 LDataN:  DoStor=T MaxTD1= 6 Len=  172
 NBasis=   134 RedAO= T EigKep=  1.43D-03  NBF=   134
 NBsUse=   134 1.00D-06 EigRej= -1.00D+00 NBFU=   134
 Precomputing XC quadrature grid using
 IXCGrd= 4 IRadAn=           5 IRanWt=          -1 IRanGd=           0 AccXCQ= 0.00D+00.
 Generated NRdTot=       0 NPtTot=           0 NUsed=           0 NTot=          32
 NSgBfM=   150   150   150   150   150 MxSgAt=     6 MxSgA2=     6.
 Leave Link  302 at Fri Oct 18 01:09:10 2019, MaxMem=   104857600 cpu:              14.3 elap:               0.6
 (Enter /share/home/wli/program/opt/Chem_soft/g16/l303.exe)
 DipDrv:  MaxL=1.
 Leave Link  303 at Fri Oct 18 01:09:10 2019, MaxMem=   104857600 cpu:               3.5 elap:               0.2
 (Enter /share/home/wli/program/opt/Chem_soft/g16/l401.exe)
 Initial guess from the checkpoint file:  "ts_cpcm_dichloromethane_maugccpvtz.chk"
 B after Tr=     0.000000    0.000000    0.000000
         Rot=    0.706926    0.016429    0.706803   -0.020363 Ang=  90.03 deg.
 Guess basis will be translated and rotated to current coordinates.
 JPrj=2 DoOrth=T DoCkMO=T.
 Generating alternative initial guess.
 ExpMin= 9.52D-02 ExpMax= 5.65D+05 ExpMxC= 5.46D+03 IAcc=2 IRadAn=         4 AccDes= 0.00D+00
 Harris functional with IExCor=  402 and IRadAn=       4 diagonalized for initial guess.
 HarFok:  IExCor=  402 AccDes= 0.00D+00 IRadAn=         4 IDoV= 1 UseB2=F ITyADJ=14
 ICtDFT=  3500011 ScaDFX=  1.000000  1.000000  1.000000  1.000000
 FoFCou: FMM=F IPFlag=           0 FMFlag=      100000 FMFlg1=           0
         NFxFlg=           0 DoJE=T BraDBF=F KetDBF=T FulRan=T
         wScrn=  0.000000 ICntrl=       500 IOpCl=  0 I1Cent=   200000004 NGrid=           0
         NMat0=    1 NMatS0=      1 NMatT0=    0 NMatD0=    1 NMtDS0=    0 NMtDT0=    0
 Petite list used in FoFCou.
 Harris En= -3074.57101237239    
 Leave Link  401 at Fri Oct 18 01:09:10 2019, MaxMem=   104857600 cpu:               7.1 elap:               0.3
 (Enter /share/home/wli/program/opt/Chem_soft/g16/l502.exe)
 Keep R1 ints in memory in canonical form, NReq=64315121.
 FoFCou: FMM=F IPFlag=           0 FMFlag=           0 FMFlg1=           0
         NFxFlg=           0 DoJE=F BraDBF=F KetDBF=F FulRan=T
         wScrn=  0.000000 ICntrl=       600 IOpCl=  0 I1Cent=           0 NGrid=           0
         NMat0=    1 NMatS0=   9045 NMatT0=    0 NMatD0=    1 NMtDS0=    0 NMtDT0=    0
 Symmetry not used in FoFCou.
 Two-electron integral symmetry not used.
 Closed shell SCF:
 Using DIIS extrapolation, IDIIS=  1040.
 NGot=   104857600 LenX=    63896377 LenY=    63873135
 Requested convergence on RMS density matrix=1.00D-08 within 128 cycles.
 Requested convergence on MAX density matrix=1.00D-06.
 Requested convergence on             energy=1.00D-06.
 No special actions if energy rises.

 Cycle   1  Pass 1  IDiag  1:
 Inv3:  Mode=1 IEnd=     2275923.
 Iteration    1 A*A^-1 deviation from unit magnitude is 4.66D-15 for    204.
 Iteration    1 A*A^-1 deviation from orthogonality  is 1.57D-15 for    242    109.
 Iteration    1 A^-1*A deviation from unit magnitude is 4.22D-15 for    204.
 Iteration    1 A^-1*A deviation from orthogonality  is 1.34D-15 for    455     91.
 E= -3074.50004524352    
 DIIS: error= 2.08D-03 at cycle   1 NSaved=   1.
 NSaved= 1 IEnMin= 1 EnMin= -3074.50004524352     IErMin= 1 ErrMin= 2.08D-03
 ErrMax= 2.08D-03  0.00D+00 EMaxC= 1.00D-01 BMatC= 3.62D-04 BMatP= 3.62D-04
 IDIUse=3 WtCom= 9.79D-01 WtEn= 2.08D-02
 Coeff-Com:  0.100D+01
 Coeff-En:   0.100D+01
 Coeff:      0.100D+01
 Gap=     0.636 Goal=   None    Shift=    0.000
 GapD=    0.636 DampG=2.000 DampE=1.000 DampFc=2.0000 IDamp=-1.
 RMSDP=2.89D-04 MaxDP=5.93D-03              OVMax= 2.88D-02

 Cycle   2  Pass 1  IDiag  1:
 E= -3074.50072177784     Delta-E=       -0.000676534322 Rises=F Damp=F
 DIIS: error= 4.74D-04 at cycle   2 NSaved=   2.
 NSaved= 2 IEnMin= 2 EnMin= -3074.50072177784     IErMin= 2 ErrMin= 4.74D-04
 ErrMax= 4.74D-04  0.00D+00 EMaxC= 1.00D-01 BMatC= 5.14D-05 BMatP= 3.62D-04
 IDIUse=3 WtCom= 9.95D-01 WtEn= 4.74D-03
 Coeff-Com:  0.910D-01 0.909D+00
 Coeff-En:   0.000D+00 0.100D+01
 Coeff:      0.906D-01 0.909D+00
 Gap=     0.200 Goal=   None    Shift=    0.000
 RMSDP=1.50D-04 MaxDP=3.65D-03 DE=-6.77D-04 OVMax= 7.35D-03

 Cycle   3  Pass 1  IDiag  1:
 E= -3074.50071503413     Delta-E=        0.000006743711 Rises=F Damp=F
 DIIS: error= 6.02D-04 at cycle   3 NSaved=   3.
 NSaved= 3 IEnMin= 2 EnMin= -3074.50072177784     IErMin= 2 ErrMin= 4.74D-04
 ErrMax= 6.02D-04  0.00D+00 EMaxC= 1.00D-01 BMatC= 7.35D-05 BMatP= 5.14D-05
 IDIUse=3 WtCom= 2.90D-01 WtEn= 7.10D-01
 Coeff-Com: -0.243D-01 0.562D+00 0.462D+00
 Coeff-En:   0.000D+00 0.522D+00 0.478D+00
 Coeff:     -0.702D-02 0.534D+00 0.473D+00
 Gap=     0.200 Goal=   None    Shift=    0.000
 RMSDP=7.32D-05 MaxDP=2.12D-03 DE= 6.74D-06 OVMax= 6.19D-03

 Cycle   4  Pass 1  IDiag  1:
 E= -3074.50079426983     Delta-E=       -0.000079235699 Rises=F Damp=F
 DIIS: error= 8.97D-05 at cycle   4 NSaved=   4.
 NSaved= 4 IEnMin= 4 EnMin= -3074.50079426983     IErMin= 4 ErrMin= 8.97D-05
 ErrMax= 8.97D-05  0.00D+00 EMaxC= 1.00D-01 BMatC= 1.29D-06 BMatP= 5.14D-05
 IDIUse=1 WtCom= 1.00D+00 WtEn= 0.00D+00
 Coeff-Com: -0.130D-01 0.121D+00 0.163D+00 0.729D+00
 Coeff:     -0.130D-01 0.121D+00 0.163D+00 0.729D+00
 Gap=     0.200 Goal=   None    Shift=    0.000
 RMSDP=7.38D-06 MaxDP=1.65D-04 DE=-7.92D-05 OVMax= 4.39D-04

 Cycle   5  Pass 1  IDiag  1:
 E= -3074.50079489606     Delta-E=       -0.000000626225 Rises=F Damp=F
 DIIS: error= 3.35D-05 at cycle   5 NSaved=   5.
 NSaved= 5 IEnMin= 5 EnMin= -3074.50079489606     IErMin= 5 ErrMin= 3.35D-05
 ErrMax= 3.35D-05  0.00D+00 EMaxC= 1.00D-01 BMatC= 1.41D-07 BMatP= 1.29D-06
 IDIUse=1 WtCom= 1.00D+00 WtEn= 0.00D+00
 Coeff-Com: -0.361D-02 0.340D-02 0.419D-01 0.265D+00 0.693D+00
 Coeff:     -0.361D-02 0.340D-02 0.419D-01 0.265D+00 0.693D+00
 Gap=     0.200 Goal=   None    Shift=    0.000
 RMSDP=3.77D-06 MaxDP=1.15D-04 DE=-6.26D-07 OVMax= 2.51D-04

 Cycle   6  Pass 1  IDiag  1:
 E= -3074.50079499490     Delta-E=       -0.000000098846 Rises=F Damp=F
 DIIS: error= 2.07D-05 at cycle   6 NSaved=   6.
 NSaved= 6 IEnMin= 6 EnMin= -3074.50079499490     IErMin= 6 ErrMin= 2.07D-05
 ErrMax= 2.07D-05  0.00D+00 EMaxC= 1.00D-01 BMatC= 4.56D-08 BMatP= 1.41D-07
 IDIUse=1 WtCom= 1.00D+00 WtEn= 0.00D+00
 Coeff-Com:  0.105D-04-0.185D-01 0.310D-02 0.447D-01 0.408D+00 0.562D+00
 Coeff:      0.105D-04-0.185D-01 0.310D-02 0.447D-01 0.408D+00 0.562D+00
 Gap=     0.200 Goal=   None    Shift=    0.000
 RMSDP=1.49D-06 MaxDP=3.19D-05 DE=-9.88D-08 OVMax= 1.32D-04

 Cycle   7  Pass 1  IDiag  1:
 E= -3074.50079504610     Delta-E=       -0.000000051193 Rises=F Damp=F
 DIIS: error= 2.68D-06 at cycle   7 NSaved=   7.
 NSaved= 7 IEnMin= 7 EnMin= -3074.50079504610     IErMin= 7 ErrMin= 2.68D-06
 ErrMax= 2.68D-06  0.00D+00 EMaxC= 1.00D-01 BMatC= 1.01D-09 BMatP= 4.56D-08
 IDIUse=1 WtCom= 1.00D+00 WtEn= 0.00D+00
 Coeff-Com:  0.229D-03-0.797D-02-0.662D-03 0.453D-02 0.113D+00 0.229D+00
 Coeff-Com:  0.662D+00
 Coeff:      0.229D-03-0.797D-02-0.662D-03 0.453D-02 0.113D+00 0.229D+00
 Coeff:      0.662D+00
 Gap=     0.200 Goal=   None    Shift=    0.000
 RMSDP=2.33D-07 MaxDP=6.93D-06 DE=-5.12D-08 OVMax= 1.49D-05

 Cycle   8  Pass 1  IDiag  1:
 E= -3074.50079504712     Delta-E=       -0.000000001026 Rises=F Damp=F
 DIIS: error= 3.98D-07 at cycle   8 NSaved=   8.
 NSaved= 8 IEnMin= 8 EnMin= -3074.50079504712     IErMin= 8 ErrMin= 3.98D-07
 ErrMax= 3.98D-07  0.00D+00 EMaxC= 1.00D-01 BMatC= 1.88D-11 BMatP= 1.01D-09
 IDIUse=1 WtCom= 1.00D+00 WtEn= 0.00D+00
 Coeff-Com:  0.543D-04-0.122D-02-0.127D-03 0.412D-03 0.782D-02 0.294D-01
 Coeff-Com:  0.164D+00 0.800D+00
 Coeff:      0.543D-04-0.122D-02-0.127D-03 0.412D-03 0.782D-02 0.294D-01
 Coeff:      0.164D+00 0.800D+00
 Gap=     0.200 Goal=   None    Shift=    0.000
 RMSDP=4.84D-08 MaxDP=1.62D-06 DE=-1.03D-09 OVMax= 1.33D-06

 Cycle   9  Pass 1  IDiag  1:
 E= -3074.50079504713     Delta-E=       -0.000000000010 Rises=F Damp=F
 DIIS: error= 9.03D-08 at cycle   9 NSaved=   9.
 NSaved= 9 IEnMin= 9 EnMin= -3074.50079504713     IErMin= 9 ErrMin= 9.03D-08
 ErrMax= 9.03D-08  0.00D+00 EMaxC= 1.00D-01 BMatC= 1.87D-12 BMatP= 1.88D-11
 IDIUse=1 WtCom= 1.00D+00 WtEn= 0.00D+00
 Coeff-Com:  0.201D-05 0.105D-03 0.361D-04-0.184D-03-0.387D-02-0.615D-02
 Coeff-Com: -0.221D-02 0.278D+00 0.734D+00
 Coeff:      0.201D-05 0.105D-03 0.361D-04-0.184D-03-0.387D-02-0.615D-02
 Coeff:     -0.221D-02 0.278D+00 0.734D+00
 Gap=     0.200 Goal=   None    Shift=    0.000
 RMSDP=1.50D-08 MaxDP=5.92D-07 DE=-9.55D-12 OVMax= 4.66D-07

 Cycle  10  Pass 1  IDiag  1:
 E= -3074.50079504715     Delta-E=       -0.000000000015 Rises=F Damp=F
 DIIS: error= 2.66D-08 at cycle  10 NSaved=  10.
 NSaved=10 IEnMin=10 EnMin= -3074.50079504715     IErMin=10 ErrMin= 2.66D-08
 ErrMax= 2.66D-08  0.00D+00 EMaxC= 1.00D-01 BMatC= 4.05D-14 BMatP= 1.87D-12
 IDIUse=1 WtCom= 1.00D+00 WtEn= 0.00D+00
 Coeff-Com:  0.187D-07 0.707D-04 0.109D-04-0.104D-03-0.175D-02-0.326D-02
 Coeff-Com: -0.471D-02 0.931D-01 0.275D+00 0.642D+00
 Coeff:      0.187D-07 0.707D-04 0.109D-04-0.104D-03-0.175D-02-0.326D-02
 Coeff:     -0.471D-02 0.931D-01 0.275D+00 0.642D+00
 Gap=     0.200 Goal=   None    Shift=    0.000
 RMSDP=1.05D-09 MaxDP=2.02D-08 DE=-1.50D-11 OVMax= 5.69D-08

 Error on total polarization charges =  0.02001
 SCF Done:  E(RB3LYP) =  -3074.50079505     A.U. after   10 cycles
            NFock= 10  Conv=0.11D-08     -V/T= 2.0015
 KE= 3.069823814571D+03 PE=-7.699710328562D+03 EE= 1.382112480561D+03
 Leave Link  502 at Fri Oct 18 01:09:15 2019, MaxMem=   104857600 cpu:             101.7 elap:               4.8
 (Enter /share/home/wli/program/opt/Chem_soft/g16/l801.exe)
 DoSCS=F DFT=T ScalE2(SS,OS)=  1.000000  1.000000
 Range of M.O.s used for correlation:     1   134
 NBasis=   134 NAE=    31 NBE=    31 NFC=     0 NFV=     0
 NROrb=    134 NOA=    31 NOB=    31 NVA=   103 NVB=   103
 Leave Link  801 at Fri Oct 18 01:09:15 2019, MaxMem=   104857600 cpu:               1.1 elap:               0.1
 (Enter /share/home/wli/program/opt/Chem_soft/g16/l1101.exe)
 Using compressed storage, NAtomX=     6.
 Will process      7 centers per pass.
 PrsmSu:  requested number of processors reduced to:  11 ShMem   1 Linda.
   1 Symmetry operations used in ECPInt.
 ECPInt:  NShTT=    1378 NPrTT=    5593 LenC2=    1324 LenP2D=    4259.
 LDataN:  DoStor=T MaxTD1= 7 Len=  274
 Number of processors reduced to  18 by ecpmxn.
 R6Disp: Adding Grimme-D3(BJ) dispersion energy 1st derivatives to the gradient.
 Leave Link 1101 at Fri Oct 18 01:09:16 2019, MaxMem=   104857600 cpu:               8.8 elap:               0.4
 (Enter /share/home/wli/program/opt/Chem_soft/g16/l1102.exe)
 Symmetrizing basis deriv contribution to polar:
 IMax=3 JMax=2 DiffMx= 0.00D+00
 Leave Link 1102 at Fri Oct 18 01:09:16 2019, MaxMem=   104857600 cpu:               2.5 elap:               0.1
 (Enter /share/home/wli/program/opt/Chem_soft/g16/l1110.exe)
 Forming Gx(P) for the SCF density, NAtomX=     6.
 Integral derivatives from FoFJK, PRISM(SPDF).
 Do as many integral derivatives as possible in FoFJK.
 G2DrvN: MDV=     104857020.
 G2DrvN: will do     7 centers at a time, making    1 passes.
 Calling FoFCou, ICntrl=  3107 FMM=F I1Cent=   0 AccDes= 0.00D+00.
 FoFJK:  IHMeth= 1 ICntrl=    3107 DoSepK=F KAlg= 0 I1Cent=           0 FoldK=F
 IRaf=         0 NMat=       1 IRICut=       1 DoRegI=T DoRafI=F ISym2E= 0 IDoP0=0 IntGTp=1.
 FoFCou: FMM=F IPFlag=           0 FMFlag=      100000 FMFlg1=           0
         NFxFlg=           0 DoJE=F BraDBF=F KetDBF=F FulRan=T
         wScrn=  0.000000 ICntrl=      3107 IOpCl=  0 I1Cent=           0 NGrid=           0
         NMat0=    1 NMatS0=      1 NMatT0=    0 NMatD0=    1 NMtDS0=    0 NMtDT0=    0
 Symmetry not used in FoFCou.
 NEqPCM:  Using equilibrium solvation (IEInf=0, Eps=   8.9300, EpsInf=   2.0283)
 G2PCM: DoFxE=T DoFxN=T DoGrad=T DoDP/DQ/DG/TGxP=FFFF NFrqRd=   0 IEInf=0 SqF1=F DoCFld=F IF1Alg=4.
 GePol: Maximum number of non-zero 1st derivatives   =     380
 CoulSu:  requested number of processors reduced to:  17 ShMem   1 Linda.
 CoulSu:  requested number of processors reduced to:  23 ShMem   1 Linda.
 End of G2Drv F.D. properties file   721 does not exist.
 End of G2Drv F.D. properties file   722 does not exist.
 End of G2Drv F.D. properties file   788 does not exist.
 Leave Link 1110 at Fri Oct 18 01:09:20 2019, MaxMem=   104857600 cpu:              97.8 elap:               4.2
 (Enter /share/home/wli/program/opt/Chem_soft/g16/l1002.exe)
 Minotr:  Closed shell wavefunction.
          IDoAtm=111111
 NEqPCM:  Using equilibrium solvation (IEInf=0, Eps=   8.9300, EpsInf=   2.0283)
          Direct CPHF calculation.
          Differentiating once with respect to electric field.
                with respect to dipole field.
          Differentiating once with respect to nuclear coordinates.
          Requested convergence is 1.0D-08 RMS, and 1.0D-07 maximum.
          Secondary convergence is 1.0D-12 RMS, and 1.0D-12 maximum.
          NewPWx=T KeepS1=F KeepF1=F KeepIn=T MapXYZ=F SortEE=F KeepMc=T.
         1761 words used for storage of precomputed grid.
 Keep R1 ints in memory in canonical form, NReq=64236638.
 FoFCou: FMM=F IPFlag=           0 FMFlag=           0 FMFlg1=           0
         NFxFlg=           0 DoJE=F BraDBF=F KetDBF=F FulRan=T
         wScrn=  0.000000 ICntrl=       600 IOpCl=  0 I1Cent=           0 NGrid=           0
         NMat0=    1 NMatS0=   9045 NMatT0=    0 NMatD0=    1 NMtDS0=    0 NMtDT0=    0
 Symmetry not used in FoFCou.
 Two-electron integral symmetry not used.
          MDV=     104857600 using IRadAn=       1.
          Solving linear equations simultaneously, MaxMat=       0.
 CoulSu:  requested number of processors reduced to:  13 ShMem   1 Linda.
 CoulSu:  requested number of processors reduced to:  13 ShMem   1 Linda.
          There are    21 degrees of freedom in the 1st order CPHF.  IDoFFX=6 NUNeed=     3.
     18 vectors produced by pass  0 Test12= 1.52D-14 4.76D-09 XBig12= 2.19D+02 1.42D+01.
 AX will form    18 AO Fock derivatives at one time.
 CoulSu:  requested number of processors reduced to:  15 ShMem   1 Linda.
 CoulSu:  requested number of processors reduced to:  14 ShMem   1 Linda.
     18 vectors produced by pass  1 Test12= 1.52D-14 4.76D-09 XBig12= 3.30D+01 2.17D+00.
 CoulSu:  requested number of processors reduced to:  15 ShMem   1 Linda.
 CoulSu:  requested number of processors reduced to:  14 ShMem   1 Linda.
     18 vectors produced by pass  2 Test12= 1.52D-14 4.76D-09 XBig12= 1.61D+00 3.10D-01.
 CoulSu:  requested number of processors reduced to:  15 ShMem   1 Linda.
 CoulSu:  requested number of processors reduced to:  14 ShMem   1 Linda.
     18 vectors produced by pass  3 Test12= 1.52D-14 4.76D-09 XBig12= 3.95D-02 3.98D-02.
 CoulSu:  requested number of processors reduced to:  15 ShMem   1 Linda.
 CoulSu:  requested number of processors reduced to:  14 ShMem   1 Linda.
     18 vectors produced by pass  4 Test12= 1.52D-14 4.76D-09 XBig12= 8.44D-04 9.97D-03.
 CoulSu:  requested number of processors reduced to:  15 ShMem   1 Linda.
 CoulSu:  requested number of processors reduced to:  14 ShMem   1 Linda.
     14 vectors produced by pass  5 Test12= 1.52D-14 4.76D-09 XBig12= 6.03D-06 7.25D-04.
 CoulSu:  requested number of processors reduced to:  17 ShMem   1 Linda.
 CoulSu:  requested number of processors reduced to:  16 ShMem   1 Linda.
      6 vectors produced by pass  6 Test12= 1.52D-14 4.76D-09 XBig12= 8.42D-09 2.62D-05.
 CoulSu:  requested number of processors reduced to:  23 ShMem   1 Linda.
 CoulSu:  requested number of processors reduced to:  22 ShMem   1 Linda.
      3 vectors produced by pass  7 Test12= 1.52D-14 4.76D-09 XBig12= 8.05D-12 5.79D-07.
      1 vectors produced by pass  8 Test12= 1.52D-14 4.76D-09 XBig12= 1.29D-14 2.21D-08.
 InvSVY:  IOpt=1 It=  1 EMax= 5.33D-15
 Solved reduced A of dimension   114 with    21 vectors.
 FullF1:  Do perturbations      1 to       3.
 Isotropic polarizability for W=    0.000000       92.99 Bohr**3.
 End of Minotr F.D. properties file   721 does not exist.
 End of Minotr F.D. properties file   722 does not exist.
 End of Minotr F.D. properties file   788 does not exist.
 Leave Link 1002 at Fri Oct 18 01:09:26 2019, MaxMem=   104857600 cpu:             122.5 elap:               5.7
 (Enter /share/home/wli/program/opt/Chem_soft/g16/l701.exe)
 ... and contract with generalized density number  0.
 Compute integral second derivatives.
 R6Disp: Adding Grimme-D3(BJ) dispersion energy 2nd derivatives to the Hessian.
 PrsmSu:  requested number of processors reduced to:   9 ShMem   1 Linda.
 PrsmSu:  requested number of processors reduced to:  13 ShMem   1 Linda.
   1 Symmetry operations used in ECPInt.
 ECPInt:  NShTT=    1378 NPrTT=    5593 LenC2=    1324 LenP2D=    4259.
 LDataN:  DoStor=T MaxTD1= 8 Len=  415
 D2PCM: C-PCM CHGder 2nd derivatives, FixD1E=F FixD2E=F DoIter=F DoCFld=F I1PDM=0
 GePol: Maximum number of non-zero 2nd derivatives   =     380
 CoulSu:  requested number of processors reduced to:  13 ShMem   1 Linda.
 CoulSu:  requested number of processors reduced to:  13 ShMem   1 Linda.
 CoulSu:  requested number of processors reduced to:  13 ShMem   1 Linda.
 CoulSu:  requested number of processors reduced to:  13 ShMem   1 Linda.
 Leave Link  701 at Fri Oct 18 01:09:27 2019, MaxMem=   104857600 cpu:              25.2 elap:               1.6
 (Enter /share/home/wli/program/opt/Chem_soft/g16/l702.exe)
[...]
     15 -0.640525D-04  0.453801D-05 -0.107411D-01 -0.299830D-02  0.109107D-02
     16  0.422646D-01  0.261091D-05 -0.119666D-04 -0.151057D-01 -0.236731D-02
     17  0.688792D-05 -0.113816D-01  0.000000D+00  0.617634D-02  0.207506D-02
     18  0.543875D-04  0.000000D+00 -0.113777D-01  0.332522D-02  0.111242D-02
                6             7             8             9            10 
      6  0.122924D+00
      7 -0.350490D-03  0.333422D-01
      8  0.139706D-01  0.499533D-02  0.294783D+00
      9  0.104736D-01 -0.307332D-02 -0.153487D+00  0.138963D+00
     10  0.614068D-03  0.276510D-02  0.450844D-04  0.613849D-03  0.334998D-01
     11 -0.232520D-01  0.544104D-03  0.546859D-02  0.226543D-01  0.161110D-03
     12 -0.560097D-02 -0.300100D-03 -0.410876D-02 -0.663283D-02  0.583960D-02
     13  0.110382D-02 -0.146413D-01 -0.185266D-02  0.114424D-02 -0.147345D-01
     14  0.110359D-02  0.548875D-02  0.189577D-02 -0.116556D-02  0.170356D-03
     15  0.577744D-03 -0.335167D-02 -0.115489D-02  0.732760D-03  0.646531D-02
     16 -0.128925D-02 -0.150985D-01  0.229084D-02 -0.141498D-02 -0.150695D-01
     17  0.110860D-02 -0.599057D-02  0.194637D-02 -0.117816D-02 -0.193132D-03
     18  0.591597D-03  0.365247D-02 -0.118124D-02  0.716254D-03 -0.701006D-02
               11            12            13            14            15 
     11  0.450251D-01
     12  0.928560D-02  0.388837D+00
     13 -0.640813D-04 -0.215630D-02  0.247742D-01
     14 -0.152177D-04  0.593200D-04  0.216908D-04  0.551293D-02
     15  0.526450D-04  0.242408D-02 -0.866186D-04  0.666265D-05  0.562288D-02
     16  0.681284D-04  0.268625D-02 -0.265733D-01  0.319892D-05  0.353317D-04
     17  0.175591D-04  0.741752D-04 -0.206777D-05  0.138152D-02  0.000000D+00
     18  0.738122D-04  0.267465D-02 -0.166288D-04  0.000000D+00  0.138368D-02
               16            17            18 
     16  0.295824D-01
     17  0.253661D-05  0.596104D-02
     18 -0.538382D-05 -0.418364D-05  0.601150D-02
 FormGI is forming the generalized inverse of G from B-inverse, IUseBI=4.
 Force constants in internal coordinates: 
                1             2             3             4             5 
      1  0.389108D+00
      2 -0.239457D-03  0.389098D+00
      3 -0.234724D-03 -0.234922D-03  0.389184D+00
      4 -0.244736D-02 -0.242896D-02 -0.241199D-02  0.247743D-01
      5 -0.243459D-02 -0.243102D-02 -0.242914D-02  0.265733D-01  0.295824D-01
      6  0.160772D-02  0.160856D-02 -0.322748D-02  0.179221D-03 -0.167086D-03
      7  0.162447D-02 -0.321890D-02  0.162408D-02  0.344805D-03 -0.371897D-03
      8 -0.340594D-02  0.181124D-02  0.175809D-02  0.493022D-02 -0.512290D-02
      9 -0.348477D-02  0.164556D-02  0.156398D-02 -0.495211D-02  0.511977D-02
     10 -0.321960D-02  0.162322D-02  0.162218D-02  0.360348D-03 -0.374712D-03
     11  0.182038D-02 -0.339797D-02  0.176449D-02  0.484958D-02 -0.511323D-02
     12  0.164972D-02 -0.349015D-02  0.156461D-02 -0.492524D-02  0.511816D-02
     13  0.179791D-02  0.180411D-02 -0.320992D-02  0.505728D-02 -0.509285D-02
     14  0.162516D-02  0.162936D-02 -0.344584D-02 -0.495985D-02  0.509121D-02
     15 -0.689072D-02  0.345680D-02  0.332207D-02 -0.218848D-04 -0.313556D-05
     16 -0.252860D-04  0.596096D-02 -0.576838D-02  0.997817D-04 -0.360316D-05
     17  0.298692D-03  0.304500D-03  0.252165D-03  0.171091D-01 -0.176757D-01
     18  0.165695D-02  0.165781D-02 -0.333663D-02 -0.118157D-03  0.144181D-03
     19 -0.155469D-02 -0.155562D-02  0.313767D-02  0.110062D-03 -0.132767D-03
     20 -0.167134D-02  0.332749D-02 -0.166935D-02 -0.501498D-04  0.705669D-04
     21  0.156816D-02 -0.312249D-02  0.156996D-02  0.473611D-04 -0.654804D-04
     22 -0.332829D-02  0.166968D-02  0.166728D-02  0.680076D-04 -0.736138D-04
     23  0.312286D-02 -0.156687D-02 -0.156771D-02 -0.627009D-04  0.672868D-04
                6             7             8             9            10 
      6  0.679167D-02
      7 -0.339600D-02  0.680914D-02
      8  0.320205D-03  0.418967D-03  0.271940D-01
      9 -0.329276D-03 -0.433479D-03 -0.161564D-01  0.295959D-01
     10 -0.339462D-02 -0.339021D-02 -0.476344D-03  0.499396D-03  0.680805D-02
     11  0.308884D-03 -0.473787D-03 -0.113724D-01  0.591854D-02  0.426047D-03
     12 -0.312735D-03  0.494706D-03  0.588031D-02 -0.125617D-01 -0.444798D-03
     13 -0.607410D-03  0.437571D-03 -0.114140D-01  0.582051D-02  0.437963D-03
     14  0.627920D-03 -0.447447D-03  0.586768D-02 -0.126179D-01 -0.446399D-03
     15 -0.907122D-05 -0.145117D-04  0.110376D-01  0.134396D-01  0.230515D-04
     16  0.186992D-04 -0.203064D-04 -0.331492D-04 -0.902514D-04  0.383293D-05
     17  0.254192D-03  0.326620D-03  0.509385D-02 -0.510444D-02  0.332290D-03
     18  0.677672D-02 -0.339643D-02 -0.160935D-03 -0.180191D-04 -0.339518D-02
     19 -0.677675D-02  0.339618D-02 -0.185587D-04 -0.171063D-03  0.339493D-02
     20  0.338922D-02 -0.678780D-02  0.351982D-04  0.135115D-03  0.339131D-02
     21 -0.338934D-02  0.678678D-02  0.104062D-03  0.879748D-04 -0.339039D-02
     22 -0.338750D-02 -0.339138D-02  0.196133D-03  0.153135D-03  0.678649D-02
     23  0.338740D-02  0.339060D-02  0.122620D-03  0.259037D-03 -0.678531D-02
               11            12            13            14            15 
     11  0.271943D-01
     12 -0.161377D-01  0.295559D-01
     13 -0.114426D-01  0.584903D-02  0.273587D-01
     14  0.583902D-02 -0.125867D-01 -0.161701D-01  0.296700D-01
     15 -0.545389D-02 -0.668135D-02 -0.559352D-02 -0.675017D-02  0.244772D-01
     16 -0.961962D-02 -0.116383D-01  0.969168D-02  0.116927D-01 -0.123401D-03
     17  0.506090D-02 -0.509357D-02  0.516434D-02 -0.512114D-02 -0.105884D-04
     18 -0.172141D-03  0.000000D+00  0.874845D-04  0.272204D-03 -0.178954D-03
     19 -0.104238D-04 -0.183523D-03  0.265867D-03  0.110161D-03 -0.189621D-03
     20 -0.199428D-03 -0.148769D-03  0.442819D-04  0.137091D-03  0.170314D-03
     21 -0.120973D-03 -0.260187D-03  0.133222D-03  0.524660D-04  0.192036D-03
     22 -0.272874D-04 -0.147821D-03 -0.432025D-04 -0.135114D-03  0.349267D-03
     23 -0.110550D-03 -0.766644D-04 -0.132645D-03 -0.576951D-04  0.381658D-03
               16            17            18            19            20 
     16  0.246238D-01
     17  0.436861D-04  0.176672D-01
     18  0.312319D-03 -0.545458D-04  0.679103D-02
     19  0.324511D-03  0.444424D-04 -0.678004D-02  0.679101D-02
     20  0.308295D-03 -0.239809D-04  0.339630D-02 -0.339077D-02  0.679410D-02
     21  0.324787D-03  0.197504D-04 -0.339092D-02  0.339631D-02 -0.678371D-02
     22 -0.402422D-05  0.305648D-04 -0.339473D-02  0.338927D-02  0.339779D-02
     23  0.000000D+00 -0.246921D-04  0.338913D-02 -0.339470D-02 -0.339294D-02
               21            22            23 
     21  0.679509D-02
     22 -0.339279D-02  0.679252D-02
     23  0.339878D-02 -0.678207D-02  0.679347D-02
 Leave Link  716 at Fri Oct 18 01:10:25 2019, MaxMem=   104857600 cpu:               3.9 elap:               0.2
 (Enter /share/home/wli/program/opt/Chem_soft/g16/l103.exe)

 GradGradGradGradGradGradGradGradGradGradGradGradGradGradGradGradGradGrad
 Berny optimization.
 Red2BG is reusing G-inverse.
 Internal  Forces:  Max     0.000003287 RMS     0.000001270
 Search for a saddle point.
 Step number   1 out of a maximum of    2
 All quantities printed in internal units (Hartrees-Bohrs-Radians)
 Swapping is turned off.
 Second derivative matrix not updated -- analytic derivatives used.
 ITU=  0
     Eigenvalues ---   -0.01929   0.03030   0.03033   0.04201   0.04253
     Eigenvalues ---    0.04602   0.05407   0.06279   0.06289   0.38876
     Eigenvalues ---    0.38990   0.38993
 Eigenvectors required to have negative eigenvalues:
                          R4        R5        D1        A8        A4
   1                   -0.60755   0.57376   0.44814   0.12975  -0.12971
                          A3        A7        A9        A6        A5
   1                    0.12964  -0.12962  -0.12925   0.12918   0.00843
 Angle between quadratic step and forces=  28.61 degrees.
 Linear search not attempted -- option 19 set.
 Iteration  1 RMS(Cart)=  0.00004700 RMS(Int)=  0.00000000
 Iteration  2 RMS(Cart)=  0.00000000 RMS(Int)=  0.00000000
 ITry= 1 IFail=0 DXMaxC= 1.10D-04 DCOld= 1.00D+10 DXMaxT= 3.00D-01 DXLimC= 3.00D+00 Rises=F
 Variable       Old X    -DE/DX   Delta X   Delta X   Delta X     New X
                                 (Linear)    (Quad)   (Total)
    R1        2.02335   0.00000   0.00000   0.00001   0.00001   2.02335
    R2        2.02336  -0.00000   0.00000  -0.00000  -0.00000   2.02336
    R3        2.02345  -0.00000   0.00000  -0.00000  -0.00000   2.02344
    R4        4.51920  -0.00000   0.00000  -0.00001  -0.00001   4.51918
    R5        4.64870   0.00000   0.00000  -0.00003  -0.00003   4.64867
    A1        2.09405  -0.00000   0.00000  -0.00001  -0.00001   2.09404
    A2        2.09380   0.00000   0.00000   0.00001   0.00001   2.09381
    A3        1.55324  -0.00000   0.00000  -0.00000  -0.00000   1.55324
    A4        1.58765   0.00000   0.00000   0.00007   0.00007   1.58772
    A5        2.09380   0.00000   0.00000   0.00000   0.00000   2.09380
    A6        1.55324   0.00000   0.00000   0.00000   0.00000   1.55324
    A7        1.58777  -0.00000   0.00000  -0.00000  -0.00000   1.58777
    A8        1.55426  -0.00000   0.00000  -0.00004  -0.00004   1.55422
    A9        1.58862  -0.00000   0.00000  -0.00003  -0.00003   1.58859
   A10        3.14089   0.00000   0.00000   0.00007   0.00007   3.14096
   A11        3.14268  -0.00000   0.00000  -0.00004  -0.00004   3.14264
    D1        3.08198  -0.00000   0.00000  -0.00005  -0.00005   3.08194
    D2        2.09458  -0.00000   0.00000  -0.00001  -0.00001   2.09457
    D3       -2.09454   0.00000   0.00000   0.00001   0.00001  -2.09453
    D4       -2.09430  -0.00000   0.00000  -0.00001  -0.00001  -2.09431
    D5        2.09432   0.00000   0.00000   0.00001   0.00001   2.09433
    D6        2.09430   0.00000   0.00000   0.00000   0.00000   2.09431
    D7       -2.09432  -0.00000   0.00000  -0.00000  -0.00000  -2.09432
         Item               Value     Threshold  Converged?
 Maximum Force            0.000003     0.000450     YES
 RMS     Force            0.000001     0.000300     YES
 Maximum Displacement     0.000110     0.001800     YES
 RMS     Displacement     0.000047     0.001200     YES
 Predicted change in Energy=-3.543599D-10
 Optimization completed.
    -- Stationary point found.
                           ----------------------------
                           !   Optimized Parameters   !
                           ! (Angstroms and Degrees)  !
 --------------------------                            --------------------------
 ! Name  Definition              Value          Derivative Info.                !
 --------------------------------------------------------------------------------
 ! R1    R(1,2)                  1.0707         -DE/DX =    0.0                 !
 ! R2    R(1,3)                  1.0707         -DE/DX =    0.0                 !
 ! R3    R(1,4)                  1.0708         -DE/DX =    0.0                 !
 ! R4    R(1,5)                  2.3915         -DE/DX =    0.0                 !
 ! R5    R(1,6)                  2.46           -DE/DX =    0.0                 !
 ! A1    A(2,1,3)              119.9801         -DE/DX =    0.0                 !
 ! A2    A(2,1,4)              119.9659         -DE/DX =    0.0                 !
 ! A3    A(2,1,5)               88.9942         -DE/DX =    0.0                 !
 ! A4    A(2,1,6)               90.9655         -DE/DX =    0.0                 !
 ! A5    A(3,1,4)              119.9658         -DE/DX =    0.0                 !
 ! A6    A(3,1,5)               88.9939         -DE/DX =    0.0                 !
 ! A7    A(3,1,6)               90.9723         -DE/DX =    0.0                 !
 ! A8    A(4,1,5)               89.0528         -DE/DX =    0.0                 !
 ! A9    A(4,1,6)               91.0212         -DE/DX =    0.0                 !
 ! A10   L(5,1,6,2,-1)         179.9597         -DE/DX =    0.0                 !
 ! A11   L(5,1,6,2,-2)         180.0623         -DE/DX =    0.0                 !
 ! D1    D(2,1,4,3)            176.5847         -DE/DX =    0.0                 !
 ! D2    D(2,1,5,3)            120.0107         -DE/DX =    0.0                 !
 ! D3    D(2,1,6,3)           -120.0085         -DE/DX =    0.0                 !
 ! D4    D(2,1,5,4)           -119.9947         -DE/DX =    0.0                 !
 ! D5    D(2,1,6,4)            119.9957         -DE/DX =    0.0                 !
 ! D6    D(3,1,5,4)            119.9946         -DE/DX =    0.0                 !
 ! D7    D(3,1,6,4)           -119.9958         -DE/DX =    0.0                 !
 --------------------------------------------------------------------------------
 GradGradGradGradGradGradGradGradGradGradGradGradGradGradGradGradGradGrad

 Leave Link  103 at Fri Oct 18 01:10:26 2019, MaxMem=   104857600 cpu:              11.8 elap:               0.5
 (Enter /share/home/wli/program/opt/Chem_soft/g16/l9999.exe)

 ----------------------------------------------------------------------

 Electric dipole moment (input orientation):
 (Debye = 10**-18 statcoulomb cm , SI units = C m)
                  (au)            (Debye)         (10**-30 SI)
   Tot        0.146339D+01      0.371957D+01      0.124072D+02
   x         -0.146339D+01     -0.371957D+01     -0.124071D+02
   y          0.120259D-03      0.305669D-03      0.101960D-02
   z          0.132333D-02      0.336358D-02      0.112197D-01

 Dipole polarizability, Alpha (input orientation).
 (esu units = cm**3 , SI units = C**2 m**2 J**-1)
 Alpha(0;0):
               (au)            (10**-24 esu)      (10**-40 SI)
   iso        0.929504D+02      0.137738D+02      0.153254D+02
   aniso      0.130913D+03      0.193994D+02      0.215847D+02
   xx         0.180226D+03      0.267067D+02      0.297153D+02
   yx         0.971536D-03      0.143967D-03      0.160185D-03
   yy         0.493038D+02      0.730607D+01      0.812910D+01
   zx         0.331208D-02      0.490799D-03      0.546088D-03
   zy         0.204599D-02      0.303184D-03      0.337338D-03
   zz         0.493213D+02      0.730866D+01      0.813198D+01

 ----------------------------------------------------------------------

 Dipole orientation:
     6          0.00251045          0.00020684         -1.39359503
     1         -0.96136453         -1.77844246         -1.42940430
     1         -1.05557963          1.72448656         -1.42931553
     1          2.02495641          0.05460295         -1.42655786
    17          0.00359421          0.00036629         -5.91279172
    35         -0.00460149         -0.00042439          3.25509564

 Electric dipole moment (dipole orientation):
 (Debye = 10**-18 statcoulomb cm , SI units = C m)
                  (au)            (Debye)         (10**-30 SI)
   Tot        0.146339D+01      0.371957D+01      0.124072D+02
   x          0.000000D+00      0.000000D+00      0.000000D+00
   y          0.000000D+00      0.000000D+00      0.000000D+00
   z          0.146339D+01      0.371957D+01      0.124072D+02

 Dipole polarizability, Alpha (dipole orientation).
 (esu units = cm**3 , SI units = C**2 m**2 J**-1)
 Alpha(0;0):
               (au)            (10**-24 esu)      (10**-40 SI)
   iso        0.929504D+02      0.137738D+02      0.153254D+02
   aniso      0.130913D+03      0.193994D+02      0.215847D+02
   xx         0.493214D+02      0.730868D+01      0.813200D+01
   yx         0.205542D-02      0.304582D-03      0.338893D-03
   yy         0.493038D+02      0.730607D+01      0.812910D+01
   zx        -0.121689D+00     -0.180324D-01     -0.200638D-01
   zy        -0.117187D-01     -0.173653D-02     -0.193215D-02
   zz         0.180226D+03      0.267067D+02      0.297152D+02

 ----------------------------------------------------------------------
 1\1\GINC-C01N05\Freq\RB3LYP\def2TZVP\C1H3Br1Cl1(1-)\ROOT\18-Oct-2019\0
 \\#P Geom=AllCheck Guess=TCheck SCRF=Check GenChk RB3LYP/def2TZVP Freq
 \\Title Card Required\\-1,1\C,0.737459636,0.000048963,0.0006615872\H,0
 .7558705558,-0.9412151453,-0.5093386677\H,0.7559306877,0.9124509652,-0
 .5593474186\H,0.7558729829,0.0289205803,1.0708753167\Cl,3.1289150789,-
 0.0000631409,-0.0009274977\Br,-1.7225239413,-0.0000832224,-0.000877319
 8\\Version=ES64L-G16RevA.03\State=1-A\HF=-3074.5007954\RMSD=1.114e-09\
 RMSF=2.799e-06\ZeroPoint=0.0366606\Thermal=0.0414821\Dipole=-1.4633912
 ,0.0001203,0.0013233\DipoleDeriv=4.4748143,0.0000991,0.000192,-0.00000
 2,0.0443847,0.00013,-0.0002683,0.0000375,0.0460772,-0.2454008,0.007032
 2,0.0035848,-0.0207935,0.0856718,-0.0014247,-0.0113099,-0.0017823,0.08
 71268,-0.2454438,-0.0069408,0.0039998,0.020169,0.0857886,0.0014952,-0.
 0124048,0.001972,0.0867962,-0.2448013,-0.0003077,-0.0088049,0.0005735,
 0.0880892,-0.000218,0.0231794,-0.0002229,0.0825458,-2.4739815,0.000133
 5,0.0005964,0.0001683,-0.6712898,0.0000662,0.002037,0.0000258,-0.67082
 23,-2.2651869,-0.0000163,0.0004318,-0.0001154,-0.6326445,-0.0000487,-0
 .0012334,-0.0000302,-0.6317236\Polar=180.226021,0.0009715,49.3038309,0
 .0033121,0.002046,49.3212965\Quadrupole=-21.1644587,10.5827504,10.5817
 083,0.000107,0.0024192,-0.0000457\PG=C01 [X(C1H3Br1Cl1)]\NImag=1\\-0.0
 6066254,0.00001002,0.67733793,-0.00001539,-0.00000137,0.67703970,-0.00
 912059,0.00570899,0.00311552,0.03339839,0.00509019,-0.30776454,-0.1371
 4098,-0.00512059,0.31086283,0.00277070,-0.13713381,-0.12896554,-0.0028
 4884,0.14420295,0.12292352,-0.00912289,-0.00554813,0.00342311,0.002755
 33,0.00051051,-0.00035049,0.03334222,-0.00494874,-0.29247296,0.1459613
 1,-0.00052985,-0.01162116,0.01397062,0.00499533,0.29478338,0.00305337,
 0.14595376,-0.14425296,-0.00032315,-0.01277734,0.01047364,-0.00307332,
 -0.15348703,0.13896313,-0.00922654,-0.00017106,-0.00652277,0.00276564,
 -0.00001236,0.00061407,0.00276510,0.00004508,0.00061385,0.03349981,-0.
 00014942,-0.05493204,-0.00881445,-0.00055984,0.00443599,-0.02325196,0.
 00054410,0.00546859,0.02265434,0.00016111,0.04502512,-0.00579901,-0.00
 882223,-0.38170238,-0.00027044,0.00351188,-0.00560097,-0.00030010,-0.0
 0410876,-0.00663283,0.00583960,0.00928560,0.38883745,0.04586795,-0.000
 00244,0.00001149,-0.01469305,0.00189956,0.00110382,-0.01464125,-0.0018
 5266,0.00114424,-0.01473451,-0.00006408,-0.00215630,0.02477416,-0.0000
 0894,-0.01078683,-0.00000409,-0.00567506,0.00201182,0.00110359,0.00548
 875,0.00189577,-0.00116556,0.00017036,-0.00001522,0.00005932,0.0000216
 9,0.00551293,-0.00006405,0.00000454,-0.01074114,-0.00299830,0.00109107
 ,0.00057774,-0.00335167,-0.00115489,0.00073276,0.00646531,0.00005264,0
 .00242408,-0.00008662,0.00000666,0.00562288,0.04226461,0.00000261,-0.0
 0001197,-0.01510572,-0.00236731,-0.00128925,-0.01509851,0.00229084,-0.
 00141498,-0.01506950,0.00006813,0.00268625,-0.02657330,0.00000320,0.00
 003533,0.02958241,0.00000689,-0.01138156,-0.00000041,0.00617634,0.0020
 7506,0.00110860,-0.00599057,0.00194637,-0.00117816,-0.00019313,0.00001
 756,0.00007418,-0.00000207,0.00138152,-0.00000002,0.00000254,0.0059610
 4,0.00005439,-0.00000090,-0.01137768,0.00332522,0.00111242,0.00059160,
 0.00365247,-0.00118124,0.00071625,-0.00701006,0.00007381,0.00267465,-0
 .00001663,0.00000009,0.00138368,-0.00000538,-0.00000418,0.00601150\\0.
 00000023,0.00000005,0.00000065,-0.00000073,0.00000101,0.00000067,0.000
 00160,0.00000111,0.00000101,-0.00000353,-0.00000090,0.00000013,0.00000
 238,0.00000031,0.00000616,0.00000004,-0.00000160,-0.00000861\\\@


 FROM AN ANONYMOUS WRITER, ON PERSPECTIVE:

 MAN, DESPITE HIS ARTISTIC PRETENSIONS, HIS SOPHISTICATION AND MANY 
 ACCOMPLISHMENTS, OWES THE FACT OF HIS EXISTENCE TO A SIX-INCH LAYER OF 
 TOPSOIL AND THE FACT THAT IT RAINS.
 Job cpu time:       0 days  0 hours  8 minutes 41.8 seconds.
 Elapsed time:       0 days  0 hours  0 minutes 25.1 seconds.
 File lengths (MBytes):  RWF=    272 Int=      0 D2E=      0 Chk=     32 Scr=     32
 Normal termination of Gaussian 16 at Fri Oct 18 01:10:26 2019.
