Title Card Required                                                     
Freq      RB3LYP                                                      def2TZVP            
Number of atoms                            I                6
Info1-9                                    I   N=           9
          14          14        1002           0           1         100
           6          18        -502
Full Title                                 C   N=           2
Title Card Required     
Route                                      C   N=           8
#p opt=(calcall,ts,noeigen) freq b3lyp def2tzvp em=gd3bj scr
f=(smd,solvent=dichloromethane)     
Charge                                     I               -1
Multiplicity                               I                1
Number of electrons                        I               62
Number of alpha electrons                  I               31
Number of beta electrons                   I               31
Number of basis functions                  I              134
Number of independent functions            I              134
Number of point charges in /Mol/           I                0
Number of translation vectors              I                0
Atomic numbers                             I   N=           6
           6           1           1           1          17          35
Nuclear charges                            R   N=           6
  6.00000000E+00  1.00000000E+00  1.00000000E+00  1.00000000E+00  1.70000000E+01
  3.50000000E+01
Current cartesian coordinates              R   N=          18
 -1.48899535E+00 -9.11794600E-04 -1.46920921E-03 -1.46188466E+00  1.53507988E+00
  1.31625630E+00 -1.46004988E+00  3.72680542E-01 -1.99047719E+00 -1.46105316E+00
 -1.91029726E+00  6.69402031E-01 -5.91838939E+00  2.37356226E-04  3.94074357E-04
  3.25513084E+00  1.13501230E-04  1.98138591E-04
Number of symbols in /Mol/                 I                0
Force Field                                I                0
Atom Types                                 C   N=           6
                                                            
            
Int Atom Types                             I   N=           6
           0           0           0           0           0           0
MM charges                                 R   N=           6
  0.00000000E+00  0.00000000E+00  0.00000000E+00  0.00000000E+00  0.00000000E+00
  0.00000000E+00
Integer atomic weights                     I   N=           6
          12           1           1           1          35          79
Real atomic weights                        R   N=           6
  1.20000000E+01  1.00782504E+00  1.00782504E+00  1.00782504E+00  3.49688527E+01
  7.89183361E+01
Atom fragment info                         I   N=           6
           0           0           0           0           0           0
Atom residue num                           I   N=           6
           0           0           0           0           0           0
Nuclear spins                              I   N=           6
           0           1           1           1           3           3
Nuclear ZEff                               R   N=           6
 -3.60000000E+00 -1.00000000E+00 -1.00000000E+00 -1.00000000E+00 -1.42400000E+01
 -2.45000000E+01
Nuclear ZNuc                               R   N=           6
  6.00000000E+00  1.00000000E+00  1.00000000E+00  1.00000000E+00  1.70000000E+01
  3.50000000E+01
Nuclear QMom                               R   N=           6
  0.00000000E+00  0.00000000E+00  0.00000000E+00  0.00000000E+00 -8.16500000E+00
  3.13000000E+01
Nuclear GFac                               R   N=           6
  0.00000000E+00  2.79284600E+00  2.79284600E+00  2.79284600E+00  8.21874000E-01
  2.10639900E+00
MicOpt                                     I   N=           6
          -1          -1          -1          -1          -1          -1
Number of residues                         I                0
Number of secondary structures             I                0
Redundant internal dimensions              I   N=           4
          23           5          11           7
Redundant internal coordinate indices      I   N=          92
           1           2           0           0           1           3
           0           0           1           4           0           0
           1           5           0           0           1           6
           0           0           2           1           3           0
           2           1           4           0           2           1
           5           0           2           1           6           0
           3           1           4           0           3           1
           5           0           3           1           6           0
           4           1           5           0           4           1
           6           0           5           1           6         -21
           5           1           6         -22           2           1
           4           3           2           1           5           3
           2           1           6           3           2           1
           5           4           2           1           6           4
           3           1           5           4           3           1
           6           4
Redundant internal coordinates             R   N=          23
  2.02395799E+00  2.02399650E+00  2.02400638E+00  4.42939458E+00  4.74412659E+00
  2.09386108E+00  2.09432930E+00  1.58372081E+00  1.55700817E+00  2.09400062E+00
  1.58546350E+00  1.55680021E+00  1.58470747E+00  1.55707790E+00  3.14072898E+00
  3.14131626E+00 -3.09367460E+00  2.09419016E+00 -2.09419521E+00 -2.09464104E+00
  2.09465697E+00  2.09435411E+00 -2.09433313E+00
ZRed-IntVec                                I   N=          23
           0           0           0           0           0           0
           0           0           0           0           0           0
           0           0           0           0           0           0
           0           0           0           0           0
ZRed-FPVec                                 R   N=          23
  0.00000000E+00  0.00000000E+00  0.00000000E+00  0.00000000E+00  0.00000000E+00
  0.00000000E+00  0.00000000E+00  0.00000000E+00  0.00000000E+00  0.00000000E+00
  0.00000000E+00  0.00000000E+00  0.00000000E+00  0.00000000E+00  0.00000000E+00
  0.00000000E+00  0.00000000E+00  0.00000000E+00  0.00000000E+00  0.00000000E+00
  0.00000000E+00  0.00000000E+00  0.00000000E+00
ZRed-Constraint1                           R   N=          23
  2.02395799E+00  2.02399650E+00  2.02400638E+00  4.42939458E+00  4.74412659E+00
  2.09386108E+00  2.09432930E+00  1.58372081E+00  1.55700817E+00  2.09400062E+00
  1.58546350E+00  1.55680021E+00  1.58470747E+00  1.55707790E+00  3.14072898E+00
  3.14131626E+00 -3.09367460E+00  2.09419016E+00 -2.09419521E+00 -2.09464104E+00
  2.09465697E+00  2.09435411E+00 -2.09433313E+00
ZRed-Constraint2                           R   N=          23
  2.02149883E+00  2.02150032E+00  2.02152620E+00  4.61364733E+00  4.56930300E+00
  2.09003151E+00  2.08994594E+00  1.52012899E+00  1.62132282E+00  2.08994152E+00
  1.52013590E+00  1.62132903E+00  1.52037807E+00  1.62148316E+00  3.14145181E+00
  3.14182176E+00  2.96689774E+00  2.09446829E+00 -2.09444473E+00 -2.09436103E+00
  2.09437223E+00  2.09435599E+00 -2.09436834E+00
SymInf integers                            I   N=          26
           1           1           1           1           1           0
           0           0           0           0           0           0
           0           0           0           0           0           0
           0           0           0           0           0           0
           0           0
RotTr to input orientation                 R   N=          12
 -9.99999998E-01  5.50215833E-05 -2.21163900E-05  1.02192934E-06 -3.56911495E-01
 -9.34138204E-01 -5.92913568E-05 -9.34138203E-01  3.56911494E-01 -3.31113120E-02
 -9.74204880E-04  1.54509558E-04
Number of contracted shells                I               52
Number of primitive shells                 I              104
Pure/Cartesian d shells                    I                0
Pure/Cartesian f shells                    I                0
Highest angular momentum                   I                3
Largest degree of contraction              I                8
Shell types                                I   N=          52
           0           0           0           0           0           1
           1           1          -2          -2          -3           0
           0           0           1           0           0           0
           1           0           0           0           1           0
           0           0           0           0           1           1
           1           1           1          -2          -2          -3
           0           0           0           0           0           0
           1           1           1           1           1          -2
          -2          -2          -2          -3
Number of primitives per shell             I   N=          52
           6           2           1           1           1           4
           1           1           1           1           1           3
           1           1           1           3           1           1
           1           3           1           1           1           7
           3           2           1           1           5           1
           1           1           1           2           1           1
           8           4           2           1           1           1
           6           4           1           1           1           5
           1           1           1           1
Shell to atom map                          I   N=          52
           1           1           1           1           1           1
           1           1           1           1           1           2
           2           2           2           3           3           3
           3           4           4           4           4           5
           5           5           5           5           5           5
           5           5           5           5           5           5
           6           6           6           6           6           6
           6           6           6           6           6           6
           6           6           6           6
Primitive exponents                        R   N=         104
  1.35753497E+04  2.03523337E+03  4.63225624E+02  1.31200196E+02  4.28530159E+01
  1.55841858E+01  6.20671385E+00  2.57648965E+00  5.76963394E-01  2.29728314E-01
  9.51644400E-02  3.46972322E+01  7.95826228E+00  2.37808269E+00  8.14332082E-01
  2.88875473E-01  1.00568237E-01  1.09700000E+00  3.18000000E-01  7.61000000E-01
  3.40613410E+01  5.12357460E+00  1.16466260E+00  3.27230410E-01  1.03072410E-01
  8.00000000E-01  3.40613410E+01  5.12357460E+00  1.16466260E+00  3.27230410E-01
  1.03072410E-01  8.00000000E-01  3.40613410E+01  5.12357460E+00  1.16466260E+00
  3.27230410E-01  1.03072410E-01  8.00000000E-01  6.95079909E+04  1.04261569E+04
  2.37323341E+03  6.71564201E+02  2.18419998E+02  7.75722497E+01  2.88888153E+01
  1.27105272E+02  3.93395830E+01  7.67406800E+00  3.87456276E+00  1.83858326E+00
  5.02290575E-01  1.79627234E-01  6.66504233E+02  1.57642417E+02  5.02625210E+01
  1.85360781E+01  7.29405328E+00  2.94332490E+00  1.04049708E+00  3.84564151E-01
  1.30696427E-01  4.61000000E+00  1.01100000E+00  3.39000000E-01  7.06000000E-01
  5.65073253E+05  8.47017232E+04  1.92762719E+04  5.45642846E+03  1.77695035E+03
  6.39193983E+02  2.48788240E+02  9.86783055E+01  6.06078246E+02  1.88455985E+02
  3.14971445E+01  1.37360083E+01  2.12032128E+01  3.76164202E+00  1.77359340E+00
  4.51974137E-01  1.66133771E-01  3.01969557E+03  7.15354811E+02  2.29983288E+02
  8.61678446E+01  3.46678708E+01  1.41138703E+01  5.70856531E+01  8.81938458E+00
  3.93403029E+00  1.79988304E+00  6.68994105E-01  2.71362382E-01  1.00837902E-01
  1.68853703E+02  4.99779499E+01  1.82749133E+01  7.24556946E+00  2.85623150E+00
  1.04596211E+00  5.68656550E-01  2.20314900E-01  5.70833120E-01
Contraction coefficients                   R   N=         104
  6.06455036E-04  4.69790889E-03  2.43324776E-02  9.73999683E-02  3.01955843E-01
  6.62336091E-01  6.55953085E-01  3.75856333E-01  1.00000000E+00  1.00000000E+00
  1.00000000E+00  1.13272200E-02  7.61696592E-02  3.01922522E-01  7.27850273E-01
  1.00000000E+00  1.00000000E+00  1.00000000E+00  1.00000000E+00  1.00000000E+00
  2.54393072E-02  1.90085949E-01  8.52441130E-01  1.00000000E+00  1.00000000E+00
  1.00000000E+00  2.54393072E-02  1.90085949E-01  8.52441130E-01  1.00000000E+00
  1.00000000E+00  1.00000000E+00  2.54393072E-02  1.90085949E-01  8.52441130E-01
  1.00000000E+00  1.00000000E+00  1.00000000E+00  5.14573896E-04  3.97813448E-03
  2.04561787E-02  8.01481029E-02  2.34547703E-01  4.45433686E-01  3.54668425E-01
  1.12936881E-01  4.83735142E-01 -1.22922974E+00  6.72968216E-01  3.49560514E-01
  1.00000000E+00  1.00000000E+00  3.35025082E-03  2.67639704E-02  1.23626824E-01
  3.58457879E-01  6.16772964E-01  1.00000000E+00  1.00000000E+00  1.00000000E+00
  1.00000000E+00  1.82658350E-01  9.13291752E-01  1.00000000E+00  1.00000000E+00
  2.31399680E-04  1.79448090E-03  9.33663283E-03  3.80221412E-02  1.24386082E-01
  2.97682655E-01  4.35124787E-01  2.38454326E-01 -2.58029981E-02 -1.21437702E-01
  5.49271541E-01  5.40386743E-01 -4.18976571E-01  1.19629220E+00  1.00000000E+00
  1.00000000E+00  1.00000000E+00  2.69789672E-03  2.20611770E-02  1.04688630E-01
  3.03097102E-01  4.81931819E-01  2.63728834E-01 -1.92881876E-02  2.88644595E-01
  5.10580635E-01  2.96268745E-01  1.00000000E+00  1.00000000E+00  1.00000000E+00
  9.84282772E-03  6.81283771E-02  2.35738015E-01  4.42779544E-01  4.63345555E-01
  1.00000000E+00  1.00000000E+00  1.00000000E+00  1.00000000E+00
Coordinates of each shell                  R   N=         156
 -1.48899535E+00 -9.11794600E-04 -1.46920921E-03 -1.48899535E+00 -9.11794600E-04
 -1.46920921E-03 -1.48899535E+00 -9.11794600E-04 -1.46920921E-03 -1.48899535E+00
 -9.11794600E-04 -1.46920921E-03 -1.48899535E+00 -9.11794600E-04 -1.46920921E-03
 -1.48899535E+00 -9.11794600E-04 -1.46920921E-03 -1.48899535E+00 -9.11794600E-04
 -1.46920921E-03 -1.48899535E+00 -9.11794600E-04 -1.46920921E-03 -1.48899535E+00
 -9.11794600E-04 -1.46920921E-03 -1.48899535E+00 -9.11794600E-04 -1.46920921E-03
 -1.48899535E+00 -9.11794600E-04 -1.46920921E-03 -1.46188466E+00  1.53507988E+00
  1.31625630E+00 -1.46188466E+00  1.53507988E+00  1.31625630E+00 -1.46188466E+00
  1.53507988E+00  1.31625630E+00 -1.46188466E+00  1.53507988E+00  1.31625630E+00
 -1.46004988E+00  3.72680542E-01 -1.99047719E+00 -1.46004988E+00  3.72680542E-01
 -1.99047719E+00 -1.46004988E+00  3.72680542E-01 -1.99047719E+00 -1.46004988E+00
  3.72680542E-01 -1.99047719E+00 -1.46105316E+00 -1.91029726E+00  6.69402031E-01
 -1.46105316E+00 -1.91029726E+00  6.69402031E-01 -1.46105316E+00 -1.91029726E+00
  6.69402031E-01 -1.46105316E+00 -1.91029726E+00  6.69402031E-01 -5.91838939E+00
  2.37356226E-04  3.94074357E-04 -5.91838939E+00  2.37356226E-04  3.94074357E-04
 -5.91838939E+00  2.37356226E-04  3.94074357E-04 -5.91838939E+00  2.37356226E-04
  3.94074357E-04 -5.91838939E+00  2.37356226E-04  3.94074357E-04 -5.91838939E+00
  2.37356226E-04  3.94074357E-04 -5.91838939E+00  2.37356226E-04  3.94074357E-04
 -5.91838939E+00  2.37356226E-04  3.94074357E-04 -5.91838939E+00  2.37356226E-04
  3.94074357E-04 -5.91838939E+00  2.37356226E-04  3.94074357E-04 -5.91838939E+00
  2.37356226E-04  3.94074357E-04 -5.91838939E+00  2.37356226E-04  3.94074357E-04
 -5.91838939E+00  2.37356226E-04  3.94074357E-04  3.25513084E+00  1.13501230E-04
  1.98138591E-04  3.25513084E+00  1.13501230E-04  1.98138591E-04  3.25513084E+00
  1.13501230E-04  1.98138591E-04  3.25513084E+00  1.13501230E-04  1.98138591E-04
  3.25513084E+00  1.13501230E-04  1.98138591E-04  3.25513084E+00  1.13501230E-04
  1.98138591E-04  3.25513084E+00  1.13501230E-04  1.98138591E-04  3.25513084E+00
  1.13501230E-04  1.98138591E-04  3.25513084E+00  1.13501230E-04  1.98138591E-04
  3.25513084E+00  1.13501230E-04  1.98138591E-04  3.25513084E+00  1.13501230E-04
  1.98138591E-04  3.25513084E+00  1.13501230E-04  1.98138591E-04  3.25513084E+00
  1.13501230E-04  1.98138591E-04  3.25513084E+00  1.13501230E-04  1.98138591E-04
  3.25513084E+00  1.13501230E-04  1.98138591E-04  3.25513084E+00  1.13501230E-04
  1.98138591E-04
Num ILSW                                   I              100
ILSW                                       I   N=         100
           0           0           0           0           2           0
           0           0           0           0         402          -1
           5           0           0           0           2           0
           0           0           0           0           1           0
           1           0           0           0           0           0
           0           0      100000           0          -1           0
           0           0           0           0           0           0
           0           0           0           1           0           0
           0 -2000000000           1           0           0           0
           0           0         141          52           0           0
           0           0           5           0           0           0
           0           0           0           6           0           1
           0           0           0           0           0           0
           0           0           0           0           0           0
           0           0           0           0           0           0
           0           0           0           0           0           0
           0           0           0           0
Num RLSW                                   I               52
RLSW                                       R   N=          52
  8.00000000E-01  7.20000000E-01  1.00000000E+00  8.10000000E-01  2.00000000E-01
  0.00000000E+00  0.00000000E+00  1.00000000E+00  0.00000000E+00  0.00000000E+00
  0.00000000E+00  0.00000000E+00  1.00000000E+00  0.00000000E+00  0.00000000E+00
  0.00000000E+00  0.00000000E+00  1.00000000E+00  0.00000000E+00  0.00000000E+00
  0.00000000E+00  0.00000000E+00  1.00000000E+00  0.00000000E+00  0.00000000E+00
  0.00000000E+00  0.00000000E+00  1.00000000E+00  0.00000000E+00  0.00000000E+00
  0.00000000E+00  0.00000000E+00  1.00000000E+00  0.00000000E+00  0.00000000E+00
  0.00000000E+00  0.00000000E+00  0.00000000E+00  1.00000000E+00  1.00000000E+00
  0.00000000E+00  1.00000000E+00  0.00000000E+00  0.00000000E+00  0.00000000E+00
  0.00000000E+00  0.00000000E+00  0.00000000E+00  0.00000000E+00  0.00000000E+00
  0.00000000E+00  0.00000000E+00
ECP-MxAtEC                                 I           250000
ECP-MaxLECP                                I               10
ECP-MaxAtL                                 I          2250000
ECP-MxTECP                                 I         11250000
ECP-LenNCZ                                 I                0
ECP-KFirst                                 I   N=          60
           0           0           0           0           0           0
           0           0           0           0           0           0
           0           0           0           0           0           0
           0           0           0           0           0           0
           0           0           0           0           0           0
           0           0           0           0           0           0
           0           0           0           0           0           0
           0           0           0           0           0           0
           0           0           0           0           0           0
           0           0           0           0           0           0
ECP-KLast                                  I   N=          60
           0           0           0           0           0           0
           0           0           0           0           0           0
           0           0           0           0           0           0
           0           0           0           0           0           0
           0           0           0           0           0           0
           0           0           0           0           0           0
           0           0           0           0           0           0
           0           0           0           0           0           0
           0           0           0           0           0           0
           0           0           0           0           0           0
ECP-LMax                                   I   N=           6
           0           0           0           0           0           0
ECP-LPSkip                                 I   N=           6
           1           1           1           1           1           1
ECP-RNFroz                                 R   N=           6
  0.00000000E+00  0.00000000E+00  0.00000000E+00  0.00000000E+00  0.00000000E+00
  0.00000000E+00
ECP-NLP                                    I                0
ECP-CLP1                                   R      0.000000000000000E+00
ECP-CLP2                                   R      0.000000000000000E+00
ECP-ZLP                                    R      0.000000000000000E+00
MxBond                                     I                5
NBond                                      I   N=           6
           5           1           1           1           1           1
IBond                                      I   N=          30
           2           3           4           5           6           1
           0           0           0           0           1           0
           0           0           0           1           0           0
           0           0           1           0           0           0
           0           1           0           0           0           0
RBond                                      R   N=          30
  1.00000000E+00  1.00000000E+00  1.00000000E+00  1.00000000E-01  1.00000000E-01
  1.00000000E+00  0.00000000E+00  0.00000000E+00  0.00000000E+00  0.00000000E+00
  1.00000000E+00  0.00000000E+00  0.00000000E+00  0.00000000E+00  0.00000000E+00
  1.00000000E+00  0.00000000E+00  0.00000000E+00  0.00000000E+00  0.00000000E+00
  1.00000000E-01  0.00000000E+00  0.00000000E+00  0.00000000E+00  0.00000000E+00
  1.00000000E-01  0.00000000E+00  0.00000000E+00  0.00000000E+00  0.00000000E+00
Virial Ratio                               R      2.001525866573495E+00
SCF Energy                                 R     -3.074497053472921E+03
Total Energy                               R     -3.074497053472921E+03
RMS Force                                  R      1.568346994697912E-05
RMS Density                                R      1.194435411769266E-09
NImag                                      I                1
Job Status                                 I                1
Nuclear derivative order                   I                2
PCM-NSphere                                I                6
PCM-NGenSphere                             I                6
PCM-NOrd                                   I   N=           6
           1           2           3           4           5           6
PCM-SphereRadii                            R   N=           6
  3.49599333E+00  2.26767135E+00  2.26767135E+00  2.26767135E+00  4.49754818E+00
  5.78256194E+00
PCM-SphereLoc                              R   N=          18
 -1.48899535E+00 -9.11794600E-04 -1.46920921E-03 -1.46188466E+00  1.53507988E+00
  1.31625630E+00 -1.46004988E+00  3.72680542E-01 -1.99047719E+00 -1.46105316E+00
 -1.91029726E+00  6.69402031E-01 -5.91838939E+00  2.37356226E-04  3.94074357E-04
  3.25513084E+00  1.13501230E-04  1.98138591E-04
External E-field                           R   N=          35
  0.00000000E+00  0.00000000E+00  0.00000000E+00  0.00000000E+00  0.00000000E+00
  0.00000000E+00  0.00000000E+00  0.00000000E+00  0.00000000E+00  0.00000000E+00
  0.00000000E+00  0.00000000E+00  0.00000000E+00  0.00000000E+00  0.00000000E+00
  0.00000000E+00  0.00000000E+00  0.00000000E+00  0.00000000E+00  0.00000000E+00
  0.00000000E+00  0.00000000E+00  0.00000000E+00  0.00000000E+00  0.00000000E+00
  0.00000000E+00  0.00000000E+00  0.00000000E+00  0.00000000E+00  0.00000000E+00
  0.00000000E+00  0.00000000E+00  0.00000000E+00  0.00000000E+00  0.00000000E+00
IOpCl                                      I                0
IROHF                                      I                0
Alpha Orbital Energies                     R   N=         134
 -4.82747986E+02 -1.01413853E+02 -6.23965593E+01 -5.62112591E+01 -5.62098141E+01
 -5.62098140E+01 -1.02014761E+01 -9.34587253E+00 -8.58741352E+00 -7.10406966E+00
 -7.10053533E+00 -7.10053517E+00 -6.41255624E+00 -6.40811227E+00 -6.40811212E+00
 -2.52774092E+00 -2.52654770E+00 -2.52654748E+00 -2.52300884E+00 -2.52300826E+00
 -7.19810523E-01 -6.75804303E-01 -6.31573674E-01 -4.17701216E-01 -4.17667477E-01
 -2.90832479E-01 -2.36225802E-01 -2.36222079E-01 -2.10462848E-01 -2.10462052E-01
 -2.06848292E-01 -9.61837075E-03  7.93453182E-02  1.41687655E-01  1.41724312E-01
  2.27584490E-01  2.27631960E-01  2.31366667E-01  2.88669848E-01  3.09642071E-01
  3.09643294E-01  3.58921869E-01  3.58925028E-01  3.67144656E-01  3.89019716E-01
  3.89023681E-01  4.20081010E-01  4.20313813E-01  4.20318734E-01  4.62928279E-01
  4.89070128E-01  4.89129978E-01  5.11681882E-01  5.32226597E-01  5.32309512E-01
  5.35584441E-01  5.35595866E-01  5.76456408E-01  8.08385167E-01  8.08665956E-01
  8.08701036E-01  9.87229330E-01  9.87264227E-01  1.00170680E+00  1.13763250E+00
  1.39916091E+00  1.41764921E+00  1.41765429E+00  1.43964742E+00  1.43966793E+00
  1.47370684E+00  1.48528634E+00  1.48531236E+00  1.49329486E+00  1.49667075E+00
  1.60853510E+00  1.60853861E+00  1.61781701E+00  1.61823924E+00  1.66478795E+00
  1.66480093E+00  1.67648582E+00  1.70136609E+00  1.70143375E+00  1.79875589E+00
  1.79881281E+00  1.83650093E+00  1.84428957E+00  1.84439566E+00  1.93564491E+00
  1.93580360E+00  1.96543278E+00  2.06036297E+00  2.09018554E+00  2.09026936E+00
  2.15407149E+00  2.15412811E+00  2.17538047E+00  2.17653839E+00  2.27478016E+00
  2.27493200E+00  2.29939856E+00  2.29967510E+00  2.30330679E+00  2.32134990E+00
  2.50395160E+00  2.50442409E+00  2.67112379E+00  2.69209873E+00  2.69225742E+00
  2.81894097E+00  3.09242022E+00  3.09247427E+00  3.22823990E+00  3.22831280E+00
  3.31671437E+00  3.32131653E+00  3.32145917E+00  3.64647716E+00  3.89264198E+00
  4.07199410E+00  4.07205003E+00  4.09744102E+00  4.09746897E+00  4.18185820E+00
  4.18202660E+00  4.26281342E+00  4.71925836E+00  7.43807182E+00  1.07675955E+01
  1.07676130E+01  1.09124137E+01  2.21198979E+01  2.46460695E+01
Alpha MO coefficients                      R   N=       17956
  5.49264484E-07 -1.54751263E-06 -2.44365670E-05  2.55093008E-04 -8.07245601E-04
  1.23928234E-05  3.94482740E-09  3.13182769E-09 -2.76852582E-05  1.71870912E-08
  2.66084276E-08 -3.08136506E-04 -7.19563327E-08 -1.76865345E-09 -8.15159608E-06
  9.59655696E-09 -1.58800971E-09  1.41221641E-05  9.07870147E-09  5.34708077E-05
 -6.95354695E-08  3.63084006E-08 -9.26662311E-05 -4.48040321E-08 -8.74042493E-06
  6.17217489E-06  6.67243092E-06 -6.78545594E-06 -6.09927633E-09 -7.95542163E-06
  1.71284034E-06 -1.58397988E-05 -2.04221292E-06  1.52596219E-04  1.27064108E-05
  9.42918981E-06  8.08923577E-06 -1.58357081E-05 -1.90263715E-06  1.52632177E-04
  1.27169914E-05  2.29459875E-06 -1.21827194E-05 -1.58383967E-05 -1.96546214E-06
  1.52558971E-04  1.27124409E-05 -1.17010978E-05  4.11779590E-06  3.50985106E-06
 -9.64154797E-06 -1.89153182E-05  3.63516540E-05 -6.36202806E-05 -1.15049603E-06
  1.54937994E-09  2.23242525E-09  4.74279254E-06 -6.06777914E-09 -8.72843902E-09
 -1.29147914E-05  1.46005100E-08  2.08234338E-08  2.25257912E-05 -2.19275890E-08
 -2.92239375E-08 -3.09736154E-05  2.15252467E-08  1.64319088E-08  8.66389191E-07
  6.46101847E-09  2.33412108E-09 -1.50387371E-06  2.02405671E-09 -5.14528892E-06
 -2.33302976E-08 -5.95860516E-09  8.92019536E-06 -8.88457973E-09  3.15985850E-07
 -3.72629289E-06 -2.31935035E-07  2.26120511E-07 -1.59182940E-09  4.81240200E-06
 -6.86348448E-08  9.97348940E-01  7.60226362E-03 -3.74445880E-03  3.20595964E-03
 -1.34685373E-03  8.50926367E-04  4.92750378E-07 -1.40674214E-10  6.76103370E-11
 -6.63071276E-06 -8.52075785E-10 -2.25038092E-09  3.32799258E-05  4.34333770E-09
  1.15276770E-08 -2.91229351E-05  6.26771606E-10 -9.23268335E-09 -2.62755802E-04
 -6.87523165E-08 -9.97360664E-08  2.69935340E-06 -3.51287915E-09 -6.66183419E-11
 -4.67504132E-06 -2.53154110E-09 -2.43972535E-05  3.17790724E-08  4.59124908E-10
  4.22544279E-05  2.23812262E-08  5.23415069E-05 -6.81868780E-08 -6.86294697E-10
 -9.06531078E-05 -4.67671093E-08 -8.81610686E-05  1.15205638E-07  3.30903612E-10
  1.52694596E-04  7.46780202E-08  4.20710027E-07  1.44287660E-05 -3.07314420E-07
  2.98316516E-07  4.69666600E-10 -1.86273588E-05 -9.29512046E-08  2.24597287E-07
 -4.70333384E-07  9.90703163E-05 -8.42508907E-04  2.63363259E-03  4.02996440E-05
 -3.72622565E-08 -8.47916684E-08 -9.98489005E-05  1.32206064E-07  3.97617388E-07
 -9.45058795E-04  3.66638243E-07  2.67305030E-07  2.32477250E-05  9.79414701E-08
 -4.00894740E-08 -4.02019656E-05  5.08166328E-08 -1.64496592E-04 -2.70811940E-07
  2.14292127E-07  2.84585154E-04 -1.72618221E-07  2.69118801E-05  2.20597522E-05
 -2.05555976E-05  2.09183629E-05  2.48456374E-08 -2.85045540E-05 -5.27036416E-06
  4.93039654E-05  1.40005047E-05 -5.44175368E-04  4.10497079E-05 -2.97316604E-05
 -2.54764902E-05  4.94176575E-05  1.47025724E-05 -5.44398354E-04  4.10323003E-05
 -7.22990671E-06  3.85069978E-05  4.93589809E-05  1.43680120E-05 -5.44097863E-04