Title Card Required                                                     
Freq      RB3LYP                                                      def2TZVP            
Number of atoms                            I                6
Info1-9                                    I   N=           9
          14          14        1002           0           1         100
           6          18        -502
Full Title                                 C   N=           2
Title Card Required     
Route                                      C   N=           8
#p opt=(calcall,ts,noeigen) freq b3lyp def2tzvp em=gd3bj scr
f=(pcm,solvent=dichloromethane)     
Charge                                     I               -1
Multiplicity                               I                1
Number of electrons                        I               62
Number of alpha electrons                  I               31
Number of beta electrons                   I               31
Number of basis functions                  I              134
Number of independent functions            I              134
Number of point charges in /Mol/           I                0
Number of translation vectors              I                0
Atomic numbers                             I   N=           6
           6           1           1           1          17          35
Nuclear charges                            R   N=           6
  6.00000000E+00  1.00000000E+00  1.00000000E+00  1.00000000E+00  1.70000000E+01
  3.50000000E+01
Current cartesian coordinates              R   N=          18
 -1.40457726E+00  1.24142663E-03 -5.47236950E-04 -1.44055682E+00 -7.58808567E-02
 -2.02191446E+00 -1.44060786E+00 -1.71089339E+00  1.07659272E+00 -1.44238846E+00
  1.79033986E+00  9.43126052E-01 -5.92551157E+00 -3.49704005E-04  1.52436757E-04
  3.24242038E+00 -1.44834413E-04  8.25053845E-05
Number of symbols in /Mol/                 I                0
Force Field                                I                0
Atom Types                                 C   N=           6
                                                            
            
Int Atom Types                             I   N=           6
           0           0           0           0           0           0
MM charges                                 R   N=           6
  0.00000000E+00  0.00000000E+00  0.00000000E+00  0.00000000E+00  0.00000000E+00
  0.00000000E+00
Integer atomic weights                     I   N=           6
          12           1           1           1          35          79
Real atomic weights                        R   N=           6
  1.20000000E+01  1.00782504E+00  1.00782504E+00  1.00782504E+00  3.49688527E+01
  7.89183361E+01
Atom fragment info                         I   N=           6
           0           0           0           0           0           0
Atom residue num                           I   N=           6
           0           0           0           0           0           0
Nuclear spins                              I   N=           6
           0           1           1           1           3           3
Nuclear ZEff                               R   N=           6
 -3.60000000E+00 -1.00000000E+00 -1.00000000E+00 -1.00000000E+00 -1.42400000E+01
 -2.45000000E+01
Nuclear ZNuc                               R   N=           6
  6.00000000E+00  1.00000000E+00  1.00000000E+00  1.00000000E+00  1.70000000E+01
  3.50000000E+01
Nuclear QMom                               R   N=           6
  0.00000000E+00  0.00000000E+00  0.00000000E+00  0.00000000E+00 -8.16500000E+00
  3.13000000E+01
Nuclear GFac                               R   N=           6
  0.00000000E+00  2.79284600E+00  2.79284600E+00  2.79284600E+00  8.21874000E-01
  2.10639900E+00
MicOpt                                     I   N=           6
          -1          -1          -1          -1          -1          -1
Number of residues                         I                0
Number of secondary structures             I                0
Redundant internal dimensions              I   N=           4
          23           5          11           7
Redundant internal coordinate indices      I   N=          92
           1           2           0           0           1           3
           0           0           1           4           0           0
           1           5           0           0           1           6
           0           0           2           1           3           0
           2           1           4           0           2           1
           5           0           2           1           6           0
           3           1           4           0           3           1
           5           0           3           1           6           0
           4           1           5           0           4           1
           6           0           5           1           6         -21
           5           1           6         -22           2           1
           4           3           2           1           5           3
           2           1           6           3           2           1
           5           4           2           1           6           4
           3           1           5           4           3           1
           6           4
Redundant internal coordinates             R   N=          23
  2.02315789E+00  2.02310017E+00  2.02307245E+00  4.52093464E+00  4.64699789E+00
  2.09367016E+00  2.09372709E+00  1.55315276E+00  1.58870517E+00  2.09408706E+00
  1.55260548E+00  1.58828220E+00  1.55234434E+00  1.58968804E+00  3.14185793E+00
  3.14225361E+00  3.07892621E+00  2.09422589E+00 -2.09421235E+00 -2.09429094E+00
  2.09431315E+00  2.09466847E+00 -2.09465981E+00
ZRed-IntVec                                I   N=          23
           0           0           0           0           0           0
           0           0           0           0           0           0
           0           0           0           0           0           0
           0           0           0           0           0
ZRed-FPVec                                 R   N=          23
  0.00000000E+00  0.00000000E+00  0.00000000E+00  0.00000000E+00  0.00000000E+00
  0.00000000E+00  0.00000000E+00  0.00000000E+00  0.00000000E+00  0.00000000E+00
  0.00000000E+00  0.00000000E+00  0.00000000E+00  0.00000000E+00  0.00000000E+00
  0.00000000E+00  0.00000000E+00  0.00000000E+00  0.00000000E+00  0.00000000E+00
  0.00000000E+00  0.00000000E+00  0.00000000E+00
ZRed-Constraint1                           R   N=          23
  2.02315789E+00  2.02310017E+00  2.02307245E+00  4.52093464E+00  4.64699789E+00
  2.09367016E+00  2.09372709E+00  1.55315276E+00  1.58870517E+00  2.09408706E+00
  1.55260548E+00  1.58828220E+00  1.55234434E+00  1.58968804E+00  3.14185793E+00
  3.14225361E+00  3.07892621E+00  2.09422589E+00 -2.09421235E+00 -2.09429094E+00
  2.09431315E+00  2.09466847E+00 -2.09465981E+00
ZRed-Constraint2                           R   N=          23
  2.02149883E+00  2.02150032E+00  2.02152620E+00  4.61364733E+00  4.56930300E+00
  2.09003151E+00  2.08994594E+00  1.52012899E+00  1.62132282E+00  2.08994152E+00
  1.52013590E+00  1.62132903E+00  1.52037807E+00  1.62148316E+00  3.14145181E+00
  3.14182176E+00  2.96689774E+00  2.09446829E+00 -2.09444473E+00 -2.09436103E+00
  2.09437223E+00  2.09435599E+00 -2.09436834E+00
SymInf integers                            I   N=          26
           1           1           1           1           1           0
           0           0           0           0           0           0
           0           0           0           0           0           0
           0           0           0           0           0           0
           0           0
RotTr to input orientation                 R   N=          12
 -9.99999996E-01  8.63106228E-06 -8.64892329E-05 -8.13758963E-05 -4.42622419E-01
  8.96708084E-01 -3.05425302E-05  8.96708087E-01  4.42622418E-01 -1.24412074E-02
  7.23638825E-04 -2.51298343E-04
Number of contracted shells                I               52
Number of primitive shells                 I              104
Pure/Cartesian d shells                    I                0
Pure/Cartesian f shells                    I                0
Highest angular momentum                   I                3
Largest degree of contraction              I                8
Shell types                                I   N=          52
           0           0           0           0           0           1
           1           1          -2          -2          -3           0
           0           0           1           0           0           0
           1           0           0           0           1           0
           0           0           0           0           1           1
           1           1           1          -2          -2          -3
           0           0           0           0           0           0
           1           1           1           1           1          -2
          -2          -2          -2          -3
Number of primitives per shell             I   N=          52
           6           2           1           1           1           4
           1           1           1           1           1           3
           1           1           1           3           1           1
           1           3           1           1           1           7
           3           2           1           1           5           1
           1           1           1           2           1           1
           8           4           2           1           1           1
           6           4           1           1           1           5
           1           1           1           1
Shell to atom map                          I   N=          52
           1           1           1           1           1           1
           1           1           1           1           1           2
           2           2           2           3           3           3
           3           4           4           4           4           5
           5           5           5           5           5           5
           5           5           5           5           5           5
           6           6           6           6           6           6
           6           6           6           6           6           6
           6           6           6           6
Primitive exponents                        R   N=         104
  1.35753497E+04  2.03523337E+03  4.63225624E+02  1.31200196E+02  4.28530159E+01
  1.55841858E+01  6.20671385E+00  2.57648965E+00  5.76963394E-01  2.29728314E-01
  9.51644400E-02  3.46972322E+01  7.95826228E+00  2.37808269E+00  8.14332082E-01
  2.88875473E-01  1.00568237E-01  1.09700000E+00  3.18000000E-01  7.61000000E-01
  3.40613410E+01  5.12357460E+00  1.16466260E+00  3.27230410E-01  1.03072410E-01
  8.00000000E-01  3.40613410E+01  5.12357460E+00  1.16466260E+00  3.27230410E-01
  1.03072410E-01  8.00000000E-01  3.40613410E+01  5.12357460E+00  1.16466260E+00
  3.27230410E-01  1.03072410E-01  8.00000000E-01  6.95079909E+04  1.04261569E+04
  2.37323341E+03  6.71564201E+02  2.18419998E+02  7.75722497E+01  2.88888153E+01
  1.27105272E+02  3.93395830E+01  7.67406800E+00  3.87456276E+00  1.83858326E+00
  5.02290575E-01  1.79627234E-01  6.66504233E+02  1.57642417E+02  5.02625210E+01
  1.85360781E+01  7.29405328E+00  2.94332490E+00  1.04049708E+00  3.84564151E-01
  1.30696427E-01  4.61000000E+00  1.01100000E+00  3.39000000E-01  7.06000000E-01
  5.65073253E+05  8.47017232E+04  1.92762719E+04  5.45642846E+03  1.77695035E+03
  6.39193983E+02  2.48788240E+02  9.86783055E+01  6.06078246E+02  1.88455985E+02
  3.14971445E+01  1.37360083E+01  2.12032128E+01  3.76164202E+00  1.77359340E+00
  4.51974137E-01  1.66133771E-01  3.01969557E+03  7.15354811E+02  2.29983288E+02
  8.61678446E+01  3.46678708E+01  1.41138703E+01  5.70856531E+01  8.81938458E+00
  3.93403029E+00  1.79988304E+00  6.68994105E-01  2.71362382E-01  1.00837902E-01
  1.68853703E+02  4.99779499E+01  1.82749133E+01  7.24556946E+00  2.85623150E+00
  1.04596211E+00  5.68656550E-01  2.20314900E-01  5.70833120E-01
Contraction coefficients                   R   N=         104
  6.06455036E-04  4.69790889E-03  2.43324776E-02  9.73999683E-02  3.01955843E-01
  6.62336091E-01  6.55953085E-01  3.75856333E-01  1.00000000E+00  1.00000000E+00
  1.00000000E+00  1.13272200E-02  7.61696592E-02  3.01922522E-01  7.27850273E-01
  1.00000000E+00  1.00000000E+00  1.00000000E+00  1.00000000E+00  1.00000000E+00
  2.54393072E-02  1.90085949E-01  8.52441130E-01  1.00000000E+00  1.00000000E+00
  1.00000000E+00  2.54393072E-02  1.90085949E-01  8.52441130E-01  1.00000000E+00
  1.00000000E+00  1.00000000E+00  2.54393072E-02  1.90085949E-01  8.52441130E-01
  1.00000000E+00  1.00000000E+00  1.00000000E+00  5.14573896E-04  3.97813448E-03
  2.04561787E-02  8.01481029E-02  2.34547703E-01  4.45433686E-01  3.54668425E-01
  1.12936881E-01  4.83735142E-01 -1.22922974E+00  6.72968216E-01  3.49560514E-01
  1.00000000E+00  1.00000000E+00  3.35025082E-03  2.67639704E-02  1.23626824E-01
  3.58457879E-01  6.16772964E-01  1.00000000E+00  1.00000000E+00  1.00000000E+00
  1.00000000E+00  1.82658350E-01  9.13291752E-01  1.00000000E+00  1.00000000E+00
  2.31399680E-04  1.79448090E-03  9.33663283E-03  3.80221412E-02  1.24386082E-01
  2.97682655E-01  4.35124787E-01  2.38454326E-01 -2.58029981E-02 -1.21437702E-01
  5.49271541E-01  5.40386743E-01 -4.18976571E-01  1.19629220E+00  1.00000000E+00
  1.00000000E+00  1.00000000E+00  2.69789672E-03  2.20611770E-02  1.04688630E-01
  3.03097102E-01  4.81931819E-01  2.63728834E-01 -1.92881876E-02  2.88644595E-01
  5.10580635E-01  2.96268745E-01  1.00000000E+00  1.00000000E+00  1.00000000E+00
  9.84282772E-03  6.81283771E-02  2.35738015E-01  4.42779544E-01  4.63345555E-01
  1.00000000E+00  1.00000000E+00  1.00000000E+00  1.00000000E+00
Coordinates of each shell                  R   N=         156
 -1.40457726E+00  1.24142663E-03 -5.47236950E-04 -1.40457726E+00  1.24142663E-03
 -5.47236950E-04 -1.40457726E+00  1.24142663E-03 -5.47236950E-04 -1.40457726E+00
  1.24142663E-03 -5.47236950E-04 -1.40457726E+00  1.24142663E-03 -5.47236950E-04
 -1.40457726E+00  1.24142663E-03 -5.47236950E-04 -1.40457726E+00  1.24142663E-03
 -5.47236950E-04 -1.40457726E+00  1.24142663E-03 -5.47236950E-04 -1.40457726E+00
  1.24142663E-03 -5.47236950E-04 -1.40457726E+00  1.24142663E-03 -5.47236950E-04
 -1.40457726E+00  1.24142663E-03 -5.47236950E-04 -1.44055682E+00 -7.58808567E-02
 -2.02191446E+00 -1.44055682E+00 -7.58808567E-02 -2.02191446E+00 -1.44055682E+00
 -7.58808567E-02 -2.02191446E+00 -1.44055682E+00 -7.58808567E-02 -2.02191446E+00
 -1.44060786E+00 -1.71089339E+00  1.07659272E+00 -1.44060786E+00 -1.71089339E+00
  1.07659272E+00 -1.44060786E+00 -1.71089339E+00  1.07659272E+00 -1.44060786E+00
 -1.71089339E+00  1.07659272E+00 -1.44238846E+00  1.79033986E+00  9.43126052E-01
 -1.44238846E+00  1.79033986E+00  9.43126052E-01 -1.44238846E+00  1.79033986E+00
  9.43126052E-01 -1.44238846E+00  1.79033986E+00  9.43126052E-01 -5.92551157E+00
 -3.49704005E-04  1.52436757E-04 -5.92551157E+00 -3.49704005E-04  1.52436757E-04
 -5.92551157E+00 -3.49704005E-04  1.52436757E-04 -5.92551157E+00 -3.49704005E-04
  1.52436757E-04 -5.92551157E+00 -3.49704005E-04  1.52436757E-04 -5.92551157E+00
 -3.49704005E-04  1.52436757E-04 -5.92551157E+00 -3.49704005E-04  1.52436757E-04
 -5.92551157E+00 -3.49704005E-04  1.52436757E-04 -5.92551157E+00 -3.49704005E-04
  1.52436757E-04 -5.92551157E+00 -3.49704005E-04  1.52436757E-04 -5.92551157E+00
 -3.49704005E-04  1.52436757E-04 -5.92551157E+00 -3.49704005E-04  1.52436757E-04
 -5.92551157E+00 -3.49704005E-04  1.52436757E-04  3.24242038E+00 -1.44834413E-04
  8.25053845E-05  3.24242038E+00 -1.44834413E-04  8.25053845E-05  3.24242038E+00
 -1.44834413E-04  8.25053845E-05  3.24242038E+00 -1.44834413E-04  8.25053845E-05
  3.24242038E+00 -1.44834413E-04  8.25053845E-05  3.24242038E+00 -1.44834413E-04
  8.25053845E-05  3.24242038E+00 -1.44834413E-04  8.25053845E-05  3.24242038E+00
 -1.44834413E-04  8.25053845E-05  3.24242038E+00 -1.44834413E-04  8.25053845E-05
  3.24242038E+00 -1.44834413E-04  8.25053845E-05  3.24242038E+00 -1.44834413E-04
  8.25053845E-05  3.24242038E+00 -1.44834413E-04  8.25053845E-05  3.24242038E+00
 -1.44834413E-04  8.25053845E-05  3.24242038E+00 -1.44834413E-04  8.25053845E-05
  3.24242038E+00 -1.44834413E-04  8.25053845E-05  3.24242038E+00 -1.44834413E-04
  8.25053845E-05
Num ILSW                                   I              100
ILSW                                       I   N=         100
           0           0           0           0           2           0
           0           0           0           0         402          -1
           5           0           0           0           2           0
           0           0           0           0           1           0
           1           0           0           0           0           0
           0           0      100000           0          -1           0
           0           0           0           0           0           0
           0           0           0           1           0           0
           0 -2000000000           1           0           0           0
           0           0         141          52           0           0
           0           0           5           0           0           0
           0           0           0           6           0           1
           0           0           0           0           0           0
           0           0           0           0           0           0
           0           0           0           0           0           0
           0           0           0           0           0           0
           0           0           0           0
Num RLSW                                   I               52
RLSW                                       R   N=          52
  8.00000000E-01  7.20000000E-01  1.00000000E+00  8.10000000E-01  2.00000000E-01
  0.00000000E+00  0.00000000E+00  1.00000000E+00  0.00000000E+00  0.00000000E+00
  0.00000000E+00  0.00000000E+00  1.00000000E+00  0.00000000E+00  0.00000000E+00
  0.00000000E+00  0.00000000E+00  1.00000000E+00  0.00000000E+00  0.00000000E+00
  0.00000000E+00  0.00000000E+00  1.00000000E+00  0.00000000E+00  0.00000000E+00
  0.00000000E+00  0.00000000E+00  1.00000000E+00  0.00000000E+00  0.00000000E+00
  0.00000000E+00  0.00000000E+00  1.00000000E+00  0.00000000E+00  0.00000000E+00
  0.00000000E+00  0.00000000E+00  0.00000000E+00  1.00000000E+00  1.00000000E+00
  0.00000000E+00  1.00000000E+00  0.00000000E+00  0.00000000E+00  0.00000000E+00
  0.00000000E+00  0.00000000E+00  0.00000000E+00  0.00000000E+00  0.00000000E+00
  0.00000000E+00  0.00000000E+00
ECP-MxAtEC                                 I           250000
ECP-MaxLECP                                I               10
ECP-MaxAtL                                 I          2250000
ECP-MxTECP                                 I         11250000
ECP-LenNCZ                                 I                0
ECP-KFirst                                 I   N=          60
           0           0           0           0           0           0
           0           0           0           0           0           0
           0           0           0           0           0           0
           0           0           0           0           0           0
           0           0           0           0           0           0
           0           0           0           0           0           0
           0           0           0           0           0           0
           0           0           0           0           0           0
           0           0           0           0           0           0
           0           0           0           0           0           0
ECP-KLast                                  I   N=          60
           0           0           0           0           0           0
           0           0           0           0           0           0
           0           0           0           0           0           0
           0           0           0           0           0           0
           0           0           0           0           0           0
           0           0           0           0           0           0
           0           0           0           0           0           0
           0           0           0           0           0           0
           0           0           0           0           0           0
           0           0           0           0           0           0
ECP-LMax                                   I   N=           6
           0           0           0           0           0           0
ECP-LPSkip                                 I   N=           6
           1           1           1           1           1           1
ECP-RNFroz                                 R   N=           6
  0.00000000E+00  0.00000000E+00  0.00000000E+00  0.00000000E+00  0.00000000E+00
  0.00000000E+00
ECP-NLP                                    I                0
ECP-CLP1                                   R      0.000000000000000E+00
ECP-CLP2                                   R      0.000000000000000E+00
ECP-ZLP                                    R      0.000000000000000E+00
MxBond                                     I                5
NBond                                      I   N=           6
           5           1           1           1           1           1
IBond                                      I   N=          30
           2           3           4           5           6           1
           0           0           0           0           1           0
           0           0           0           1           0           0
           0           0           1           0           0           0
           0           1           0           0           0           0
RBond                                      R   N=          30
  1.00000000E+00  1.00000000E+00  1.00000000E+00  1.00000000E-01  1.00000000E-01
  1.00000000E+00  0.00000000E+00  0.00000000E+00  0.00000000E+00  0.00000000E+00
  1.00000000E+00  0.00000000E+00  0.00000000E+00  0.00000000E+00  0.00000000E+00
  1.00000000E+00  0.00000000E+00  0.00000000E+00  0.00000000E+00  0.00000000E+00
  1.00000000E-01  0.00000000E+00  0.00000000E+00  0.00000000E+00  0.00000000E+00
  1.00000000E-01  0.00000000E+00  0.00000000E+00  0.00000000E+00  0.00000000E+00
Virial Ratio                               R      2.001523158601035E+00
SCF Energy                                 R     -3.074500637075686E+03
Total Energy                               R     -3.074500637075686E+03
RMS Force                                  R      5.611333275901531E-05
RMS Density                                R      8.185879863882053E-10
NImag                                      I                1
Job Status                                 I                1
Nuclear derivative order                   I                2
PCM-NSphere                                I                6
PCM-NGenSphere                             I                6
PCM-NOrd                                   I   N=           6
           1           2           3           4           5           6
PCM-SphereRadii                            R   N=           6
  4.00253442E+00  2.99956228E+00  2.99956228E+00  2.99956228E+00  4.10231196E+00
  4.35383450E+00
PCM-SphereLoc                              R   N=          18
 -1.40457726E+00  1.24142663E-03 -5.47236950E-04 -1.44055682E+00 -7.58808567E-02
 -2.02191446E+00 -1.44060786E+00 -1.71089339E+00  1.07659272E+00 -1.44238846E+00
  1.79033986E+00  9.43126052E-01 -5.92551157E+00 -3.49704005E-04  1.52436757E-04
  3.24242038E+00 -1.44834413E-04  8.25053845E-05
External E-field                           R   N=          35
  0.00000000E+00  0.00000000E+00  0.00000000E+00  0.00000000E+00  0.00000000E+00
  0.00000000E+00  0.00000000E+00  0.00000000E+00  0.00000000E+00  0.00000000E+00
  0.00000000E+00  0.00000000E+00  0.00000000E+00  0.00000000E+00  0.00000000E+00
  0.00000000E+00  0.00000000E+00  0.00000000E+00  0.00000000E+00  0.00000000E+00
  0.00000000E+00  0.00000000E+00  0.00000000E+00  0.00000000E+00  0.00000000E+00
  0.00000000E+00  0.00000000E+00  0.00000000E+00  0.00000000E+00  0.00000000E+00
  0.00000000E+00  0.00000000E+00  0.00000000E+00  0.00000000E+00  0.00000000E+00
IOpCl                                      I                0
IROHF                                      I                0
Alpha Orbital Energies                     R   N=         134
 -4.82774875E+02 -1.01419726E+02 -6.24234387E+01 -5.62381861E+01 -5.62366720E+01
 -5.62366716E+01 -1.02156217E+01 -9.35183713E+00 -8.61429942E+00 -7.10982357E+00
 -7.10660288E+00 -7.10660168E+00 -6.43957991E+00 -6.43493094E+00 -6.43492993E+00
 -2.55474409E+00 -2.55349219E+00 -2.55349140E+00 -2.54979138E+00 -2.54979108E+00
 -7.29255960E-01 -6.96193365E-01 -6.49697824E-01 -4.31545020E-01 -4.31522018E-01
 -3.04773184E-01 -2.45024359E-01 -2.45006497E-01 -2.35981885E-01 -2.35968794E-01
 -2.25497441E-01 -2.54682471E-02  7.06338895E-02  1.32357996E-01  1.32400697E-01
  2.09669824E-01  2.17009212E-01  2.17030435E-01  2.77211556E-01  2.86649263E-01
  2.86665147E-01  3.38494775E-01  3.38537884E-01  3.52268618E-01  3.63922559E-01
  3.63931238E-01  4.12488653E-01  4.12505367E-01  4.14185024E-01  4.48228690E-01
  4.79753586E-01  4.79824547E-01  5.01135283E-01  5.22710603E-01  5.22760293E-01
  5.27167045E-01  5.27196447E-01  5.59051400E-01  7.91258566E-01  7.91278470E-01
  7.94850398E-01  9.76393148E-01  9.76446680E-01  9.84543323E-01  1.12149165E+00
  1.37053744E+00  1.39031985E+00  1.39033367E+00  1.40831482E+00  1.40839087E+00
  1.45770553E+00  1.46862646E+00  1.46868916E+00  1.47249339E+00  1.48360482E+00
  1.57952969E+00  1.57953789E+00  1.59042075E+00  1.59086022E+00  1.63988436E+00
  1.63989374E+00  1.65404532E+00  1.68492017E+00  1.68501547E+00  1.79673387E+00
  1.79679562E+00  1.82809271E+00  1.83775387E+00  1.83782544E+00  1.93517378E+00
  1.93533784E+00  1.96391992E+00  2.04751278E+00  2.07112547E+00  2.07125230E+00
  2.15113506E+00  2.15115396E+00  2.16806561E+00  2.16920684E+00  2.26444290E+00
  2.26447733E+00  2.29101096E+00  2.29105516E+00  2.29979963E+00  2.32810924E+00
  2.47466803E+00  2.47489807E+00  2.64332357E+00  2.67786535E+00  2.67801665E+00
  2.80176520E+00  3.07914694E+00  3.07917944E+00  3.21597860E+00  3.21606253E+00
  3.26942307E+00  3.30009647E+00  3.30016003E+00  3.63301300E+00  3.86245953E+00
  4.04552059E+00  4.04556948E+00  4.07683312E+00  4.07688882E+00  4.16654543E+00
  4.16675350E+00  4.26327711E+00  4.70817776E+00  7.42289782E+00  1.07600939E+01
  1.07601055E+01  1.08872338E+01  2.21078833E+01  2.46031646E+01
Alpha MO coefficients                      R   N=       17956
  3.74795804E-07 -1.14840286E-06 -1.89987455E-05  2.33361546E-04 -8.09717652E-04
  1.41823052E-05 -1.75428835E-08  6.23097410E-10 -4.25082838E-05  7.38047702E-09
  8.44248779E-09 -3.06223062E-04  9.97530758E-08  3.75830456E-08 -7.36464806E-06
  1.71170139E-09 -1.18688845E-08  1.27612898E-05 -2.40273890E-08  5.22951478E-05
 -2.68149231E-08  9.31878962E-09 -9.06217834E-05  6.07839753E-08 -8.46966737E-06
  5.81541241E-06 -1.19649701E-06 -6.56390454E-06 -1.10296157E-08 -7.49437293E-06
 -2.87425648E-07 -1.41995875E-05 -8.78141781E-07  1.50410198E-04  1.19497570E-05
 -4.35229028E-07 -1.14380320E-05 -1.41906594E-05 -9.44331413E-07  1.50389000E-04
  1.19442679E-05 -9.70478965E-06  6.10678197E-06 -1.42159680E-05 -9.28437057E-07
  1.50337126E-04  1.19495079E-05  1.01152806E-05  5.33529758E-06  3.50359746E-06
 -9.61998203E-06 -1.89068525E-05  3.75610087E-05 -6.59074010E-05 -1.10429568E-06
 -2.86898650E-09  6.97047761E-10  4.51402967E-06  1.12332579E-08 -2.70732733E-09
 -1.20317533E-05 -2.72483480E-08  6.30927910E-09  2.05964963E-05  4.54932986E-08
 -7.92156635E-09 -3.30045997E-05 -6.70086002E-08 -1.06201028E-10  7.55469235E-07
  3.35995905E-09  1.90759511E-10 -1.31110583E-06  3.76579425E-09 -4.06523891E-06
 -1.07016877E-08 -4.51942865E-10  7.04781655E-06 -6.90664130E-09  3.51077851E-07
 -3.35838670E-06  4.69533818E-08  2.65306960E-07 -2.76123949E-11  4.33699777E-06
  2.02464546E-08  9.97348774E-01  7.60154712E-03 -3.74748417E-03  3.21289714E-03
 -1.36258619E-03  8.80687535E-04  5.82079268E-07  9.46041036E-10 -6.62832944E-10
 -7.30171321E-06  3.00932681E-11 -9.45614597E-10  3.77723172E-05 -5.26201866E-10
  6.37581659E-09 -3.95822332E-05 -1.59102917E-08 -8.27866887E-09 -2.70203450E-04
  1.34562371E-07 -3.63987310E-08  2.56378570E-06 -1.11150246E-09 -9.49358924E-10
 -4.44002218E-06  5.27961701E-09 -2.34622002E-05  1.05813244E-08  7.37204156E-09
  4.06335829E-05 -4.52386886E-08  5.11381042E-05 -2.37109454E-08 -1.33312524E-08
 -8.85664640E-05  9.11332565E-08 -9.01053262E-05  4.41644435E-08  1.39003811E-08
  1.56059737E-04 -1.35146119E-07  4.91284512E-07  1.53518566E-05  6.30618189E-08
  3.69049758E-07 -2.12243940E-09 -1.98187128E-05  3.79371675E-08 -2.58124986E-07
  7.40132586E-07  1.12480476E-04 -8.89084846E-04  2.60294641E-03  3.41951901E-05
 -1.39742082E-09 -4.31944312E-08 -5.48263241E-05  1.70182102E-07  2.28553366E-07
 -9.49868094E-04 -2.33600812E-07 -4.64414307E-08  2.50543551E-05  4.31970824E-08
 -9.50997838E-09 -4.33434215E-05 -2.96715897E-08 -1.64317749E-04 -9.65467561E-08
  1.33899320E-07  2.84310120E-04  2.22643695E-07  3.57181996E-05  2.23652283E-05
  5.03534146E-06  2.76904704E-05  2.64978122E-08 -2.88955106E-05  1.25542000E-06
  5.35653802E-05  1.39443456E-05 -5.43906300E-04  4.36122106E-05  1.59392286E-06
  4.09782019E-05  5.35239457E-05  1.38493798E-05 -5.43699424E-04  4.36080761E-05
  3.47418305E-05 -2.18140744E-05  5.35007059E-05  1.34153138E-05 -5.43607403E-04