Title Card Required                                                     
Freq      RB3LYP                                                      def2TZVP            
Number of atoms                            I                6
Info1-9                                    I   N=           9
          14          14        1002           0           1         100
           6          18        -502
Full Title                                 C   N=           2
Title Card Required     
Route                                      C   N=           8
#p opt=(calcall,ts,noeigen) freq b3lyp def2tzvp em=gd3bj scr
f=(smd,solvent=dichloromethane)     
Charge                                     I               -1
Multiplicity                               I                1
Number of electrons                        I               62
Number of alpha electrons                  I               31
Number of beta electrons                   I               31
Number of basis functions                  I              134
Number of independent functions            I              134
Number of point charges in /Mol/           I                0
Number of translation vectors              I                0
Atomic numbers                             I   N=           6
           6           1           1           1          17          35
Nuclear charges                            R   N=           6
  6.00000000E+00  1.00000000E+00  1.00000000E+00  1.00000000E+00  1.70000000E+01
  3.50000000E+01
Current cartesian coordinates              R   N=          18
 -1.48895995E+00  2.90440645E-04 -8.79961253E-04 -1.46068037E+00 -1.99529327E+00
  3.35661141E-01 -1.46191384E+00  1.29003838E+00  1.55868765E+00 -1.46004353E+00
  7.06800125E-01 -1.89731481E+00 -5.91832296E+00 -1.07056321E-04  2.30228016E-04
  3.25508251E+00 -4.19404595E-05  1.23768637E-04
Number of symbols in /Mol/                 I                0
Force Field                                I                0
Atom Types                                 C   N=           6
                                                            
            
Int Atom Types                             I   N=           6
           0           0           0           0           0           0
MM charges                                 R   N=           6
  0.00000000E+00  0.00000000E+00  0.00000000E+00  0.00000000E+00  0.00000000E+00
  0.00000000E+00
Integer atomic weights                     I   N=           6
          12           1           1           1          35          79
Real atomic weights                        R   N=           6
  1.20000000E+01  1.00782504E+00  1.00782504E+00  1.00782504E+00  3.49688527E+01
  7.89183361E+01
Atom fragment info                         I   N=           6
           0           0           0           0           0           0
Atom residue num                           I   N=           6
           0           0           0           0           0           0
Nuclear spins                              I   N=           6
           0           1           1           1           3           3
Nuclear ZEff                               R   N=           6
 -3.60000000E+00 -1.00000000E+00 -1.00000000E+00 -1.00000000E+00 -1.42400000E+01
 -2.45000000E+01
Nuclear ZNuc                               R   N=           6
  6.00000000E+00  1.00000000E+00  1.00000000E+00  1.00000000E+00  1.70000000E+01
  3.50000000E+01
Nuclear QMom                               R   N=           6
  0.00000000E+00  0.00000000E+00  0.00000000E+00  0.00000000E+00 -8.16500000E+00
  3.13000000E+01
Nuclear GFac                               R   N=           6
  0.00000000E+00  2.79284600E+00  2.79284600E+00  2.79284600E+00  8.21874000E-01
  2.10639900E+00
MicOpt                                     I   N=           6
          -1          -1          -1          -1          -1          -1
Number of residues                         I                0
Number of secondary structures             I                0
Redundant internal dimensions              I   N=           4
          23           5          11           7
Redundant internal coordinate indices      I   N=          92
           1           2           0           0           1           3
           0           0           1           4           0           0
           1           5           0           0           1           6
           0           0           2           1           3           0
           2           1           4           0           2           1
           5           0           2           1           6           0
           3           1           4           0           3           1
           5           0           3           1           6           0
           4           1           5           0           4           1
           6           0           5           1           6         -21
           5           1           6         -22           2           1
           4           3           2           1           5           3
           2           1           6           3           2           1
           5           4           2           1           6           4
           3           1           5           4           3           1
           6           4
Redundant internal coordinates             R   N=          23
  2.02395998E+00  2.02396452E+00  2.02397066E+00  4.42936316E+00  4.74404258E+00
  2.09438522E+00  2.09413916E+00  1.58463901E+00  1.55671920E+00  2.09366082E+00
  1.58402371E+00  1.55731459E+00  1.58534999E+00  1.55673159E+00  3.14135821E+00
  3.14202190E+00 -3.09354959E+00  2.09470253E+00 -2.09471410E+00 -2.09448823E+00
  2.09448207E+00  2.09399455E+00 -2.09398914E+00
ZRed-IntVec                                I   N=          23
           0           0           0           0           0           0
           0           0           0           0           0           0
           0           0           0           0           0           0
           0           0           0           0           0
ZRed-FPVec                                 R   N=          23
  0.00000000E+00  0.00000000E+00  0.00000000E+00  0.00000000E+00  0.00000000E+00
  0.00000000E+00  0.00000000E+00  0.00000000E+00  0.00000000E+00  0.00000000E+00
  0.00000000E+00  0.00000000E+00  0.00000000E+00  0.00000000E+00  0.00000000E+00
  0.00000000E+00  0.00000000E+00  0.00000000E+00  0.00000000E+00  0.00000000E+00
  0.00000000E+00  0.00000000E+00  0.00000000E+00
ZRed-Constraint1                           R   N=          23
  2.02395998E+00  2.02396452E+00  2.02397066E+00  4.42936316E+00  4.74404258E+00
  2.09438522E+00  2.09413916E+00  1.58463901E+00  1.55671920E+00  2.09366082E+00
  1.58402371E+00  1.55731459E+00  1.58534999E+00  1.55673159E+00  3.14135821E+00
  3.14202190E+00 -3.09354959E+00  2.09470253E+00 -2.09471410E+00 -2.09448823E+00
  2.09448207E+00  2.09399455E+00 -2.09398914E+00
ZRed-Constraint2                           R   N=          23
  2.02149883E+00  2.02150032E+00  2.02152620E+00  4.61364733E+00  4.56930300E+00
  2.09003151E+00  2.08994594E+00  1.52012899E+00  1.62132282E+00  2.08994152E+00
  1.52013590E+00  1.62132903E+00  1.52037807E+00  1.62148316E+00  3.14145181E+00
  3.14182176E+00  2.96689774E+00  2.09446829E+00 -2.09444473E+00 -2.09436103E+00
  2.09437223E+00  2.09435599E+00 -2.09436834E+00
SymInf integers                            I   N=          26
           1           1           1           1           1           0
           0           0           0           0           0           0
           0           0           0           0           0           0
           0           0           0           0           0           0
           0           0
RotTr to input orientation                 R   N=          12
 -9.99999999E-01 -4.33679719E-05  3.33191323E-05 -3.02549352E-05  9.46211678E-01
  3.23548233E-01 -4.55585828E-05  3.23548232E-01 -9.46211678E-01 -3.30440327E-02
 -1.20795405E-04 -2.64806908E-04
Number of contracted shells                I               52
Number of primitive shells                 I              104
Pure/Cartesian d shells                    I                0
Pure/Cartesian f shells                    I                0
Highest angular momentum                   I                3
Largest degree of contraction              I                8
Shell types                                I   N=          52
           0           0           0           0           0           1
           1           1          -2          -2          -3           0
           0           0           1           0           0           0
           1           0           0           0           1           0
           0           0           0           0           1           1
           1           1           1          -2          -2          -3
           0           0           0           0           0           0
           1           1           1           1           1          -2
          -2          -2          -2          -3
Number of primitives per shell             I   N=          52
           6           2           1           1           1           4
           1           1           1           1           1           3
           1           1           1           3           1           1
           1           3           1           1           1           7
           3           2           1           1           5           1
           1           1           1           2           1           1
           8           4           2           1           1           1
           6           4           1           1           1           5
           1           1           1           1
Shell to atom map                          I   N=          52
           1           1           1           1           1           1
           1           1           1           1           1           2
           2           2           2           3           3           3
           3           4           4           4           4           5
           5           5           5           5           5           5
           5           5           5           5           5           5
           6           6           6           6           6           6
           6           6           6           6           6           6
           6           6           6           6
Primitive exponents                        R   N=         104
  1.35753497E+04  2.03523337E+03  4.63225624E+02  1.31200196E+02  4.28530159E+01
  1.55841858E+01  6.20671385E+00  2.57648965E+00  5.76963394E-01  2.29728314E-01
  9.51644400E-02  3.46972322E+01  7.95826228E+00  2.37808269E+00  8.14332082E-01
  2.88875473E-01  1.00568237E-01  1.09700000E+00  3.18000000E-01  7.61000000E-01
  3.40613410E+01  5.12357460E+00  1.16466260E+00  3.27230410E-01  1.03072410E-01
  8.00000000E-01  3.40613410E+01  5.12357460E+00  1.16466260E+00  3.27230410E-01
  1.03072410E-01  8.00000000E-01  3.40613410E+01  5.12357460E+00  1.16466260E+00
  3.27230410E-01  1.03072410E-01  8.00000000E-01  6.95079909E+04  1.04261569E+04
  2.37323341E+03  6.71564201E+02  2.18419998E+02  7.75722497E+01  2.88888153E+01
  1.27105272E+02  3.93395830E+01  7.67406800E+00  3.87456276E+00  1.83858326E+00
  5.02290575E-01  1.79627234E-01  6.66504233E+02  1.57642417E+02  5.02625210E+01
  1.85360781E+01  7.29405328E+00  2.94332490E+00  1.04049708E+00  3.84564151E-01
  1.30696427E-01  4.61000000E+00  1.01100000E+00  3.39000000E-01  7.06000000E-01
  5.65073253E+05  8.47017232E+04  1.92762719E+04  5.45642846E+03  1.77695035E+03
  6.39193983E+02  2.48788240E+02  9.86783055E+01  6.06078246E+02  1.88455985E+02
  3.14971445E+01  1.37360083E+01  2.12032128E+01  3.76164202E+00  1.77359340E+00
  4.51974137E-01  1.66133771E-01  3.01969557E+03  7.15354811E+02  2.29983288E+02
  8.61678446E+01  3.46678708E+01  1.41138703E+01  5.70856531E+01  8.81938458E+00
  3.93403029E+00  1.79988304E+00  6.68994105E-01  2.71362382E-01  1.00837902E-01
  1.68853703E+02  4.99779499E+01  1.82749133E+01  7.24556946E+00  2.85623150E+00
  1.04596211E+00  5.68656550E-01  2.20314900E-01  5.70833120E-01
Contraction coefficients                   R   N=         104
  6.06455036E-04  4.69790889E-03  2.43324776E-02  9.73999683E-02  3.01955843E-01
  6.62336091E-01  6.55953085E-01  3.75856333E-01  1.00000000E+00  1.00000000E+00
  1.00000000E+00  1.13272200E-02  7.61696592E-02  3.01922522E-01  7.27850273E-01
  1.00000000E+00  1.00000000E+00  1.00000000E+00  1.00000000E+00  1.00000000E+00
  2.54393072E-02  1.90085949E-01  8.52441130E-01  1.00000000E+00  1.00000000E+00
  1.00000000E+00  2.54393072E-02  1.90085949E-01  8.52441130E-01  1.00000000E+00
  1.00000000E+00  1.00000000E+00  2.54393072E-02  1.90085949E-01  8.52441130E-01
  1.00000000E+00  1.00000000E+00  1.00000000E+00  5.14573896E-04  3.97813448E-03
  2.04561787E-02  8.01481029E-02  2.34547703E-01  4.45433686E-01  3.54668425E-01
  1.12936881E-01  4.83735142E-01 -1.22922974E+00  6.72968216E-01  3.49560514E-01
  1.00000000E+00  1.00000000E+00  3.35025082E-03  2.67639704E-02  1.23626824E-01
  3.58457879E-01  6.16772964E-01  1.00000000E+00  1.00000000E+00  1.00000000E+00
  1.00000000E+00  1.82658350E-01  9.13291752E-01  1.00000000E+00  1.00000000E+00
  2.31399680E-04  1.79448090E-03  9.33663283E-03  3.80221412E-02  1.24386082E-01
  2.97682655E-01  4.35124787E-01  2.38454326E-01 -2.58029981E-02 -1.21437702E-01
  5.49271541E-01  5.40386743E-01 -4.18976571E-01  1.19629220E+00  1.00000000E+00
  1.00000000E+00  1.00000000E+00  2.69789672E-03  2.20611770E-02  1.04688630E-01
  3.03097102E-01  4.81931819E-01  2.63728834E-01 -1.92881876E-02  2.88644595E-01
  5.10580635E-01  2.96268745E-01  1.00000000E+00  1.00000000E+00  1.00000000E+00
  9.84282772E-03  6.81283771E-02  2.35738015E-01  4.42779544E-01  4.63345555E-01
  1.00000000E+00  1.00000000E+00  1.00000000E+00  1.00000000E+00
Coordinates of each shell                  R   N=         156
 -1.48895995E+00  2.90440645E-04 -8.79961253E-04 -1.48895995E+00  2.90440645E-04
 -8.79961253E-04 -1.48895995E+00  2.90440645E-04 -8.79961253E-04 -1.48895995E+00
  2.90440645E-04 -8.79961253E-04 -1.48895995E+00  2.90440645E-04 -8.79961253E-04
 -1.48895995E+00  2.90440645E-04 -8.79961253E-04 -1.48895995E+00  2.90440645E-04
 -8.79961253E-04 -1.48895995E+00  2.90440645E-04 -8.79961253E-04 -1.48895995E+00
  2.90440645E-04 -8.79961253E-04 -1.48895995E+00  2.90440645E-04 -8.79961253E-04
 -1.48895995E+00  2.90440645E-04 -8.79961253E-04 -1.46068037E+00 -1.99529327E+00
  3.35661141E-01 -1.46068037E+00 -1.99529327E+00  3.35661141E-01 -1.46068037E+00
 -1.99529327E+00  3.35661141E-01 -1.46068037E+00 -1.99529327E+00  3.35661141E-01
 -1.46191384E+00  1.29003838E+00  1.55868765E+00 -1.46191384E+00  1.29003838E+00
  1.55868765E+00 -1.46191384E+00  1.29003838E+00  1.55868765E+00 -1.46191384E+00
  1.29003838E+00  1.55868765E+00 -1.46004353E+00  7.06800125E-01 -1.89731481E+00
 -1.46004353E+00  7.06800125E-01 -1.89731481E+00 -1.46004353E+00  7.06800125E-01
 -1.89731481E+00 -1.46004353E+00  7.06800125E-01 -1.89731481E+00 -5.91832296E+00
 -1.07056321E-04  2.30228016E-04 -5.91832296E+00 -1.07056321E-04  2.30228016E-04
 -5.91832296E+00 -1.07056321E-04  2.30228016E-04 -5.91832296E+00 -1.07056321E-04
  2.30228016E-04 -5.91832296E+00 -1.07056321E-04  2.30228016E-04 -5.91832296E+00
 -1.07056321E-04  2.30228016E-04 -5.91832296E+00 -1.07056321E-04  2.30228016E-04
 -5.91832296E+00 -1.07056321E-04  2.30228016E-04 -5.91832296E+00 -1.07056321E-04
  2.30228016E-04 -5.91832296E+00 -1.07056321E-04  2.30228016E-04 -5.91832296E+00
 -1.07056321E-04  2.30228016E-04 -5.91832296E+00 -1.07056321E-04  2.30228016E-04
 -5.91832296E+00 -1.07056321E-04  2.30228016E-04  3.25508251E+00 -4.19404595E-05
  1.23768637E-04  3.25508251E+00 -4.19404595E-05  1.23768637E-04  3.25508251E+00
 -4.19404595E-05  1.23768637E-04  3.25508251E+00 -4.19404595E-05  1.23768637E-04
  3.25508251E+00 -4.19404595E-05  1.23768637E-04  3.25508251E+00 -4.19404595E-05
  1.23768637E-04  3.25508251E+00 -4.19404595E-05  1.23768637E-04  3.25508251E+00
 -4.19404595E-05  1.23768637E-04  3.25508251E+00 -4.19404595E-05  1.23768637E-04
  3.25508251E+00 -4.19404595E-05  1.23768637E-04  3.25508251E+00 -4.19404595E-05
  1.23768637E-04  3.25508251E+00 -4.19404595E-05  1.23768637E-04  3.25508251E+00
 -4.19404595E-05  1.23768637E-04  3.25508251E+00 -4.19404595E-05  1.23768637E-04
  3.25508251E+00 -4.19404595E-05  1.23768637E-04  3.25508251E+00 -4.19404595E-05
  1.23768637E-04
Num ILSW                                   I              100
ILSW                                       I   N=         100
           0           0           0           0           2           0
           0           0           0           0         402          -1
           5           0           0           0           2           0
           0           0           0           0           1           0
           1           0           0           0           0           0
           0           0      100000           0          -1           0
           0           0           0           0           0           0
           0           0           0           1           0           0
           0 -2000000000           1           0           0           0
           0           0         141          52           0           0
           0           0           5           0           0           0
           0           0           0           6           0           1
           0           0           0           0           0           0
           0           0           0           0           0           0
           0           0           0           0           0           0
           0           0           0           0           0           0
           0           0           0           0
Num RLSW                                   I               52
RLSW                                       R   N=          52
  8.00000000E-01  7.20000000E-01  1.00000000E+00  8.10000000E-01  2.00000000E-01
  0.00000000E+00  0.00000000E+00  1.00000000E+00  0.00000000E+00  0.00000000E+00
  0.00000000E+00  0.00000000E+00  1.00000000E+00  0.00000000E+00  0.00000000E+00
  0.00000000E+00  0.00000000E+00  1.00000000E+00  0.00000000E+00  0.00000000E+00
  0.00000000E+00  0.00000000E+00  1.00000000E+00  0.00000000E+00  0.00000000E+00
  0.00000000E+00  0.00000000E+00  1.00000000E+00  0.00000000E+00  0.00000000E+00
  0.00000000E+00  0.00000000E+00  1.00000000E+00  0.00000000E+00  0.00000000E+00
  0.00000000E+00  0.00000000E+00  0.00000000E+00  1.00000000E+00  1.00000000E+00
  0.00000000E+00  1.00000000E+00  0.00000000E+00  0.00000000E+00  0.00000000E+00
  0.00000000E+00  0.00000000E+00  0.00000000E+00  0.00000000E+00  0.00000000E+00
  0.00000000E+00  0.00000000E+00
ECP-MxAtEC                                 I           250000
ECP-MaxLECP                                I               10
ECP-MaxAtL                                 I          2250000
ECP-MxTECP                                 I         11250000
ECP-LenNCZ                                 I                0
ECP-KFirst                                 I   N=          60
           0           0           0           0           0           0
           0           0           0           0           0           0
           0           0           0           0           0           0
           0           0           0           0           0           0
           0           0           0           0           0           0
           0           0           0           0           0           0
           0           0           0           0           0           0
           0           0           0           0           0           0
           0           0           0           0           0           0
           0           0           0           0           0           0
ECP-KLast                                  I   N=          60
           0           0           0           0           0           0
           0           0           0           0           0           0
           0           0           0           0           0           0
           0           0           0           0           0           0
           0           0           0           0           0           0
           0           0           0           0           0           0
           0           0           0           0           0           0
           0           0           0           0           0           0
           0           0           0           0           0           0
           0           0           0           0           0           0
ECP-LMax                                   I   N=           6
           0           0           0           0           0           0
ECP-LPSkip                                 I   N=           6
           1           1           1           1           1           1
ECP-RNFroz                                 R   N=           6
  0.00000000E+00  0.00000000E+00  0.00000000E+00  0.00000000E+00  0.00000000E+00
  0.00000000E+00
ECP-NLP                                    I                0
ECP-CLP1                                   R      0.000000000000000E+00
ECP-CLP2                                   R      0.000000000000000E+00
ECP-ZLP                                    R      0.000000000000000E+00
MxBond                                     I                5
NBond                                      I   N=           6
           5           1           1           1           1           1
IBond                                      I   N=          30
           2           3           4           5           6           1
           0           0           0           0           1           0
           0           0           0           1           0           0
           0           0           1           0           0           0
           0           1           0           0           0           0
RBond                                      R   N=          30
  1.00000000E+00  1.00000000E+00  1.00000000E+00  1.00000000E-01  1.00000000E-01
  1.00000000E+00  0.00000000E+00  0.00000000E+00  0.00000000E+00  0.00000000E+00
  1.00000000E+00  0.00000000E+00  0.00000000E+00  0.00000000E+00  0.00000000E+00
  1.00000000E+00  0.00000000E+00  0.00000000E+00  0.00000000E+00  0.00000000E+00
  1.00000000E-01  0.00000000E+00  0.00000000E+00  0.00000000E+00  0.00000000E+00
  1.00000000E-01  0.00000000E+00  0.00000000E+00  0.00000000E+00  0.00000000E+00
Virial Ratio                               R      2.001525842926699E+00
SCF Energy                                 R     -3.074497055748932E+03
Total Energy                               R     -3.074497055748932E+03
RMS Force                                  R      2.626181530547132E-05
RMS Density                                R      5.457641096375711E-09
NImag                                      I                1
Job Status                                 I                1
Nuclear derivative order                   I                2
PCM-NSphere                                I                6
PCM-NGenSphere                             I                6
PCM-NOrd                                   I   N=           6
           1           2           3           4           5           6
PCM-SphereRadii                            R   N=           6
  3.49599333E+00  2.26767135E+00  2.26767135E+00  2.26767135E+00  4.49754818E+00
  5.78256194E+00
PCM-SphereLoc                              R   N=          18
 -1.48895995E+00  2.90440645E-04 -8.79961253E-04 -1.46068037E+00 -1.99529327E+00
  3.35661141E-01 -1.46191384E+00  1.29003838E+00  1.55868765E+00 -1.46004353E+00
  7.06800125E-01 -1.89731481E+00 -5.91832296E+00 -1.07056321E-04  2.30228016E-04
  3.25508251E+00 -4.19404595E-05  1.23768637E-04
External E-field                           R   N=          35
  0.00000000E+00  0.00000000E+00  0.00000000E+00  0.00000000E+00  0.00000000E+00
  0.00000000E+00  0.00000000E+00  0.00000000E+00  0.00000000E+00  0.00000000E+00
  0.00000000E+00  0.00000000E+00  0.00000000E+00  0.00000000E+00  0.00000000E+00
  0.00000000E+00  0.00000000E+00  0.00000000E+00  0.00000000E+00  0.00000000E+00
  0.00000000E+00  0.00000000E+00  0.00000000E+00  0.00000000E+00  0.00000000E+00
  0.00000000E+00  0.00000000E+00  0.00000000E+00  0.00000000E+00  0.00000000E+00
  0.00000000E+00  0.00000000E+00  0.00000000E+00  0.00000000E+00  0.00000000E+00
IOpCl                                      I                0
IROHF                                      I                0
Alpha Orbital Energies                     R   N=         134
 -4.82747985E+02 -1.01413854E+02 -6.23965590E+01 -5.62112587E+01 -5.62098138E+01
 -5.62098137E+01 -1.02014669E+01 -9.34587369E+00 -8.58741323E+00 -7.10407074E+00
 -7.10053654E+00 -7.10053633E+00 -6.41255585E+00 -6.40811210E+00 -6.40811183E+00
 -2.52774057E+00 -2.52654736E+00 -2.52654718E+00 -2.52300863E+00 -2.52300807E+00
 -7.19811689E-01 -6.75807073E-01 -6.31570780E-01 -4.17718986E-01 -4.17644324E-01
 -2.90835109E-01 -2.36227613E-01 -2.36223703E-01 -2.10463959E-01 -2.10461043E-01
 -2.06847294E-01 -9.61062280E-03  7.93494570E-02  1.41685218E-01  1.41734666E-01
  2.27594847E-01  2.27628428E-01  2.31363240E-01  2.88666823E-01  3.09640453E-01
  3.09643308E-01  3.58917646E-01  3.58927042E-01  3.67147161E-01  3.89018491E-01
  3.89027341E-01  4.20083699E-01  4.20313621E-01  4.20314781E-01  4.62934660E-01
  4.89072206E-01  4.89137372E-01  5.11691135E-01  5.32244595E-01  5.32296632E-01
  5.35577613E-01  5.35607966E-01  5.76460609E-01  8.08387937E-01  8.08673491E-01
  8.08719256E-01  9.87213049E-01  9.87286303E-01  1.00171592E+00  1.13764166E+00
  1.39915478E+00  1.41764715E+00  1.41765903E+00  1.43962919E+00  1.43966470E+00
  1.47371428E+00  1.48529219E+00  1.48531763E+00  1.49330104E+00  1.49668711E+00
  1.60853357E+00  1.60854085E+00  1.61781692E+00  1.61823764E+00  1.66479026E+00
  1.66479989E+00  1.67649622E+00  1.70138391E+00  1.70143519E+00  1.79874661E+00
  1.79880712E+00  1.83652328E+00  1.84429153E+00  1.84438119E+00  1.93567001E+00
  1.93578147E+00  1.96542948E+00  2.06037599E+00  2.09023605E+00  2.09031415E+00
  2.15407070E+00  2.15412554E+00  2.17537859E+00  2.17653724E+00  2.27478987E+00
  2.27492054E+00  2.29942498E+00  2.29963670E+00  2.30330555E+00  2.32139014E+00
  2.50403604E+00  2.50439650E+00  2.67115588E+00  2.69208372E+00  2.69230784E+00
  2.81895527E+00  3.09242713E+00  3.09249919E+00  3.22820633E+00  3.22835375E+00
  3.31674789E+00  3.32131343E+00  3.32150689E+00  3.64650028E+00  3.89266199E+00
  4.07200091E+00  4.07204373E+00  4.09742430E+00  4.09749042E+00  4.18185772E+00
  4.18208829E+00  4.26284987E+00  4.71929754E+00  7.43808542E+00  1.07675953E+01
  1.07676100E+01  1.09124186E+01  2.21199627E+01  2.46460793E+01
Alpha MO coefficients                      R   N=       17956
  5.49636888E-07 -1.54865842E-06 -2.44300554E-05  2.55092857E-04 -8.07293241E-04
  1.23934947E-05 -6.93702377E-09 -1.62121164E-09 -2.76897425E-05  1.95307158E-08
  2.46416206E-08 -3.08164042E-04 -6.94222306E-08  1.75265338E-08 -8.15479594E-06
  1.92235170E-09 -6.34106231E-09  1.41183061E-05 -6.87693971E-09  5.34861026E-05
 -4.17540512E-08  3.41690171E-08 -9.26634987E-05  1.06824477E-08 -4.95024897E-06
  6.16963741E-06  1.10659427E-05 -3.84087161E-06 -9.92918077E-09 -7.95900752E-06
  2.86165439E-06 -1.58301435E-05 -1.98613994E-06  1.52548396E-04  1.27114503E-05
 -1.22403241E-05  2.06912580E-06 -1.58459397E-05 -2.01623362E-06  1.52617870E-04
  1.27089745E-05  7.91311454E-06  9.56467283E-06 -1.58348376E-05 -1.91712422E-06
  1.52654058E-04  1.27163620E-05  4.33640300E-06 -1.16190275E-05  3.51005960E-06
 -9.64211796E-06 -1.89164530E-05  3.63539759E-05 -6.36255153E-05 -1.15044904E-06
 -8.28379983E-10  1.09215678E-09  4.74263734E-06  3.24462493E-09 -4.26175737E-09
 -1.29146159E-05 -7.88649951E-09  1.00351854E-08  2.25259533E-05  1.31034420E-08
 -1.24294740E-08 -3.09750573E-05 -1.58109986E-08 -1.92040759E-09  8.67048450E-07
  5.76304866E-09  2.03388500E-09 -1.50337534E-06  4.57362450E-10 -5.14724518E-06
 -1.91509043E-08 -5.15475033E-09  8.91946861E-06  1.60330939E-10  1.79622412E-07
 -3.72688183E-06 -3.88902557E-07  1.27129401E-07 -1.33915147E-09  4.81229668E-06
 -9.80648658E-08  9.97348940E-01  7.60226280E-03 -3.74446241E-03  3.20596792E-03
 -1.34687287E-03  8.50963638E-04  4.93085492E-07  3.52154563E-10  2.60483904E-10
 -6.63178269E-06  1.34744188E-10 -1.79031427E-09  3.32863230E-05 -8.67320847E-10
  9.18216047E-09 -2.91375240E-05 -3.14707657E-09 -1.13422382E-08 -2.62765040E-04
  3.61011433E-08 -4.94763119E-08  2.69894373E-06 -1.55864370E-09 -4.78880274E-10
 -4.67496795E-06  1.58153394E-09 -2.43942745E-05  1.47435135E-08  3.66993717E-09
  4.22540781E-05 -1.34972745E-08  5.23368271E-05 -3.31473396E-08 -6.50529545E-09
 -9.06535906E-05  2.69634167E-08 -8.81603712E-05  6.11819098E-08  6.43713694E-09
  1.52702034E-04 -3.88317375E-08  2.38497519E-07  1.44294567E-05 -5.16904209E-07
  1.68634655E-07 -5.61995295E-10 -1.86290271E-05 -1.27445828E-07  2.24981644E-07
 -4.71405527E-07  9.90621375E-05 -8.42468089E-04  2.63363707E-03  4.03008300E-05
  1.95059118E-09 -6.60832558E-08 -9.98721159E-05  2.48316449E-08  3.47175186E-07
 -9.45024068E-04  2.64706949E-07  1.51452706E-07  2.32377699E-05  7.03563963E-08
 -3.49914052E-08 -4.02081219E-05 -4.14897389E-09 -1.64400858E-04 -1.59899986E-07
  2.33588503E-07  2.84635846E-04  5.20865520E-08  1.52347953E-05  2.20728019E-05
 -3.40854236E-05  1.18460331E-05  3.28439276E-08 -2.84894861E-05 -8.80822904E-06
  4.93491954E-05  1.44227048E-05 -5.44026722E-04  4.10346755E-05  3.86285087E-05
 -6.48649240E-06  4.93205724E-05  1.39999002E-05 -5.44226069E-04  4.10527359E-05
 -2.49551749E-05 -3.01388933E-05  4.94094633E-05  1.46450595E-05 -5.44433296E-04