 Entering Gaussian System, Link 0=g16
 Input=Pt_ircb2.gjf
 Output=Pt_ircb2.log
 Initial command:
 /share/home/wli/program/opt/Chem_soft/g16/l1.exe "/scratch/wli/Gau-8760.inp" -scrdir="/scratch/wli/"
 Entering Link 1 = /share/home/wli/program/opt/Chem_soft/g16/l1.exe PID=      8761.
  
 Copyright (c) 1988,1990,1992,1993,1995,1998,2003,2009,2016,
            Gaussian, Inc.  All Rights Reserved.
  
 This is part of the Gaussian(R) 16 program.  It is based on
 the Gaussian(R) 09 system (copyright 2009, Gaussian, Inc.),
 the Gaussian(R) 03 system (copyright 2003, Gaussian, Inc.),
 the Gaussian(R) 98 system (copyright 1998, Gaussian, Inc.),
 the Gaussian(R) 94 system (copyright 1995, Gaussian, Inc.),
 the Gaussian 92(TM) system (copyright 1992, Gaussian, Inc.),
 the Gaussian 90(TM) system (copyright 1990, Gaussian, Inc.),
 the Gaussian 88(TM) system (copyright 1988, Gaussian, Inc.),
 the Gaussian 86(TM) system (copyright 1986, Carnegie Mellon
 University), and the Gaussian 82(TM) system (copyright 1983,
 Carnegie Mellon University). Gaussian is a federally registered
 trademark of Gaussian, Inc.
  
 This software contains proprietary and confidential information,
 including trade secrets, belonging to Gaussian, Inc.
  
 This software is provided under written license and may be
 used, copied, transmitted, or stored only in accord with that
 written license.
  
 The following legend is applicable only to US Government
 contracts under FAR:
  
                    RESTRICTED RIGHTS LEGEND
  
 Use, reproduction and disclosure by the US Government is
 subject to restrictions as set forth in subparagraphs (a)
 and (c) of the Commercial Computer Software - Restricted
 Rights clause in FAR 52.227-19.
  
 Gaussian, Inc.
 340 Quinnipiac St., Bldg. 40, Wallingford CT 06492
  
  
 ---------------------------------------------------------------
 Warning -- This program may not be used in any manner that
 competes with the business of Gaussian, Inc. or will provide
 assistance to any competitor of Gaussian, Inc.  The licensee
 of this program is prohibited from giving any competitor of
 Gaussian, Inc. access to this program.  By using this program,
 the user acknowledges that Gaussian, Inc. is engaged in the
 business of creating and licensing software in the field of
 computational chemistry and represents and warrants to the
 licensee that it is not a competitor of Gaussian, Inc. and that
 it will not use this program in any manner prohibited above.
 ---------------------------------------------------------------
  

 Cite this work as:
 Gaussian 16, Revision A.03,
 M. J. Frisch, G. W. Trucks, H. B. Schlegel, G. E. Scuseria, 
 M. A. Robb, J. R. Cheeseman, G. Scalmani, V. Barone, 
 G. A. Petersson, H. Nakatsuji, X. Li, M. Caricato, A. V. Marenich, 
 J. Bloino, B. G. Janesko, R. Gomperts, B. Mennucci, H. P. Hratchian, 
 J. V. Ortiz, A. F. Izmaylov, J. L. Sonnenberg, D. Williams-Young, 
 F. Ding, F. Lipparini, F. Egidi, J. Goings, B. Peng, A. Petrone, 
 T. Henderson, D. Ranasinghe, V. G. Zakrzewski, J. Gao, N. Rega, 
 G. Zheng, W. Liang, M. Hada, M. Ehara, K. Toyota, R. Fukuda, 
 J. Hasegawa, M. Ishida, T. Nakajima, Y. Honda, O. Kitao, H. Nakai, 
 T. Vreven, K. Throssell, J. A. Montgomery, Jr., J. E. Peralta, 
 F. Ogliaro, M. J. Bearpark, J. J. Heyd, E. N. Brothers, K. N. Kudin, 
 V. N. Staroverov, T. A. Keith, R. Kobayashi, J. Normand, 
 K. Raghavachari, A. P. Rendell, J. C. Burant, S. S. Iyengar, 
 J. Tomasi, M. Cossi, J. M. Millam, M. Klene, C. Adamo, R. Cammi, 
 J. W. Ochterski, R. L. Martin, K. Morokuma, O. Farkas, 
 J. B. Foresman, and D. J. Fox, Gaussian, Inc., Wallingford CT, 2016.
 
 ******************************************
 Gaussian 16:  ES64L-G16RevA.03 25-Dec-2016
                 9-Nov-2019 
 ******************************************
 %oldchk=Pt_tsb.chk
 %chk=Pt_ircb2.chk
 %mem=40gb
 %nprocshared=24
 Will use up to   24 processors via shared memory.
 Copying data from "Pt_tsb.chk" to current chk file "Pt_ircb2.chk"
 IOpt=  2 FromEx=T IUOpen= 4 IOptOp= 5 NList=   0 IFRang= 0 IUIn= 4 IUOut= 2.
 ----------------------------------------------------------------------
 #p irc=(calcfc,lqa,maxpoint=50,stepsize=15) pbe1pbe/def2tzvp em=gd3bj 
 geom=allcheck scrf=(smd,solvent=benzene)
 ----------------------------------------------------------------------
 1/10=4,18=10,26=3,29=7,38=1,39=15,42=50,44=3,45=2,172=1/1,23;
 2/12=2,29=1,40=1/2;
 3/5=44,7=101,11=2,14=-4,25=1,30=1,70=32201,71=2,72=12,74=-13,124=41,140=1/1,2,3;
 4//1;
 5/5=2,38=5,53=12/2;
 8/6=4,10=90,11=11/1;
 11/6=1,8=1,9=11,15=111,16=1/1,2,10;
 10/6=1,13=1/2;
 6/7=2,8=2,9=2,10=2,28=1/1;
 7/10=1,18=20,25=1/1,2,3,16;
 1/10=4,18=10,26=3,39=15,42=50,44=3,45=2/23(2);
 2/29=1/2;
 99/5=20/99;
 2/29=1/2;
 3/5=44,7=101,11=2,14=-2,25=1,30=1,70=32205,71=2,72=12,74=-13,124=41,140=1/1,2,3;
 4/5=5,16=3,69=1/1;
 5/5=2,38=5,53=12/2;
 8/6=4,10=90,11=11/1;
 11/6=1,8=1,9=11,15=111,16=1/1,2,10;
 10/6=1,13=1/2;
 7/10=1,18=20,25=1/1,2,3,16;
 1/18=10,26=3,39=15,42=50,44=3,45=2/23(-8);
 2/29=1/2;
 6/7=2,8=2,9=2,10=2,19=2,28=1/1;
 99/5=20,9=1/99;
 Leave Link    1 at Sat Nov  9 20:56:32 2019, MaxMem=  5368709120 cpu:              11.3 elap:               0.5
 (Enter /share/home/wli/program/opt/Chem_soft/g16/l101.exe)
 Structure from the checkpoint file:  "Pt_ircb2.chk"
 -------------------
 Title Card Required
 -------------------
 Charge =  0 Multiplicity = 1
 Redundant internal coordinates found in file.  (old form).
 Pt,0,-0.000087484,-0.3736730556,0.0156970064
 P,0,2.1602409009,0.2325337268,-0.0019436654
 P,0,-2.1606660526,0.2317099682,0.0086200397
 C,0,2.6844933,1.2135326036,1.4424907414
 H,0,2.5517819794,0.6208721659,2.3498107733
 H,0,3.7319777265,1.5193952442,1.3619641783
 H,0,2.0514869572,2.098862228,1.5228167917
 C,0,3.4869864395,-1.0244162697,-0.0738320726
 H,0,3.3616477818,-1.6264624599,-0.9767337541
 H,0,4.4847268237,-0.57515867,-0.0788044419
 H,0,3.3982772549,-1.6891291198,0.7885852735
 C,0,2.6321346804,1.3175629616,-1.3890117967
 H,0,1.99872065,2.2061634594,-1.3792249056
 H,0,3.6829153116,1.6164929646,-1.3268842546
 H,0,2.4626434087,0.7933504292,-2.3316684358
 C,0,-2.6335502408,1.3704561692,1.351598175
 H,0,-2.0005321026,2.2582720275,1.3069421373
 H,0,-3.6844412793,1.6662169956,1.2773584643
 H,0,-2.4641607713,0.8839612725,2.314281695
 C,0,-3.4868653248,-1.0220542239,0.129633501
 H,0,-4.4848172692,-0.5734307297,0.1165079475
 H,0,-3.3975325237,-1.7202759458,-0.7058210506
 H,0,-3.3615720818,-1.5879048054,1.0556548312
 C,0,-2.6848798937,1.1546624894,-1.473584823
 H,0,-2.5513733301,0.5268027035,-2.3567913757
 H,0,-3.7325967938,1.4627738372,-1.4056242314
 H,0,-2.0523999631,2.0365524231,-1.588458073
 H,0,-0.3882734233,-2.5048777885,0.0643276899
 H,0,0.3889789278,-2.5055228417,0.0541545132
 Recover connectivity data from disk.
 ITRead=  0  0  0  0  0  0  0  0  0  0  0  0  0  0  0  0  0  0  0  0
 ITRead=  0  0  0  0  0  0  0  0  0
 MicOpt= -1 -1 -1 -1 -1 -1 -1 -1 -1 -1 -1 -1 -1 -1 -1 -1 -1 -1 -1 -1
 MicOpt= -1 -1 -1 -1 -1 -1 -1 -1 -1
 NAtoms=     29 NQM=       29 NQMF=       0 NMMI=      0 NMMIF=      0
                NMic=       0 NMicF=      0.
                    Isotopes and Nuclear Properties:
 (Nuclear quadrupole moments (NQMom) in fm**2, nuclear magnetic moments (NMagM)
  in nuclear magnetons)

  Atom         1           2           3           4           5           6           7           8           9          10
 IAtWgt=         195          31          31          12           1           1           1          12           1           1
 AtmWgt= 194.9648000  30.9737634  30.9737634  12.0000000   1.0078250   1.0078250   1.0078250  12.0000000   1.0078250   1.0078250
 NucSpn=           1           1           1           0           1           1           1           0           1           1
 AtZEff=1176.2400000  12.9400000  12.9400000   3.6000000   1.0000000   1.0000000   1.0000000   3.6000000   1.0000000   1.0000000
 NQMom=    0.0000000   0.0000000   0.0000000   0.0000000   0.0000000   0.0000000   0.0000000   0.0000000   0.0000000   0.0000000
 NMagM=    0.6095000   1.1316000   1.1316000   0.0000000   2.7928460   2.7928460   2.7928460   0.0000000   2.7928460   2.7928460
 AtZNuc=  78.0000000  15.0000000  15.0000000   6.0000000   1.0000000   1.0000000   1.0000000   6.0000000   1.0000000   1.0000000

  Atom        11          12          13          14          15          16          17          18          19          20
 IAtWgt=           1          12           1           1           1          12           1           1           1          12
 AtmWgt=   1.0078250  12.0000000   1.0078250   1.0078250   1.0078250  12.0000000   1.0078250   1.0078250   1.0078250  12.0000000
 NucSpn=           1           0           1           1           1           0           1           1           1           0
 AtZEff=   1.0000000   3.6000000   1.0000000   1.0000000   1.0000000   3.6000000   1.0000000   1.0000000   1.0000000   3.6000000
 NQMom=    0.0000000   0.0000000   0.0000000   0.0000000   0.0000000   0.0000000   0.0000000   0.0000000   0.0000000   0.0000000
 NMagM=    2.7928460   0.0000000   2.7928460   2.7928460   2.7928460   0.0000000   2.7928460   2.7928460   2.7928460   0.0000000
 AtZNuc=   1.0000000   6.0000000   1.0000000   1.0000000   1.0000000   6.0000000   1.0000000   1.0000000   1.0000000   6.0000000

  Atom        21          22          23          24          25          26          27          28          29
 IAtWgt=           1           1           1          12           1           1           1           1           1
 AtmWgt=   1.0078250   1.0078250   1.0078250  12.0000000   1.0078250   1.0078250   1.0078250   1.0078250   1.0078250
 NucSpn=           1           1           1           0           1           1           1           1           1
 AtZEff=   1.0000000   1.0000000   1.0000000   3.6000000   1.0000000   1.0000000   1.0000000   1.0000000   1.0000000
 NQMom=    0.0000000   0.0000000   0.0000000   0.0000000   0.0000000   0.0000000   0.0000000   0.0000000   0.0000000
 NMagM=    2.7928460   2.7928460   2.7928460   0.0000000   2.7928460   2.7928460   2.7928460   2.7928460   2.7928460
 AtZNuc=   1.0000000   1.0000000   1.0000000   6.0000000   1.0000000   1.0000000   1.0000000   1.0000000   1.0000000
 Leave Link  101 at Sat Nov  9 20:56:32 2019, MaxMem=  5368709120 cpu:              10.1 elap:               0.4
 (Enter /share/home/wli/program/opt/Chem_soft/g16/l123.exe)
 IRC-IRC-IRC-IRC-IRC-IRC-IRC-IRC-IRC-IRC-IRC-IRC-IRC-IRC-IRC-IRC-IRC-IRC
 ------------------------------------------------------------------------
 INPUT DATA FOR L123
 ------------------------------------------------------------------------
 GENERAL PARAMETERS:
 Follow reaction path in both directions.
 Maximum points per path      =  50
 Step size                    =   0.150 bohr
 Integration scheme           = LQA                                 
 Initial Hessian              = CalcFC
 Hessian evaluation           = All updating
 Hessian updating method      = Bofill                              
 ------------------------------------------------------------------------
 IRC-IRC-IRC-IRC-IRC-IRC-IRC-IRC-IRC-IRC-IRC-IRC-IRC-IRC-IRC-IRC-IRC-IRC
 Leave Link  123 at Sat Nov  9 20:56:32 2019, MaxMem=  5368709120 cpu:               0.1 elap:               0.0
 (Enter /share/home/wli/program/opt/Chem_soft/g16/l202.exe)
                          Input orientation:                          
 ---------------------------------------------------------------------
 Center     Atomic      Atomic             Coordinates (Angstroms)
 Number     Number       Type             X           Y           Z
 ---------------------------------------------------------------------
      1         78           0       -0.000087   -0.373673    0.015697
      2         15           0        2.160241    0.232534   -0.001944
      3         15           0       -2.160666    0.231710    0.008620
      4          6           0        2.684493    1.213533    1.442491
      5          1           0        2.551782    0.620872    2.349811
      6          1           0        3.731978    1.519395    1.361964
      7          1           0        2.051487    2.098862    1.522817
      8          6           0        3.486986   -1.024416   -0.073832
      9          1           0        3.361648   -1.626462   -0.976734
     10          1           0        4.484727   -0.575159   -0.078804
     11          1           0        3.398277   -1.689129    0.788585
     12          6           0        2.632135    1.317563   -1.389012
     13          1           0        1.998721    2.206163   -1.379225
     14          1           0        3.682915    1.616493   -1.326884
     15          1           0        2.462643    0.793350   -2.331668
     16          6           0       -2.633550    1.370456    1.351598
     17          1           0       -2.000532    2.258272    1.306942
     18          1           0       -3.684441    1.666217    1.277358
     19          1           0       -2.464161    0.883961    2.314282
     20          6           0       -3.486865   -1.022054    0.129634
     21          1           0       -4.484817   -0.573431    0.116508
     22          1           0       -3.397533   -1.720276   -0.705821
     23          1           0       -3.361572   -1.587905    1.055655
     24          6           0       -2.684880    1.154662   -1.473585
     25          1           0       -2.551373    0.526803   -2.356791
     26          1           0       -3.732597    1.462774   -1.405624
     27          1           0       -2.052400    2.036552   -1.588458
     28          1           0       -0.388273   -2.504878    0.064328
     29          1           0        0.388979   -2.505523    0.054155
 ---------------------------------------------------------------------
                    Distance matrix (angstroms):
                    1          2          3          4          5
     1  Pt   0.000000
     2  P    2.243840   0.000000
     3  P    2.243800   4.320920   0.000000
     4  C    3.429568   1.823072   5.147381   0.000000
     5  H    3.598506   2.415546   5.276342   1.091828   0.000000
     6  H    4.395959   2.446756   6.181660   1.094194   1.782147
     7  H    3.548774   2.412448   4.849874   1.091310   1.765975
     8  C    3.548403   1.829028   5.786245   2.819866   3.075000
     9  H    3.722320   2.418566   5.909287   3.791669   4.095399
    10  H    4.490333   2.462013   6.694769   2.958817   3.326400
    11  H    3.725139   2.418772   5.932944   3.059824   2.913775
    12  C    3.429589   1.823165   5.109148   2.833897   3.804028
    13  H    3.549169   2.412096   4.808854   3.068824   4.089588
    14  H    4.396339   2.447314   6.152125   2.971306   3.973514
    15  H    3.596820   2.415281   5.212234   3.803952   4.685503
    16  C    3.429540   5.109538   1.823171   5.321135   5.333477
    17  H    3.549116   4.809244   2.412102   4.802012   4.948961
    18  H    4.396294   6.152428   2.447325   6.387137   6.413531
    19  H    3.596775   5.212902   2.415288   5.232330   5.022963
    20  C    3.548380   5.786287   1.829036   6.693811   6.640305
    21  H    4.490308   6.694805   2.462026   7.506696   7.478484
    22  H    3.725126   5.932770   2.418784   7.086149   7.086057
    23  H    3.722291   5.909563   2.418565   6.674773   6.443702
    24  C    3.429560   5.146965   1.823067   6.110412   6.505837
    25  H    3.598419   5.275529   2.415554   6.505416   6.942849
    26  H    4.395943   6.181371   2.446747   7.025164   7.369227
    27  H    3.548871   4.849521   2.412434   5.683500   6.221945
    28  H    2.166815   3.740687   3.260888   5.016752   4.861859
    29  H    2.167403   3.261513   3.741017   4.585656   4.440957
                    6          7          8          9         10
     6  H    0.000000
     7  H    1.784854   0.000000
     8  C    2.931298   3.790094   0.000000
     9  H    3.937394   4.673577   1.092429   0.000000
    10  H    2.651340   3.954268   1.094232   1.781242   0.000000
    11  H    3.276393   4.086786   1.092463   1.766811   1.781479
    12  C    2.969555   3.070232   2.818747   3.060955   2.954850
    13  H    3.315109   2.904504   3.788883   4.087614   3.950579
    14  H    2.691048   3.318891   2.929664   3.277587   2.646496
    15  H    3.972565   4.090289   3.074310   2.915399   3.322203
    16  C    6.367279   4.744414   6.725194   7.095425   7.516737
    17  H    5.780193   4.060895   6.541822   7.004235   7.211602
    18  H    7.418355   5.757456   7.777827   8.097533   8.578942
    19  H    6.301017   4.742729   6.690377   7.146541   7.492859
    20  C    7.751729   6.508028   6.976820   6.963583   7.986829
    21  H    8.570111   7.200148   7.986819   7.991938   8.971670
    22  H    8.099452   7.017439   6.948398   6.765258   7.989647
    23  H    7.750328   6.565950   6.963908   7.023801   7.992312
    24  C    7.024915   5.683582   6.693252   6.673980   7.506061
    25  H    7.368506   6.221660   6.639275   6.442432   7.477316
    26  H    7.961321   6.514292   7.751269   7.749557   8.569599
    27  H    6.513944   5.150321   6.507567   6.565348   7.199591
    28  H    5.903821   5.410549   4.150722   3.989653   5.243132
    29  H    5.393141   5.110897   3.436235   3.266839   4.529805
                   11         12         13         14         15
    11  H    0.000000
    12  C    3.790660   0.000000
    13  H    4.672415   1.091293   0.000000
    14  H    3.934891   1.094239   1.785207   0.000000
    15  H    4.095619   1.091846   1.765903   1.782195   0.000000
    16  C    6.786825   5.936428   5.441850   6.865314   6.314324
    17  H    6.708041   5.441939   4.817907   6.296864   5.941836
    18  H    7.852525   6.865145   6.296611   7.814250   7.181478
    19  H    6.581544   6.314635   5.942013   7.182008   6.772478
    20  C    6.948697   6.724749   6.541383   7.777476   6.689571
    21  H    7.989972   7.516213   7.211077   8.578520   7.491920
    22  H    6.958251   6.786170   6.707455   7.851910   6.580529
    23  H    6.765880   7.095256   7.004023   8.097497   7.146035
    24  C    7.085857   5.320182   4.801112   6.386206   5.231047
    25  H    7.085343   5.332040   4.947650   6.412058   5.021159
    26  H    8.099285   6.366409   5.779388   7.417523   6.299737
    27  H    7.017187   4.743584   4.060065   5.756623   4.741680
    28  H    3.940553   5.083907   5.474988   5.957831   4.974619
    29  H    3.203399   4.661594   5.181296   5.454200   4.568895
                   16         17         18         19         20
    16  C    0.000000
    17  H    1.091294   0.000000
    18  H    1.094239   1.785204   0.000000
    19  H    1.091847   1.765903   1.782195   0.000000
    20  C    2.818768   3.788903   2.929695   3.074330   0.000000
    21  H    2.954883   3.950613   2.646544   3.322236   1.094232
    22  H    3.790682   4.672437   3.934927   4.095639   1.092464
    23  H    3.060964   4.087622   3.277607   2.915409   1.092429
    24  C    2.833877   3.068813   2.971279   3.803936   2.819856
    25  H    3.804032   4.089542   3.973557   4.685519   3.075128
    26  H    2.969630   3.315250   2.691116   3.972613   2.931172
    27  H    3.070073   2.904340   3.318676   4.090158   3.790067
    28  H    4.660102   5.179871   5.452907   4.566819   3.435739
    29  H    5.083528   5.474759   5.957549   4.973649   4.150728
                   21         22         23         24         25
    21  H    0.000000
    22  H    1.781479   0.000000
    23  H    1.781245   1.766809   0.000000
    24  C    2.958796   3.059838   3.791654   0.000000
    25  H    3.326549   2.913941   4.095510   1.091827   0.000000
    26  H    2.651198   3.276248   3.937283   1.094195   1.782148
    27  H    3.954185   4.086831   4.673538   1.091310   1.765971
    28  H    4.529336   3.203805   3.265589   4.586045   4.442061
    29  H    5.243163   3.941046   3.988942   5.017923   4.863469
                   26         27         28         29
    26  H    0.000000
    27  H    1.784856   0.000000
    28  H    5.393284   5.111321   0.000000
    29  H    5.904720   5.411927   0.777319   0.000000
 Symmetry turned off by external request.
 Stoichiometry    C6H20P2Pt
 Framework group  C1[X(C6H20P2Pt)]
 Deg. of freedom    81
 Full point group                 C1      NOp   1
 Rotational constants (GHZ):           1.5580151           0.4069172           0.3913240
 Leave Link  202 at Sat Nov  9 20:56:32 2019, MaxMem=  5368709120 cpu:               0.2 elap:               0.0
 (Enter /share/home/wli/program/opt/Chem_soft/g16/l301.exe)
 Standard basis: def2TZVP (5D, 7F)
 Ernie: Thresh=  0.10000D-02 Tol=  0.10000D-05 Strict=F.
   420 basis functions,   679 primitive gaussians,   466 cartesian basis functions
    52 alpha electrons       52 beta electrons
       nuclear repulsion energy       826.2901299655 Hartrees.
 IExCor= 1009 DFT=T Ex+Corr=PBE1PBE ExCW=0 ScaHFX=  0.250000
 ScaDFX=  0.750000  0.750000  1.000000  1.000000 ScalE2=  1.000000  1.000000
 IRadAn=      5 IRanWt=     -1 IRanGd=            0 ICorTp=0 IEmpDi=141
 NAtoms=   29 NActive=   29 NUniq=   29 SFac= 1.00D+00 NAtFMM=   60 NAOKFM=F Big=F
 Integral buffers will be    131072 words long.
 Raffenetti 2 integral format.
 Two-electron integral symmetry is turned off.
 R6Disp:  Grimme-D3(BJ) Dispersion energy=       -0.0309156281 Hartrees.
 Nuclear repulsion after empirical dispersion term =      826.2592143375 Hartrees.
 Force inversion solution in PCM.
 ------------------------------------------------------------------------------
 Polarizable Continuum Model (PCM)
 =================================
 Model                : PCM.
 Atomic radii         : SMD-Coulomb.
 Polarization charges : Total charges.
 Charge compensation  : None.
 Solution method      : Matrix inversion.
 Cavity type          : VdW (van der Waals Surface) (Alpha=1.000).
 Cavity algorithm     : GePol (No added spheres)
                        Default sphere list used, NSphG=   29.
                        Lebedev-Laikov grids with approx.  5.0 points / Ang**2.
                        Smoothing algorithm: York/Karplus (Gamma=1.0000).
                        Polarization charges: spherical gaussians, with
                                              point-specific exponents (IZeta= 3).
                        Self-potential: point-specific (ISelfS= 7).
                        Self-field    : sphere-specific E.n sum rule (ISelfD= 2).
 1st derivatives      : Analytical E(r).r(x)/FMM algorithm (CHGder, D1EAlg=3).
                        Cavity 1st derivative terms included.
 2nd derivatives      : Analytical E(r).r(xy)/FMM algorithm (CHGder, D2EAlg=3).
                        Cavity 2nd derivative terms included.
 Solvent              : Benzene, Eps=   2.270600 Eps(inf)=   2.253301
 ------------------------------------------------------------------------------
 GePol: Number of generator spheres                  =      29
 GePol: Total number of spheres                      =      29
 GePol: Number of exposed spheres                    =      29 (100.00%)
 GePol: Number of points                             =    2151
 GePol: Average weight of points                     =       0.12
 GePol: Minimum weight of points                     =   0.32D-09
 GePol: Maximum weight of points                     =    0.22001
 GePol: Number of points with low weight             =     137
 GePol: Fraction of low-weight points (<1% of avg)   =       6.37%
 GePol: Cavity surface area                          =    254.874 Ang**2
 GePol: Cavity volume                                =    208.596 Ang**3
 ------------------------------------------------------------------------------
 Atomic radii for non-electrostatic terms: SMD-CDS.
 ------------------------------------------------------------------------------
 PCM non-electrostatic energy =         0.0001470003 Hartrees.
 Nuclear repulsion after PCM non-electrostatic terms =      826.2593613378 Hartrees.
 Leave Link  301 at Sat Nov  9 20:56:32 2019, MaxMem=  5368709120 cpu:               2.4 elap:               0.1
 (Enter /share/home/wli/program/opt/Chem_soft/g16/l302.exe)
 NPDir=0 NMtPBC=     1 NCelOv=     1 NCel=       1 NClECP=     1 NCelD=      1
         NCelK=      1 NCelE2=     1 NClLst=     1 CellRange=     0.0.
 One-electron integrals computed using PRISM.
   1 Symmetry operations used in ECPInt.
 ECPInt:  NShTT=   17391 NPrTT=   50365 LenC2=   15924 LenP2D=   34696.
 LDataN:  DoStor=T MaxTD1= 8 Len=  415
 NBasis=   420 RedAO= T EigKep=  6.54D-04  NBF=   420
 NBsUse=   420 1.00D-06 EigRej= -1.00D+00 NBFU=   420
 Precomputing XC quadrature grid using
 IXCGrd= 4 IRadAn=           5 IRanWt=          -1 IRanGd=           0 AccXCQ= 0.00D+00.
 Defaulting to unpruned grid for atomic number  78.
 Generated NRdTot=       0 NPtTot=           0 NUsed=           0 NTot=          32
 NSgBfM=   464   464   464   464   464 MxSgAt=    29 MxSgA2=    29.
 Leave Link  302 at Sat Nov  9 20:56:33 2019, MaxMem=  5368709120 cpu:              15.1 elap:               0.7
 (Enter /share/home/wli/program/opt/Chem_soft/g16/l303.exe)
 DipDrv:  MaxL=1.
 Leave Link  303 at Sat Nov  9 20:56:33 2019, MaxMem=  5368709120 cpu:               1.2 elap:               0.1
 (Enter /share/home/wli/program/opt/Chem_soft/g16/l401.exe)
 ExpMin= 4.92D-02 ExpMax= 5.24D+04 ExpMxC= 1.79D+03 IAcc=3 IRadAn=         5 AccDes= 0.00D+00
 Harris functional with IExCor= 1009 and IRadAn=       5 diagonalized for initial guess.
 HarFok:  IExCor= 1009 AccDes= 0.00D+00 IRadAn=         5 IDoV= 1 UseB2=F ITyADJ=14
 ICtDFT=  3500011 ScaDFX=  1.000000  1.000000  1.000000  1.000000
 Defaulting to unpruned grid for atomic number  78.
 FoFCou: FMM=F IPFlag=           0 FMFlag=      100000 FMFlg1=           0
         NFxFlg=           0 DoJE=T BraDBF=F KetDBF=T FulRan=T
         wScrn=  0.000000 ICntrl=       500 IOpCl=  0 I1Cent=   200000004 NGrid=           0
         NMat0=    1 NMatS0=      1 NMatT0=    0 NMatD0=    1 NMtDS0=    0 NMtDT0=    0
 Symmetry not used in FoFCou.
 Harris En= -1042.49112776262    
 JPrj=0 DoOrth=F DoCkMO=F.
 Leave Link  401 at Sat Nov  9 20:56:35 2019, MaxMem=  5368709120 cpu:              41.9 elap:               1.8
 (Enter /share/home/wli/program/opt/Chem_soft/g16/l502.exe)
 Two-electron integral symmetry not used.
 Closed shell SCF:
 Using DIIS extrapolation, IDIIS=  1040.
 NGot=  5368709120 LenX=  5368260223 LenY=  5368042601
 Requested convergence on RMS density matrix=1.00D-08 within 128 cycles.
 Requested convergence on MAX density matrix=1.00D-06.
 Requested convergence on             energy=1.00D-06.
 No special actions if energy rises.
 Fock matrices will be formed incrementally for  20 cycles.

 Cycle   1  Pass 1  IDiag  1:
 FoFJK:  IHMeth= 1 ICntrl=       0 DoSepK=F KAlg= 0 I1Cent=           0 FoldK=F
 IRaf= 860000000 NMat=       1 IRICut=       1 DoRegI=T DoRafI=F ISym2E= 0 IDoP0=0 IntGTp=1.
 FoFCou: FMM=F IPFlag=           0 FMFlag=      100000 FMFlg1=           0
         NFxFlg=           0 DoJE=F BraDBF=F KetDBF=F FulRan=T
         wScrn=  0.000000 ICntrl=         0 IOpCl=  0 I1Cent=           0 NGrid=           0
         NMat0=    1 NMatS0=      1 NMatT0=    0 NMatD0=    1 NMtDS0=    0 NMtDT0=    0
 Symmetry not used in FoFCou.
 Defaulting to unpruned grid for atomic number  78.
 Defaulting to unpruned grid for atomic number  78.
 Defaulting to unpruned grid for atomic number  78.
 Defaulting to unpruned grid for atomic number  78.
 Defaulting to unpruned grid for atomic number  78.
 Defaulting to unpruned grid for atomic number  78.
 Defaulting to unpruned grid for atomic number  78.
 Defaulting to unpruned grid for atomic number  78.
 Defaulting to unpruned grid for atomic number  78.
 Defaulting to unpruned grid for atomic number  78.
 Defaulting to unpruned grid for atomic number  78.
 Defaulting to unpruned grid for atomic number  78.
 Defaulting to unpruned grid for atomic number  78.
 Defaulting to unpruned grid for atomic number  78.
 Defaulting to unpruned grid for atomic number  78.
 Defaulting to unpruned grid for atomic number  78.
 Defaulting to unpruned grid for atomic number  78.
 Defaulting to unpruned grid for atomic number  78.
 Defaulting to unpruned grid for atomic number  78.
 Defaulting to unpruned grid for atomic number  78.
 Defaulting to unpruned grid for atomic number  78.
 Defaulting to unpruned grid for atomic number  78.
 Defaulting to unpruned grid for atomic number  78.
 Defaulting to unpruned grid for atomic number  78.
 Inv3:  Mode=1 IEnd=    13880403.
 Iteration    1 A*A^-1 deviation from unit magnitude is 4.66D-15 for   2140.
 Iteration    1 A*A^-1 deviation from orthogonality  is 1.63D-15 for   1361    560.
 Iteration    1 A^-1*A deviation from unit magnitude is 4.44D-15 for   2140.
 Iteration    1 A^-1*A deviation from orthogonality  is 3.30D-15 for   2131   1812.
 E= -1041.70381681082    
 DIIS: error= 4.82D-02 at cycle   1 NSaved=   1.
 NSaved= 1 IEnMin= 1 EnMin= -1041.70381681082     IErMin= 1 ErrMin= 4.82D-02
 ErrMax= 4.82D-02  0.00D+00 EMaxC= 1.00D-01 BMatC= 8.56D-01 BMatP= 8.56D-01
 IDIUse=3 WtCom= 5.18D-01 WtEn= 4.82D-01
 Coeff-Com:  0.100D+01
 Coeff-En:   0.100D+01
 Coeff:      0.100D+01
 Gap=     0.383 Goal=   None    Shift=    0.000
 GapD=    0.383 DampG=1.000 DampE=0.250 DampFc=0.2500 IDamp=-1.
 Damping current iteration by 2.50D-01
 RMSDP=3.57D-03 MaxDP=2.96D-01              OVMax= 2.54D-01

 Cycle   2  Pass 1  IDiag  1:
 RMSU=  8.92D-04    CP:  1.00D+00
 E= -1041.96992578339     Delta-E=       -0.266108972573 Rises=F Damp=T
 DIIS: error= 2.21D-02 at cycle   2 NSaved=   2.
 NSaved= 2 IEnMin= 2 EnMin= -1041.96992578339     IErMin= 2 ErrMin= 2.21D-02
 ErrMax= 2.21D-02  0.00D+00 EMaxC= 1.00D-01 BMatC= 1.69D-01 BMatP= 8.56D-01
 IDIUse=3 WtCom= 7.79D-01 WtEn= 2.21D-01
 Coeff-Com: -0.658D+00 0.166D+01
 Coeff-En:   0.000D+00 0.100D+01
 Coeff:     -0.512D+00 0.151D+01
 Gap=     0.295 Goal=   None    Shift=    0.000
 RMSDP=1.24D-03 MaxDP=1.74D-01 DE=-2.66D-01 OVMax= 2.37D-01

 Cycle   3  Pass 1  IDiag  1:
 RMSU=  1.19D-03    CP:  9.84D-01  1.29D+00
 E= -1042.36451624262     Delta-E=       -0.394590459228 Rises=F Damp=F
 DIIS: error= 9.21D-03 at cycle   3 NSaved=   3.
 NSaved= 3 IEnMin= 3 EnMin= -1042.36451624262     IErMin= 3 ErrMin= 9.21D-03
 ErrMax= 9.21D-03  0.00D+00 EMaxC= 1.00D-01 BMatC= 3.45D-02 BMatP= 1.69D-01
 IDIUse=3 WtCom= 9.08D-01 WtEn= 9.21D-02
 Coeff-Com: -0.300D+00 0.776D+00 0.525D+00
 Coeff-En:   0.000D+00 0.000D+00 0.100D+01
 Coeff:     -0.273D+00 0.704D+00 0.568D+00
 Gap=     0.189 Goal=   None    Shift=    0.000
 RMSDP=6.47D-04 MaxDP=5.44D-02 DE=-3.95D-01 OVMax= 4.74D-02

 Cycle   4  Pass 1  IDiag  1:
 RMSU=  4.81D-04    CP:  9.85D-01  1.51D+00  6.75D-01
 E= -1042.38961371380     Delta-E=       -0.025097471186 Rises=F Damp=F
 DIIS: error= 4.01D-03 at cycle   4 NSaved=   4.
 NSaved= 4 IEnMin= 4 EnMin= -1042.38961371380     IErMin= 4 ErrMin= 4.01D-03
 ErrMax= 4.01D-03  0.00D+00 EMaxC= 1.00D-01 BMatC= 7.17D-03 BMatP= 3.45D-02
 IDIUse=3 WtCom= 9.60D-01 WtEn= 4.01D-02
 Coeff-Com:  0.754D-02 0.275D-01 0.309D+00 0.656D+00
 Coeff-En:   0.000D+00 0.000D+00 0.152D+00 0.848D+00
 Coeff:      0.724D-02 0.264D-01 0.302D+00 0.664D+00
 Gap=     0.182 Goal=   None    Shift=    0.000
 RMSDP=1.87D-04 MaxDP=2.02D-02 DE=-2.51D-02 OVMax= 1.44D-02

 Cycle   5  Pass 1  IDiag  1:
 RMSU=  8.72D-05    CP:  9.83D-01  1.44D+00  7.79D-01  8.31D-01
 E= -1042.39514521181     Delta-E=       -0.005531498006 Rises=F Damp=F
 DIIS: error= 6.91D-04 at cycle   5 NSaved=   5.
 NSaved= 5 IEnMin= 5 EnMin= -1042.39514521181     IErMin= 5 ErrMin= 6.91D-04
 ErrMax= 6.91D-04  0.00D+00 EMaxC= 1.00D-01 BMatC= 1.34D-04 BMatP= 7.17D-03
 IDIUse=3 WtCom= 9.93D-01 WtEn= 6.91D-03
 Coeff-Com:  0.181D-01-0.258D-01 0.927D-01 0.250D+00 0.665D+00
 Coeff-En:   0.000D+00 0.000D+00 0.000D+00 0.000D+00 0.100D+01
 Coeff:      0.179D-01-0.256D-01 0.920D-01 0.248D+00 0.668D+00
 Gap=     0.182 Goal=   None    Shift=    0.000
 RMSDP=2.61D-05 MaxDP=1.38D-03 DE=-5.53D-03 OVMax= 2.49D-03

 Cycle   6  Pass 1  IDiag  1:
 RMSU=  1.70D-05    CP:  9.83D-01  1.43D+00  7.85D-01  8.45D-01  8.03D-01
 E= -1042.39528838130     Delta-E=       -0.000143169485 Rises=F Damp=F
 DIIS: error= 7.65D-05 at cycle   6 NSaved=   6.
 NSaved= 6 IEnMin= 6 EnMin= -1042.39528838130     IErMin= 6 ErrMin= 7.65D-05
 ErrMax= 7.65D-05  0.00D+00 EMaxC= 1.00D-01 BMatC= 1.82D-06 BMatP= 1.34D-04
 IDIUse=1 WtCom= 1.00D+00 WtEn= 0.00D+00
 Coeff-Com:  0.341D-02-0.540D-02 0.977D-02 0.262D-01 0.131D+00 0.835D+00
 Coeff:      0.341D-02-0.540D-02 0.977D-02 0.262D-01 0.131D+00 0.835D+00
 Gap=     0.181 Goal=   None    Shift=    0.000
 RMSDP=5.84D-06 MaxDP=7.33D-04 DE=-1.43D-04 OVMax= 5.11D-04

 Cycle   7  Pass 1  IDiag  1:
 RMSU=  4.17D-06    CP:  9.83D-01  1.43D+00  7.88D-01  8.47D-01  8.19D-01
                    CP:  9.56D-01
 E= -1042.39529021684     Delta-E=       -0.000001835548 Rises=F Damp=F
 DIIS: error= 3.26D-05 at cycle   7 NSaved=   7.
 NSaved= 7 IEnMin= 7 EnMin= -1042.39529021684     IErMin= 7 ErrMin= 3.26D-05
 ErrMax= 3.26D-05  0.00D+00 EMaxC= 1.00D-01 BMatC= 2.45D-07 BMatP= 1.82D-06
 IDIUse=1 WtCom= 1.00D+00 WtEn= 0.00D+00
 Coeff-Com:  0.341D-03-0.738D-03-0.340D-03-0.943D-03 0.178D-01 0.314D+00
 Coeff-Com:  0.670D+00
 Coeff:      0.341D-03-0.738D-03-0.340D-03-0.943D-03 0.178D-01 0.314D+00
 Coeff:      0.670D+00
 Gap=     0.181 Goal=   None    Shift=    0.000
 RMSDP=1.92D-06 MaxDP=1.15D-04 DE=-1.84D-06 OVMax= 1.80D-04

 Cycle   8  Pass 1  IDiag  1:
 RMSU=  9.47D-07    CP:  9.83D-01  1.43D+00  7.87D-01  8.49D-01  8.26D-01
                    CP:  1.01D+00  8.57D-01
 E= -1042.39529047555     Delta-E=       -0.000000258702 Rises=F Damp=F
 DIIS: error= 4.93D-06 at cycle   8 NSaved=   8.
 NSaved= 8 IEnMin= 8 EnMin= -1042.39529047555     IErMin= 8 ErrMin= 4.93D-06
 ErrMax= 4.93D-06  0.00D+00 EMaxC= 1.00D-01 BMatC= 1.26D-08 BMatP= 2.45D-07
 IDIUse=1 WtCom= 1.00D+00 WtEn= 0.00D+00
 Coeff-Com: -0.229D-03 0.331D-03-0.103D-02-0.314D-02-0.584D-02 0.371D-01
 Coeff-Com:  0.207D+00 0.766D+00
 Coeff:     -0.229D-03 0.331D-03-0.103D-02-0.314D-02-0.584D-02 0.371D-01
 Coeff:      0.207D+00 0.766D+00
 Gap=     0.181 Goal=   None    Shift=    0.000
 RMSDP=4.33D-07 MaxDP=3.52D-05 DE=-2.59D-07 OVMax= 8.06D-05

 Cycle   9  Pass 1  IDiag  1:
 RMSU=  2.63D-07    CP:  9.83D-01  1.43D+00  7.87D-01  8.49D-01  8.27D-01
                    CP:  1.02D+00  9.13D-01  1.03D+00
 E= -1042.39529049088     Delta-E=       -0.000000015337 Rises=F Damp=F
 DIIS: error= 2.06D-06 at cycle   9 NSaved=   9.
 NSaved= 9 IEnMin= 9 EnMin= -1042.39529049088     IErMin= 9 ErrMin= 2.06D-06
 ErrMax= 2.06D-06  0.00D+00 EMaxC= 1.00D-01 BMatC= 1.25D-09 BMatP= 1.26D-08
 IDIUse=1 WtCom= 1.00D+00 WtEn= 0.00D+00
 Coeff-Com: -0.589D-04 0.919D-04-0.333D-03-0.110D-02-0.247D-02-0.762D-03
 Coeff-Com:  0.428D-01 0.243D+00 0.719D+00
 Coeff:     -0.589D-04 0.919D-04-0.333D-03-0.110D-02-0.247D-02-0.762D-03
 Coeff:      0.428D-01 0.243D+00 0.719D+00
 Gap=     0.181 Goal=   None    Shift=    0.000
 RMSDP=1.43D-07 MaxDP=1.33D-05 DE=-1.53D-08 OVMax= 2.13D-05

 Cycle  10  Pass 1  IDiag  1:
 RMSU=  8.07D-08    CP:  9.83D-01  1.43D+00  7.87D-01  8.49D-01  8.27D-01
                    CP:  1.02D+00  9.30D-01  1.10D+00  1.03D+00
 E= -1042.39529049222     Delta-E=       -0.000000001339 Rises=F Damp=F
 DIIS: error= 7.47D-07 at cycle  10 NSaved=  10.
 NSaved=10 IEnMin=10 EnMin= -1042.39529049222     IErMin=10 ErrMin= 7.47D-07
 ErrMax= 7.47D-07  0.00D+00 EMaxC= 1.00D-01 BMatC= 2.48D-10 BMatP= 1.25D-09
 IDIUse=1 WtCom= 1.00D+00 WtEn= 0.00D+00
 Coeff-Com:  0.251D-04-0.325D-04 0.474D-04 0.854D-04-0.667D-05-0.876D-02
 Coeff-Com: -0.228D-01-0.390D-01 0.368D+00 0.702D+00
 Coeff:      0.251D-04-0.325D-04 0.474D-04 0.854D-04-0.667D-05-0.876D-02
 Coeff:     -0.228D-01-0.390D-01 0.368D+00 0.702D+00
 Gap=     0.181 Goal=   None    Shift=    0.000
 RMSDP=6.47D-08 MaxDP=7.03D-06 DE=-1.34D-09 OVMax= 1.56D-05

 Cycle  11  Pass 1  IDiag  1:
 RMSU=  2.61D-08    CP:  9.83D-01  1.43D+00  7.88D-01  8.49D-01  8.27D-01
                    CP:  1.02D+00  9.36D-01  1.13D+00  1.14D+00  8.36D-01
 E= -1042.39529049255     Delta-E=       -0.000000000328 Rises=F Damp=F
 DIIS: error= 1.72D-07 at cycle  11 NSaved=  11.
 NSaved=11 IEnMin=11 EnMin= -1042.39529049255     IErMin=11 ErrMin= 1.72D-07
 ErrMax= 1.72D-07  0.00D+00 EMaxC= 1.00D-01 BMatC= 1.02D-11 BMatP= 2.48D-10
 IDIUse=1 WtCom= 1.00D+00 WtEn= 0.00D+00
 Coeff-Com: -0.266D-06 0.601D-06 0.157D-04 0.668D-04 0.640D-04-0.443D-03
 Coeff-Com: -0.279D-02-0.118D-01-0.417D-02 0.590D-01 0.960D+00
 Coeff:     -0.266D-06 0.601D-06 0.157D-04 0.668D-04 0.640D-04-0.443D-03
 Coeff:     -0.279D-02-0.118D-01-0.417D-02 0.590D-01 0.960D+00
 Gap=     0.181 Goal=   None    Shift=    0.000
 RMSDP=1.39D-08 MaxDP=1.24D-06 DE=-3.28D-10 OVMax= 2.64D-06

 Cycle  12  Pass 1  IDiag  1:
 RMSU=  5.28D-09    CP:  9.83D-01  1.43D+00  7.88D-01  8.49D-01  8.27D-01
                    CP:  1.02D+00  9.37D-01  1.13D+00  1.16D+00  9.17D-01
                    CP:  1.13D+00
 E= -1042.39529049252     Delta-E=        0.000000000029 Rises=F Damp=F
 DIIS: error= 1.96D-08 at cycle  12 NSaved=  12.
 NSaved=12 IEnMin=11 EnMin= -1042.39529049255     IErMin=12 ErrMin= 1.96D-08
 ErrMax= 1.96D-08  0.00D+00 EMaxC= 1.00D-01 BMatC= 2.37D-13 BMatP= 1.02D-11
 IDIUse=1 WtCom= 1.00D+00 WtEn= 0.00D+00
 Coeff-Com: -0.193D-05 0.264D-05 0.593D-06 0.104D-04 0.120D-04 0.395D-03
 Coeff-Com:  0.568D-03-0.280D-03-0.196D-01-0.259D-01 0.219D+00 0.826D+00
 Coeff:     -0.193D-05 0.264D-05 0.593D-06 0.104D-04 0.120D-04 0.395D-03
 Coeff:      0.568D-03-0.280D-03-0.196D-01-0.259D-01 0.219D+00 0.826D+00
 Gap=     0.181 Goal=   None    Shift=    0.000
 RMSDP=2.55D-09 MaxDP=2.54D-07 DE= 2.89D-11 OVMax= 5.47D-07

 Error on total polarization charges =  0.04498
 SCF Done:  E(RPBE1PBE) =  -1042.39529049     A.U. after   12 cycles
            NFock= 12  Conv=0.25D-08     -V/T= 2.0849
 KE= 9.608642474809D+02 PE=-4.082448847218D+03 EE= 1.252929947907D+03
 SMD-CDS (non-electrostatic) energy       (kcal/mol) =       0.09
 (included in total energy above)
 Leave Link  502 at Sat Nov  9 20:57:48 2019, MaxMem=  5368709120 cpu:            1719.6 elap:              73.0
 (Enter /share/home/wli/program/opt/Chem_soft/g16/l801.exe)
 DoSCS=F DFT=T ScalE2(SS,OS)=  1.000000  1.000000
 Range of M.O.s used for correlation:     1   420
 NBasis=   420 NAE=    52 NBE=    52 NFC=     0 NFV=     0
 NROrb=    420 NOA=    52 NOB=    52 NVA=   368 NVB=   368
 Leave Link  801 at Sat Nov  9 20:57:48 2019, MaxMem=  5368709120 cpu:               0.4 elap:               0.0
 (Enter /share/home/wli/program/opt/Chem_soft/g16/l1101.exe)
 Using compressed storage, NAtomX=    29.
 Will process     30 centers per pass.
   1 Symmetry operations used in ECPInt.
 ECPInt:  NShTT=   17391 NPrTT=   50365 LenC2=   15924 LenP2D=   34696.
 LDataN:  DoStor=T MaxTD1= 9 Len=  602
 Number of processors reduced to  23 by ecpmxn.
 R6Disp: Adding Grimme-D3(BJ) dispersion energy 1st derivatives to the gradient.
 Leave Link 1101 at Sat Nov  9 20:57:50 2019, MaxMem=  5368709120 cpu:              41.1 elap:               1.8
 (Enter /share/home/wli/program/opt/Chem_soft/g16/l1102.exe)
 Symmetrizing basis deriv contribution to polar:
 IMax=3 JMax=2 DiffMx= 0.00D+00
 Leave Link 1102 at Sat Nov  9 20:57:50 2019, MaxMem=  5368709120 cpu:               1.2 elap:               0.1
 (Enter /share/home/wli/program/opt/Chem_soft/g16/l1110.exe)
 Forming Gx(P) for the SCF density, NAtomX=    29.
 Integral derivatives from FoFJK, PRISM(SPDF).
 Do as many integral derivatives as possible in FoFJK.
 G2DrvN: MDV=    5368706896.
 G2DrvN: will do    30 centers at a time, making    1 passes.
 Calling FoFCou, ICntrl=  3107 FMM=F I1Cent=   0 AccDes= 0.00D+00.
 FoFJK:  IHMeth= 1 ICntrl=    3107 DoSepK=F KAlg= 0 I1Cent=           0 FoldK=F
 IRaf=         0 NMat=       1 IRICut=       1 DoRegI=T DoRafI=F ISym2E= 0 IDoP0=0 IntGTp=1.
 FoFCou: FMM=F IPFlag=           0 FMFlag=      100000 FMFlg1=           0
         NFxFlg=           0 DoJE=F BraDBF=F KetDBF=F FulRan=T
         wScrn=  0.000000 ICntrl=      3107 IOpCl=  0 I1Cent=           0 NGrid=           0
         NMat0=    1 NMatS0=      1 NMatT0=    0 NMatD0=    1 NMtDS0=    0 NMtDT0=    0
 Symmetry not used in FoFCou.
 Defaulting to unpruned grid for atomic number  78.
 Defaulting to unpruned grid for atomic number  78.
 Defaulting to unpruned grid for atomic number  78.
 Defaulting to unpruned grid for atomic number  78.
 Defaulting to unpruned grid for atomic number  78.
 Defaulting to unpruned grid for atomic number  78.
 Defaulting to unpruned grid for atomic number  78.
 Defaulting to unpruned grid for atomic number  78.
 Defaulting to unpruned grid for atomic number  78.
 Defaulting to unpruned grid for atomic number  78.
 Defaulting to unpruned grid for atomic number  78.
 Defaulting to unpruned grid for atomic number  78.
 Defaulting to unpruned grid for atomic number  78.
 Defaulting to unpruned grid for atomic number  78.
 Defaulting to unpruned grid for atomic number  78.
 Defaulting to unpruned grid for atomic number  78.
 Defaulting to unpruned grid for atomic number  78.
 Defaulting to unpruned grid for atomic number  78.
 Defaulting to unpruned grid for atomic number  78.
 Defaulting to unpruned grid for atomic number  78.
 Defaulting to unpruned grid for atomic number  78.
 Defaulting to unpruned grid for atomic number  78.
 Defaulting to unpruned grid for atomic number  78.
 Defaulting to unpruned grid for atomic number  78.
 NEqPCM:  Using equilibrium solvation (IEInf=0, Eps=   2.2706, EpsInf=   2.2533)
 G2PCM: DoFxE=T DoFxN=T DoGrad=T DoDP/DQ/DG/TGxP=FFFF NFrqRd=   0 IEInf=0 SqF1=F DoCFld=F IF1Alg=4.
 GePol: Maximum number of non-zero 1st derivatives   =     237
 End of G2Drv F.D. properties file   721 does not exist.
 End of G2Drv F.D. properties file   722 does not exist.
 End of G2Drv F.D. properties file   788 does not exist.
 Leave Link 1110 at Sat Nov  9 21:00:04 2019, MaxMem=  5368709120 cpu:            3191.0 elap:             133.1
 (Enter /share/home/wli/program/opt/Chem_soft/g16/l1002.exe)
 Minotr:  Closed shell wavefunction.
          IDoAtm=11111111111111111111111111111
 NEqPCM:  Using equilibrium solvation (IEInf=0, Eps=   2.2706, EpsInf=   2.2533)
          Direct CPHF calculation.
          Differentiating once with respect to nuclear coordinates.
          Requested convergence is 1.0D-08 RMS, and 1.0D-07 maximum.
          Secondary convergence is 1.0D-12 RMS, and 1.0D-12 maximum.
          NewPWx=T KeepS1=F KeepF1=F KeepIn=T MapXYZ=F SortEE=F KeepMc=T.
 Defaulting to unpruned grid for atomic number  78.
         8720 words used for storage of precomputed grid.
 Keep R1 ints in memory in canonical form, NReq=3959145597.
 FoFCou: FMM=F IPFlag=           0 FMFlag=           0 FMFlg1=           0
         NFxFlg=           0 DoJE=F BraDBF=F KetDBF=F FulRan=T
         wScrn=  0.000000 ICntrl=       600 IOpCl=  0 I1Cent=           0 NGrid=           0
         NMat0=    1 NMatS0=  88410 NMatT0=    0 NMatD0=    1 NMtDS0=    0 NMtDT0=    0
 Symmetry not used in FoFCou.
 Two-electron integral symmetry not used.
          MDV=    5368709120 using IRadAn=       1.
          Solving linear equations simultaneously, MaxMat=       0.
 Defaulting to unpruned grid for atomic number  78.
 Defaulting to unpruned grid for atomic number  78.
 Defaulting to unpruned grid for atomic number  78.
 Defaulting to unpruned grid for atomic number  78.
 Defaulting to unpruned grid for atomic number  78.
 Defaulting to unpruned grid for atomic number  78.
 Defaulting to unpruned grid for atomic number  78.
 Defaulting to unpruned grid for atomic number  78.
 Defaulting to unpruned grid for atomic number  78.
 Defaulting to unpruned grid for atomic number  78.
 Defaulting to unpruned grid for atomic number  78.
 Defaulting to unpruned grid for atomic number  78.
 Defaulting to unpruned grid for atomic number  78.
 Defaulting to unpruned grid for atomic number  78.
 Defaulting to unpruned grid for atomic number  78.
 Defaulting to unpruned grid for atomic number  78.
 Defaulting to unpruned grid for atomic number  78.
 Defaulting to unpruned grid for atomic number  78.
 Defaulting to unpruned grid for atomic number  78.
 Defaulting to unpruned grid for atomic number  78.
 Defaulting to unpruned grid for atomic number  78.
 Defaulting to unpruned grid for atomic number  78.
 Defaulting to unpruned grid for atomic number  78.
 Defaulting to unpruned grid for atomic number  78.
          There are    90 degrees of freedom in the 1st order CPHF.  IDoFFX=6 NUNeed=     0.
     84 vectors produced by pass  0 Test12= 2.13D-14 1.11D-09 XBig12= 9.89D-02 1.14D-01.
 AX will form    84 AO Fock derivatives at one time.
     84 vectors produced by pass  1 Test12= 2.13D-14 1.11D-09 XBig12= 2.51D-02 3.42D-02.
     84 vectors produced by pass  2 Test12= 2.13D-14 1.11D-09 XBig12= 3.52D-04 7.06D-03.
     84 vectors produced by pass  3 Test12= 2.13D-14 1.11D-09 XBig12= 5.29D-06 6.50D-04.
     84 vectors produced by pass  4 Test12= 2.13D-14 1.11D-09 XBig12= 9.35D-08 3.89D-05.
     84 vectors produced by pass  5 Test12= 2.13D-14 1.11D-09 XBig12= 2.14D-10 2.72D-06.
     23 vectors produced by pass  6 Test12= 2.13D-14 1.11D-09 XBig12= 2.97D-13 6.57D-08.
      2 vectors produced by pass  7 Test12= 2.13D-14 1.11D-09 XBig12= 3.83D-16 2.68D-09.
 InvSVY:  IOpt=1 It=  1 EMax= 7.77D-16
 Solved reduced A of dimension   529 with    90 vectors.
 End of Minotr F.D. properties file   721 does not exist.
 End of Minotr F.D. properties file   722 does not exist.
 End of Minotr F.D. properties file   788 does not exist.
 Leave Link 1002 at Sat Nov  9 21:03:09 2019, MaxMem=  5368709120 cpu:            4430.2 elap:             184.9
 (Enter /share/home/wli/program/opt/Chem_soft/g16/l601.exe)
 Copying SCF densities to generalized density rwf, IOpCl= 0 IROHF=0.

 **********************************************************************

            Population analysis using the SCF density.

 **********************************************************************

 Alpha  occ. eigenvalues --  -77.21199 -77.21199 -10.20809 -10.20809 -10.20789
 Alpha  occ. eigenvalues --  -10.20788 -10.20783 -10.20782  -6.60495  -6.60494
 Alpha  occ. eigenvalues --   -4.74104  -4.74103  -4.74096  -4.74095  -4.73773
 Alpha  occ. eigenvalues --   -4.73772  -3.88181  -2.13279  -2.11142  -2.10609
 Alpha  occ. eigenvalues --   -0.78615  -0.78442  -0.70620  -0.70613  -0.70568
 Alpha  occ. eigenvalues --   -0.70566  -0.55925  -0.54575  -0.46084  -0.44845
 Alpha  occ. eigenvalues --   -0.44660  -0.43539  -0.43518  -0.43491  -0.43459
 Alpha  occ. eigenvalues --   -0.40831  -0.40819  -0.40792  -0.40704  -0.39065
 Alpha  occ. eigenvalues --   -0.39040  -0.35619  -0.34291  -0.34114  -0.33967
 Alpha  occ. eigenvalues --   -0.33696  -0.28489  -0.23423  -0.21020  -0.20693
 Alpha  occ. eigenvalues --   -0.20415  -0.18422
 Alpha virt. eigenvalues --   -0.00280   0.03598   0.04140   0.04959   0.07352
 Alpha virt. eigenvalues --    0.07719   0.09096   0.09413   0.09527   0.09551
 Alpha virt. eigenvalues --    0.10004   0.10502   0.10762   0.11427   0.11473
 Alpha virt. eigenvalues --    0.13088   0.14035   0.14613   0.14723   0.14964
 Alpha virt. eigenvalues --    0.15147   0.15214   0.15315   0.15460   0.16000
 Alpha virt. eigenvalues --    0.16357   0.17279   0.17696   0.18499   0.20901
 Alpha virt. eigenvalues --    0.20968   0.21345   0.21830   0.24976   0.25587
 Alpha virt. eigenvalues --    0.25862   0.26200   0.26523   0.26685   0.28220
 Alpha virt. eigenvalues --    0.29392   0.29548   0.30423   0.31100   0.31272
 Alpha virt. eigenvalues --    0.35348   0.35961   0.36135   0.36716   0.37196
 Alpha virt. eigenvalues --    0.38376   0.39441   0.39596   0.40271   0.40319
 Alpha virt. eigenvalues --    0.40732   0.41737   0.41952   0.41994   0.42839
 Alpha virt. eigenvalues --    0.44422   0.45080   0.45834   0.46579   0.46820
 Alpha virt. eigenvalues --    0.47288   0.47389   0.47554   0.47614   0.48077
 Alpha virt. eigenvalues --    0.49613   0.49758   0.50251   0.50520   0.52809
 Alpha virt. eigenvalues --    0.52847   0.53148   0.54300   0.55071   0.56453
 Alpha virt. eigenvalues --    0.57041   0.58929   0.59483   0.61766   0.64422
 Alpha virt. eigenvalues --    0.65256   0.68856   0.69125   0.69455   0.70811
 Alpha virt. eigenvalues --    0.70927   0.71871   0.72283   0.73850   0.75034
 Alpha virt. eigenvalues --    0.75938   0.76416   0.76648   0.76690   0.77471
 Alpha virt. eigenvalues --    0.81987   0.82387   0.82677   0.86571   0.88265
 Alpha virt. eigenvalues --    0.88286   0.91144   0.91332   0.91885   0.92050
 Alpha virt. eigenvalues --    0.94349   0.95502   0.95936   0.99747   1.00266
 Alpha virt. eigenvalues --    1.01229   1.02117   1.04766   1.04998   1.05824
 Alpha virt. eigenvalues --    1.06884   1.07365   1.07545   1.07683   1.08495
 Alpha virt. eigenvalues --    1.09237   1.09410   1.10429   1.11506   1.22710
 Alpha virt. eigenvalues --    1.25284   1.26479   1.30616   1.32532   1.33797
 Alpha virt. eigenvalues --    1.36815   1.37330   1.41398   1.42204   1.44121
 Alpha virt. eigenvalues --    1.44166   1.44598   1.46050   1.48768   1.51151
 Alpha virt. eigenvalues --    1.51451   1.52027   1.52133   1.53067   1.53343
 Alpha virt. eigenvalues --    1.53384   1.53495   1.54076   1.55260   1.55410
 Alpha virt. eigenvalues --    1.55412   1.55845   1.56062   1.57140   1.57657
 Alpha virt. eigenvalues --    1.58646   1.59044   1.59935   1.60175   1.60292
 Alpha virt. eigenvalues --    1.61054   1.61789   1.62214   1.62250   1.62799
 Alpha virt. eigenvalues --    1.62824   1.63884   1.64095   1.64479   1.64926
 Alpha virt. eigenvalues --    1.65252   1.66785   1.66922   1.67451   1.68285
 Alpha virt. eigenvalues --    1.69326   1.69415   1.69574   1.71042   1.73652
 Alpha virt. eigenvalues --    1.79061   1.84370   1.86937   1.87012   1.87834
 Alpha virt. eigenvalues --    1.88743   1.93308   1.93508   1.93797   1.94292
 Alpha virt. eigenvalues --    1.96513   1.98305   1.98921   2.01724   2.03778
 Alpha virt. eigenvalues --    2.03850   2.04160   2.04191   2.04367   2.07719
 Alpha virt. eigenvalues --    2.08487   2.08586   2.08718   2.09093   2.09366
 Alpha virt. eigenvalues --    2.11304   2.11677   2.11859   2.15845   2.17367
 Alpha virt. eigenvalues --    2.19509   2.20677   2.21118   2.22193   2.28619
 Alpha virt. eigenvalues --    2.29556   2.31220   2.31246   2.31867   2.33267
 Alpha virt. eigenvalues --    2.33742   2.34347   2.34741   2.35723   2.37380
 Alpha virt. eigenvalues --    2.37618   2.40242   2.40601   2.40820   2.42381
 Alpha virt. eigenvalues --    2.42908   2.44509   2.47622   2.48788   2.50720
 Alpha virt. eigenvalues --    2.51032   2.52365   2.52474   2.55415   2.55520
 Alpha virt. eigenvalues --    2.55552   2.56029   2.59522   2.59691   2.59898
 Alpha virt. eigenvalues --    2.61971   2.62030   2.62343   2.63632   2.64478
 Alpha virt. eigenvalues --    2.64983   2.66447   2.66908   2.68062   2.68743
 Alpha virt. eigenvalues --    2.70565   2.75499   2.77783   2.79084   2.79340
 Alpha virt. eigenvalues --    2.84999   2.85748   2.85890   2.87352   2.89786
 Alpha virt. eigenvalues --    2.91024   2.94979   2.95569   2.97263   2.97654
 Alpha virt. eigenvalues --    2.99967   3.10279   3.10493   3.11463   3.14067
 Alpha virt. eigenvalues --    3.14203   3.14524   3.18551   3.18772   3.19625
 Alpha virt. eigenvalues --    3.20311   3.20593   3.21583   3.23484   3.23542
 Alpha virt. eigenvalues --    3.29692   3.30087   3.30286   3.31186   3.33164
 Alpha virt. eigenvalues --    3.33258   3.34835   3.36500   3.36526   3.37156
 Alpha virt. eigenvalues --    3.37382   3.38163   3.38202   3.48857   3.49164
 Alpha virt. eigenvalues --    3.49221   3.49769   3.50294   3.50638   3.54483
 Alpha virt. eigenvalues --    3.54520   3.54696   3.55338   3.55513   3.56624
 Alpha virt. eigenvalues --    3.60024   3.60319   3.60940   3.61579   3.62481
 Alpha virt. eigenvalues --    3.63016   3.63984   3.64176   3.64412   3.64685
 Alpha virt. eigenvalues --    3.72614   3.72713   3.72898   3.73196   3.80602
 Alpha virt. eigenvalues --    3.80660   4.25724   4.25926   4.27592   4.27725
 Alpha virt. eigenvalues --    4.28117   4.28194   4.28309   4.28539   4.33215
 Alpha virt. eigenvalues --    4.33514   4.33523   4.34955   4.39938   4.40410
 Alpha virt. eigenvalues --    4.46025   4.46165   4.46365   4.46687   7.77561
 Alpha virt. eigenvalues --    7.81304   7.81821   7.82052   7.83520   7.87550
 Alpha virt. eigenvalues --   15.51860  15.53817  22.35786  22.36975  22.38022
 Alpha virt. eigenvalues --   22.38261  22.38467  22.38727  27.20251  29.01649
 Alpha virt. eigenvalues --   34.48945  52.14283 285.01305
          Condensed to atoms (all electrons):
               1          2          3          4          5          6
     1  Pt  17.823464   0.386873   0.386936  -0.043482  -0.000393   0.008522
     2  P    0.386873  13.761357  -0.047122   0.341778  -0.024172  -0.033672
     3  P    0.386936  -0.047122  13.761291   0.000543  -0.000006  -0.000047
     4  C   -0.043482   0.341778   0.000543   5.046148   0.392805   0.381958
     5  H   -0.000393  -0.024172  -0.000006   0.392805   0.509030  -0.022062
     6  H    0.008522  -0.033672  -0.000047   0.381958  -0.022062   0.552350
     7  H   -0.000032  -0.025083   0.000175   0.393265  -0.013353  -0.021134
     8  C   -0.031032   0.326270   0.001534  -0.041742  -0.000285  -0.005683
     9  H   -0.000448  -0.024671  -0.000064   0.005681  -0.000148  -0.000167
    10  H    0.005642  -0.032126  -0.000064  -0.005282  -0.000214   0.005952
    11  H   -0.000588  -0.024484  -0.000065  -0.000498   0.001463  -0.000419
    12  C   -0.047660   0.342827   0.000260  -0.038827   0.005485  -0.006120
    13  H    0.000530  -0.025234   0.000269  -0.000001  -0.000137  -0.000188
    14  H    0.008742  -0.033605  -0.000039  -0.006164  -0.000177   0.006213
    15  H    0.000006  -0.024256   0.000012   0.005456  -0.000163  -0.000171
    16  C   -0.047633   0.000263   0.342799  -0.000120   0.000034   0.000002
    17  H    0.000526   0.000268  -0.025234  -0.000053  -0.000007   0.000002
    18  H    0.008739  -0.000039  -0.033603   0.000003  -0.000000   0.000000
    19  H    0.000000   0.000012  -0.024253   0.000039  -0.000005  -0.000000
    20  C   -0.031046   0.001534   0.326298  -0.000033  -0.000000   0.000001
    21  H    0.005642  -0.000064  -0.032134   0.000001   0.000000  -0.000000
    22  H   -0.000587  -0.000065  -0.024488   0.000000   0.000000  -0.000000
    23  H   -0.000447  -0.000064  -0.024668   0.000003  -0.000000  -0.000000
    24  C   -0.043518   0.000540   0.341787   0.000080  -0.000004  -0.000001
    25  H   -0.000388  -0.000006  -0.024172  -0.000004   0.000000   0.000000
    26  H    0.008521  -0.000047  -0.033681  -0.000001   0.000000   0.000000
    27  H   -0.000023   0.000175  -0.025085  -0.000027   0.000000   0.000000
    28  H   -0.033218  -0.016385   0.007333   0.000426   0.000005  -0.000029
    29  H   -0.033321   0.007325  -0.016378   0.000655  -0.000011  -0.000041
               7          8          9         10         11         12
     1  Pt  -0.000032  -0.031032  -0.000448   0.005642  -0.000588  -0.047660
     2  P   -0.025083   0.326270  -0.024671  -0.032126  -0.024484   0.342827
     3  P    0.000175   0.001534  -0.000064  -0.000064  -0.000065   0.000260
     4  C    0.393265  -0.041742   0.005681  -0.005282  -0.000498  -0.038827
     5  H   -0.013353  -0.000285  -0.000148  -0.000214   0.001463   0.005485
     6  H   -0.021134  -0.005683  -0.000167   0.005952  -0.000419  -0.006120
     7  H    0.505776   0.005766  -0.000174  -0.000161  -0.000157   0.000071
     8  C    0.005766   5.076579   0.391326   0.380704   0.390580  -0.042772
     9  H   -0.000174   0.391326   0.512034  -0.020111  -0.015163  -0.000387
    10  H   -0.000161   0.380704  -0.020111   0.550721  -0.020052  -0.005101
    11  H   -0.000157   0.390580  -0.015163  -0.020052   0.513149   0.005773
    12  C    0.000071  -0.042772  -0.000387  -0.005101   0.005773   5.049692
    13  H    0.001486   0.005829  -0.000159  -0.000162  -0.000180   0.392851
    14  H   -0.000198  -0.005542  -0.000425   0.005866  -0.000184   0.381103
    15  H   -0.000138  -0.000170   0.001412  -0.000235  -0.000147   0.392651
    16  C   -0.000025  -0.000025   0.000000   0.000000   0.000002   0.000103
    17  H    0.000148   0.000004  -0.000000   0.000000  -0.000000  -0.000044
    18  H    0.000002   0.000001  -0.000000  -0.000000  -0.000000  -0.000002
    19  H   -0.000011  -0.000001   0.000000   0.000000  -0.000000  -0.000005
    20  C    0.000003  -0.000009  -0.000001   0.000000  -0.000000  -0.000025
    21  H    0.000000   0.000000  -0.000000  -0.000000  -0.000000   0.000000
    22  H   -0.000000  -0.000000   0.000000  -0.000000   0.000000   0.000002
    23  H   -0.000000  -0.000001   0.000000  -0.000000   0.000000   0.000000
    24  C   -0.000027  -0.000033   0.000003   0.000001   0.000000  -0.000120
    25  H    0.000000  -0.000000  -0.000000   0.000000   0.000000   0.000034
    26  H    0.000000   0.000001  -0.000000  -0.000000  -0.000000   0.000002
    27  H    0.000007   0.000003  -0.000000   0.000000  -0.000000  -0.000025
    28  H   -0.000009  -0.000549   0.000153  -0.000093   0.000151   0.000375
    29  H   -0.000030  -0.007952   0.001105   0.000300   0.001324   0.000764
              13         14         15         16         17         18
     1  Pt   0.000530   0.008742   0.000006  -0.047633   0.000526   0.008739
     2  P   -0.025234  -0.033605  -0.024256   0.000263   0.000268  -0.000039
     3  P    0.000269  -0.000039   0.000012   0.342799  -0.025234  -0.033603
     4  C   -0.000001  -0.006164   0.005456  -0.000120  -0.000053   0.000003
     5  H   -0.000137  -0.000177  -0.000163   0.000034  -0.000007  -0.000000
     6  H   -0.000188   0.006213  -0.000171   0.000002   0.000002   0.000000
     7  H    0.001486  -0.000198  -0.000138  -0.000025   0.000148   0.000002
     8  C    0.005829  -0.005542  -0.000170  -0.000025   0.000004   0.000001
     9  H   -0.000159  -0.000425   0.001412   0.000000  -0.000000  -0.000000
    10  H   -0.000162   0.005866  -0.000235   0.000000   0.000000  -0.000000
    11  H   -0.000180  -0.000184  -0.000147   0.000002  -0.000000  -0.000000
    12  C    0.392851   0.381103   0.392651   0.000103  -0.000044  -0.000002
    13  H    0.506389  -0.021013  -0.013402  -0.000044   0.000027   0.000001
    14  H   -0.021013   0.553027  -0.021983  -0.000002   0.000001   0.000000
    15  H   -0.013402  -0.021983   0.508821  -0.000005   0.000000   0.000000
    16  C   -0.000044  -0.000002  -0.000005   5.049545   0.392858   0.381114
    17  H    0.000027   0.000001   0.000000   0.392858   0.506435  -0.021015
    18  H    0.000001   0.000000   0.000000   0.381114  -0.021015   0.553001
    19  H    0.000000   0.000000   0.000000   0.392654  -0.013412  -0.021983
    20  C    0.000004   0.000001  -0.000001  -0.042754   0.005827  -0.005528
    21  H    0.000000  -0.000000   0.000000  -0.005105  -0.000162   0.005864
    22  H   -0.000000  -0.000000  -0.000000   0.005773  -0.000180  -0.000183
    23  H   -0.000000  -0.000000   0.000000  -0.000389  -0.000159  -0.000425
    24  C   -0.000053   0.000003   0.000039  -0.038840  -0.000001  -0.006163
    25  H   -0.000007  -0.000000  -0.000005   0.005486  -0.000137  -0.000176
    26  H    0.000002   0.000000  -0.000000  -0.006121  -0.000187   0.006211
    27  H    0.000148   0.000002  -0.000011   0.000070   0.001487  -0.000197
    28  H   -0.000009  -0.000027   0.000005   0.000764  -0.000032  -0.000044
    29  H   -0.000032  -0.000044  -0.000025   0.000376  -0.000009  -0.000027
              19         20         21         22         23         24
     1  Pt   0.000000  -0.031046   0.005642  -0.000587  -0.000447  -0.043518
     2  P    0.000012   0.001534  -0.000064  -0.000065  -0.000064   0.000540
     3  P   -0.024253   0.326298  -0.032134  -0.024488  -0.024668   0.341787
     4  C    0.000039  -0.000033   0.000001   0.000000   0.000003   0.000080
     5  H   -0.000005  -0.000000   0.000000   0.000000  -0.000000  -0.000004
     6  H   -0.000000   0.000001  -0.000000  -0.000000  -0.000000  -0.000001
     7  H   -0.000011   0.000003   0.000000  -0.000000  -0.000000  -0.000027
     8  C   -0.000001  -0.000009   0.000000  -0.000000  -0.000001  -0.000033
     9  H    0.000000  -0.000001  -0.000000   0.000000   0.000000   0.000003
    10  H    0.000000   0.000000  -0.000000  -0.000000  -0.000000   0.000001
    11  H   -0.000000  -0.000000  -0.000000   0.000000   0.000000   0.000000
    12  C   -0.000005  -0.000025   0.000000   0.000002   0.000000  -0.000120
    13  H    0.000000   0.000004   0.000000  -0.000000  -0.000000  -0.000053
    14  H    0.000000   0.000001  -0.000000  -0.000000  -0.000000   0.000003
    15  H    0.000000  -0.000001   0.000000  -0.000000   0.000000   0.000039
    16  C    0.392654  -0.042754  -0.005105   0.005773  -0.000389  -0.038840
    17  H   -0.013412   0.005827  -0.000162  -0.000180  -0.000159  -0.000001
    18  H   -0.021983  -0.005528   0.005864  -0.000183  -0.000425  -0.006163
    19  H    0.508883  -0.000178  -0.000235  -0.000147   0.001412   0.005458
    20  C   -0.000178   5.076575   0.380719   0.390583   0.391311  -0.041745
    21  H   -0.000235   0.380719   0.550692  -0.020053  -0.020107  -0.005279
    22  H   -0.000147   0.390583  -0.020053   0.513129  -0.015161  -0.000497
    23  H    0.001412   0.391311  -0.020107  -0.015161   0.512041   0.005682
    24  C    0.005458  -0.041745  -0.005279  -0.000497   0.005682   5.046165
    25  H   -0.000163  -0.000288  -0.000214   0.001462  -0.000148   0.392809
    26  H   -0.000171  -0.005670   0.005949  -0.000420  -0.000167   0.381966
    27  H   -0.000138   0.005766  -0.000161  -0.000157  -0.000174   0.393250
    28  H   -0.000025  -0.007960   0.000300   0.001320   0.001107   0.000656
    29  H    0.000005  -0.000552  -0.000093   0.000152   0.000153   0.000425
              25         26         27         28         29
     1  Pt  -0.000388   0.008521  -0.000023  -0.033218  -0.033321
     2  P   -0.000006  -0.000047   0.000175  -0.016385   0.007325
     3  P   -0.024172  -0.033681  -0.025085   0.007333  -0.016378
     4  C   -0.000004  -0.000001  -0.000027   0.000426   0.000655
     5  H    0.000000   0.000000   0.000000   0.000005  -0.000011
     6  H    0.000000   0.000000   0.000000  -0.000029  -0.000041
     7  H    0.000000   0.000000   0.000007  -0.000009  -0.000030
     8  C   -0.000000   0.000001   0.000003  -0.000549  -0.007952
     9  H   -0.000000  -0.000000  -0.000000   0.000153   0.001105
    10  H    0.000000  -0.000000   0.000000  -0.000093   0.000300
    11  H    0.000000  -0.000000  -0.000000   0.000151   0.001324
    12  C    0.000034   0.000002  -0.000025   0.000375   0.000764
    13  H   -0.000007   0.000002   0.000148  -0.000009  -0.000032
    14  H   -0.000000   0.000000   0.000002  -0.000027  -0.000044
    15  H   -0.000005  -0.000000  -0.000011   0.000005  -0.000025
    16  C    0.005486  -0.006121   0.000070   0.000764   0.000376
    17  H   -0.000137  -0.000187   0.001487  -0.000032  -0.000009
    18  H   -0.000176   0.006211  -0.000197  -0.000044  -0.000027
    19  H   -0.000163  -0.000171  -0.000138  -0.000025   0.000005
    20  C   -0.000288  -0.005670   0.005766  -0.007960  -0.000552
    21  H   -0.000214   0.005949  -0.000161   0.000300  -0.000093
    22  H    0.001462  -0.000420  -0.000157   0.001320   0.000152
    23  H   -0.000148  -0.000167  -0.000174   0.001107   0.000153
    24  C    0.392809   0.381966   0.393250   0.000656   0.000425
    25  H    0.509015  -0.022068  -0.013354  -0.000011   0.000005
    26  H   -0.022068   0.552323  -0.021127  -0.000041  -0.000029
    27  H   -0.013354  -0.021127   0.505829  -0.000030  -0.000009
    28  H   -0.000011  -0.000041  -0.000030   0.637714   0.393435
    29  H    0.000005  -0.000029  -0.000009   0.393435   0.637786
 Mulliken charges:
               1
     1  Pt  -0.330325
     2  P    0.141871
     3  P    0.141865
     4  C   -0.432606
     5  H    0.152317
     6  H    0.134733
     7  H    0.153834
     8  C   -0.442800
     9  H    0.150204
    10  H    0.134414
    11  H    0.149496
    12  C   -0.430904
    13  H    0.153086
    14  H    0.134443
    15  H    0.152313
    16  C   -0.430780
    17  H    0.153050
    18  H    0.134450
    19  H    0.152265
    20  C   -0.442831
    21  H    0.134439
    22  H    0.149517
    23  H    0.150200
    24  C   -0.432583
    25  H    0.152332
    26  H    0.134755
    27  H    0.153781
    28  H    0.014718
    29  H    0.014745
 Sum of Mulliken charges =  -0.00000
 Mulliken charges with hydrogens summed into heavy atoms:
               1
     1  Pt  -0.300862
     2  P    0.141871
     3  P    0.141865
     4  C    0.008279
     8  C   -0.008686
    12  C    0.008938
    16  C    0.008985
    20  C   -0.008676
    24  C    0.008286
 APT charges:
               1
     1  Pt  -0.368102
     2  P    0.094937
     3  P    0.094999
     4  C   -1.208358
     5  H    0.333247
     6  H    0.681588
     7  H    0.227701
     8  C   -1.312610
     9  H    0.333458
    10  H    0.670423
    11  H    0.341285
    12  C   -1.200522
    13  H    0.227039
    14  H    0.681658
    15  H    0.324640
    16  C   -1.202148
    17  H    0.226926
    18  H    0.681627
    19  H    0.326833
    20  C   -1.312882
    21  H    0.670470
    22  H    0.339334
    23  H    0.335568
    24  C   -1.206561
    25  H    0.331102
    26  H    0.681835
    27  H    0.227437
    28  H   -0.010784
    29  H   -0.010139
 Sum of APT charges =  -0.00000
 APT charges with hydrogens summed into heavy atoms:
               1
     1  Pt  -0.389025
     2  P    0.094937
     3  P    0.094999
     4  C    0.034177
     8  C    0.032557
    12  C    0.032814
    16  C    0.033238
    20  C    0.032489
    24  C    0.033813
 Electronic spatial extent (au):  <R**2>=           3184.1353
 Charge=              0.0000 electrons
 Dipole moment (field-independent basis, Debye):
    X=             -0.0008    Y=              1.0496    Z=             -0.0218  Tot=              1.0498
 Quadrupole moment (field-independent basis, Debye-Ang):
   XX=            -77.5581   YY=            -91.7729   ZZ=            -92.2733
   XY=              0.0018   XZ=              0.0042   YZ=             -0.0012
 Traceless Quadrupole moment (field-independent basis, Debye-Ang):
   XX=              9.6434   YY=             -4.5715   ZZ=             -5.0719
   XY=              0.0018   XZ=              0.0042   YZ=             -0.0012
 Octapole moment (field-independent basis, Debye-Ang**2):
  XXX=              0.0302  YYY=            -38.7703  ZZZ=             -1.2167  XYY=              0.0093
  XXY=             -8.1894  XXZ=             -0.4567  XZZ=              0.0319  YZZ=            -16.8948
  YYZ=             -0.6364  XYZ=             -0.2170
 Hexadecapole moment (field-independent basis, Debye-Ang**3):
 XXXX=          -3086.4990 YYYY=           -672.0736 ZZZZ=           -540.1579 XXXY=             -0.2109
 XXXZ=              4.0164 YYYX=             -0.1465 YYYZ=              0.7662 ZZZX=              1.1979
 ZZZY=              1.2172 XXYY=           -646.8401 XXZZ=           -623.1030 YYZZ=           -206.6555
 XXYZ=              0.4051 YYXZ=              2.6329 ZZXY=             -0.1775
 N-N= 8.262593613378D+02 E-N=-4.082448849703D+03  KE= 9.608642474809D+02
  Exact polarizability:   0.000   0.000   0.000   0.000   0.000   0.000
 Approx polarizability: 287.246   0.004 239.394  -0.144  -0.128 233.392
 No NMR shielding tensors so no spin-rotation constants.
 Leave Link  601 at Sat Nov  9 21:03:09 2019, MaxMem=  5368709120 cpu:               7.3 elap:               0.4
 (Enter /share/home/wli/program/opt/Chem_soft/g16/l701.exe)
 ... and contract with generalized density number  0.
 Compute integral second derivatives.
 R6Disp: Adding Grimme-D3(BJ) dispersion energy 2nd derivatives to the Hessian.
   1 Symmetry operations used in ECPInt.
 ECPInt:  NShTT=   17391 NPrTT=   50365 LenC2=   15924 LenP2D=   34696.
 LDataN:  DoStor=T MaxTD1=10 Len=  848
 D2PCM: PCM CHGder 2nd derivatives, FixD1E=F FixD2E=F DoIter=F DoCFld=F I1PDM=0
 GePol: Maximum number of non-zero 2nd derivatives   =     237
 Leave Link  701 at Sat Nov  9 21:03:26 2019, MaxMem=  5368709120 cpu:             396.4 elap:              16.6
 (Enter /share/home/wli/program/opt/Chem_soft/g16/l702.exe)
 L702 exits ... SP integral derivatives will be done elsewhere.
 Leave Link  702 at Sat Nov  9 21:03:26 2019, MaxMem=  5368709120 cpu:               0.4 elap:               0.0
 (Enter /share/home/wli/program/opt/Chem_soft/g16/l703.exe)
 Integral derivatives from FoFJK, PRISM(SPDF).
 Compute integral second derivatives, UseDBF=F ICtDFT=           0.
 Calling FoFJK, ICntrl=    100147 FMM=F ISym2X=0 I1Cent= 0 IOpClX= 0 NMat=1 NMatS=1 NMatT=0.
 FoFJK:  IHMeth= 1 ICntrl=  100147 DoSepK=F KAlg= 0 I1Cent=           0 FoldK=F
 IRaf=         0 NMat=       1 IRICut=       1 DoRegI=T DoRafI=F ISym2E= 0 IDoP0=0 IntGTp=1.
 FoFCou: FMM=F IPFlag=           0 FMFlag=      100000 FMFlg1=         800
         NFxFlg=           0 DoJE=F BraDBF=F KetDBF=F FulRan=T
         wScrn=  0.000000 ICntrl=    100147 IOpCl=  0 I1Cent=           0 NGrid=           0
         NMat0=    1 NMatS0=      1 NMatT0=    0 NMatD0=    1 NMtDS0=    0 NMtDT0=    0
 Symmetry not used in FoFCou.
 Defaulting to unpruned grid for atomic number  78.
 Defaulting to unpruned grid for atomic number  78.
 Defaulting to unpruned grid for atomic number  78.
 Defaulting to unpruned grid for atomic number  78.
 Defaulting to unpruned grid for atomic number  78.
 Defaulting to unpruned grid for atomic number  78.
 Defaulting to unpruned grid for atomic number  78.
 Defaulting to unpruned grid for atomic number  78.
 Defaulting to unpruned grid for atomic number  78.
 Defaulting to unpruned grid for atomic number  78.
 Defaulting to unpruned grid for atomic number  78.
 Defaulting to unpruned grid for atomic number  78.
 Defaulting to unpruned grid for atomic number  78.
 Defaulting to unpruned grid for atomic number  78.
 Defaulting to unpruned grid for atomic number  78.
 Defaulting to unpruned grid for atomic number  78.
 Defaulting to unpruned grid for atomic number  78.
 Defaulting to unpruned grid for atomic number  78.
 Defaulting to unpruned grid for atomic number  78.
 Defaulting to unpruned grid for atomic number  78.
 Defaulting to unpruned grid for atomic number  78.
 Defaulting to unpruned grid for atomic number  78.
 Defaulting to unpruned grid for atomic number  78.
 Defaulting to unpruned grid for atomic number  78.
 Leave Link  703 at Sat Nov  9 21:05:48 2019, MaxMem=  5368709120 cpu:            3416.3 elap:             142.5
 (Enter /share/home/wli/program/opt/Chem_soft/g16/l716.exe)
 Dipole        =-3.33910776D-04 4.12926845D-01-8.59592534D-03
 Polarizability= 0.00000000D+00 0.00000000D+00 0.00000000D+00
                 0.00000000D+00 0.00000000D+00 0.00000000D+00
 -------------------------------------------------------------------
 Center     Atomic                   Forces (Hartrees/Bohr)
 Number     Number              X              Y              Z
 -------------------------------------------------------------------
      1       78          -0.000001383   -0.000014956   -0.000025593
      2       15          -0.000014328   -0.000016108    0.000012056
      3       15          -0.000007402    0.000004774    0.000017382
      4        6           0.000007055   -0.000005650    0.000003504
      5        1           0.000001510    0.000006423   -0.000001384
      6        1           0.000003473   -0.000000246   -0.000001018
      7        1           0.000000690    0.000003679   -0.000001689
      8        6          -0.000006162    0.000002611   -0.000010325
      9        1          -0.000001526   -0.000002514    0.000000297
     10        1           0.000000548   -0.000000440   -0.000001660
     11        1           0.000000049    0.000001752   -0.000002494
     12        6           0.000013120   -0.000004669    0.000006859
     13        1          -0.000002552    0.000003308    0.000001320
     14        1          -0.000000085    0.000001711   -0.000004565
     15        1          -0.000006159    0.000003974   -0.000003398
     16        6           0.000011126   -0.000004123    0.000001398
     17        1           0.000000542   -0.000004709    0.000003700
     18        1           0.000001769   -0.000001894    0.000001274
     19        1          -0.000002976   -0.000001896   -0.000001504
     20        6          -0.000000882    0.000008015    0.000003758
     21        1           0.000000667   -0.000000138    0.000002743
     22        1          -0.000001202    0.000001267    0.000002168
     23        1          -0.000000869    0.000000586    0.000004519
     24        6           0.000000631    0.000003618   -0.000000120
     25        1          -0.000002506   -0.000004001    0.000002788
     26        1           0.000001220    0.000002332    0.000003681
     27        1           0.000002130    0.000000555   -0.000000832
     28        1           0.000004148    0.000008867   -0.000006580
     29        1          -0.000000648    0.000007872   -0.000006286
 -------------------------------------------------------------------
 Cartesian Forces:  Max     0.000025593 RMS     0.000006056
 Leave Link  716 at Sat Nov  9 21:05:49 2019, MaxMem=  5368709120 cpu:               0.4 elap:               0.0
 (Enter /share/home/wli/program/opt/Chem_soft/g16/l123.exe)
 IRC-IRC-IRC-IRC-IRC-IRC-IRC-IRC-IRC-IRC-IRC-IRC-IRC-IRC-IRC-IRC-IRC-IRC
          ******** Start new reaction path calculation ********
 Current Structure is TS -> form Hessian eigenvectors.
                            Diagonalizing Hessian.
 Supplied step size of   0.1500 bohr.
    Integration on MW PES will use step size of   0.1855 sqrt(amu)*bohr.
 Point Number:   0          Path Number:   1
 Calculating another point on the path.
 Point Number  1 in FORWARD path direction.
 Using LQA Reaction Path Following.
 IRC-IRC-IRC-IRC-IRC-IRC-IRC-IRC-IRC-IRC-IRC-IRC-IRC-IRC-IRC-IRC-IRC-IRC
 Leave Link  123 at Sat Nov  9 21:05:49 2019, MaxMem=  5368709120 cpu:               0.4 elap:               0.0
 (Enter /share/home/wli/program/opt/Chem_soft/g16/l202.exe)
                          Input orientation:                          
 ---------------------------------------------------------------------
 Center     Atomic      Atomic             Coordinates (Angstroms)
 Number     Number       Type             X           Y           Z
 ---------------------------------------------------------------------
      1         78           0        0.000067   -0.320952    0.006552
      2         15           0        2.161271    0.278060   -0.010847
      3         15           0       -2.161370    0.277233   -0.000346
      4          6           0        2.683468    1.261535    1.432910
      5          1           0        2.552696    0.669435    2.340853
      6          1           0        3.730139    1.569880    1.351342
      7          1           0        2.048538    2.145549    1.512772
      8          6           0        3.489815   -0.976373   -0.082837
      9          1           0        3.365332   -1.578459   -0.985819
     10          1           0        4.486894   -0.525656   -0.087708
     11          1           0        3.402014   -1.641318    0.779482
     12          6           0        2.630534    1.365078   -1.397589
     13          1           0        1.995284    2.252382   -1.387514
     14          1           0        3.680560    1.666401   -1.334435
     15          1           0        2.462841    0.841176   -2.340710
     16          6           0       -2.631767    1.418186    1.341954
     17          1           0       -1.996896    2.304677    1.296932
     18          1           0       -3.681902    1.716281    1.266493
     19          1           0       -2.464215    0.932193    2.305183
     20          6           0       -3.489396   -0.973994    0.120700
     21          1           0       -4.486676   -0.523895    0.107300
     22          1           0       -3.400925   -1.672530   -0.714571
     23          1           0       -3.365055   -1.539794    1.046867
     24          6           0       -2.683384    1.202422   -1.482208
     25          1           0       -2.551802    0.574929   -2.365937
     26          1           0       -3.730287    1.513080   -1.413393
     27          1           0       -2.048977    2.082997   -1.596704
     28          1           0       -0.385191   -2.509422    0.052478
     29          1           0        0.386386   -2.510376    0.042244
 ---------------------------------------------------------------------
                    Distance matrix (angstroms):
                    1          2          3          4          5
     1  Pt   0.000000
     2  P    2.242748   0.000000
     3  P    2.242696   4.322654   0.000000
     4  C    3.426282   1.823280   5.147381   0.000000
     5  H    3.598019   2.415964   5.278016   1.091807   0.000000
     6  H    4.392852   2.446570   6.181252   1.094189   1.782220
     7  H    3.542395   2.412807   4.848036   1.091327   1.766014
     8  C    3.551888   1.828611   5.789148   2.820624   3.075898
     9  H    3.727081   2.418057   5.912630   3.792196   4.096358
    10  H    4.492483   2.461786   6.697140   2.959506   3.326751
    11  H    3.730152   2.418280   5.936347   3.061018   2.915270
    12  C    3.425444   1.823422   5.108624   2.832887   3.803410
    13  H    3.542084   2.412615   4.806581   3.067600   4.088661
    14  H    4.392476   2.446960   6.151238   2.969227   3.971619
    15  H    3.595197   2.415845   5.213316   3.803365   4.685574
    16  C    3.425559   5.109126   1.823408   5.318322   5.332644
    17  H    3.542156   4.807058   2.412573   4.797129   4.945965
    18  H    4.392570   6.151646   2.446989   6.383763   6.412515
    19  H    3.595381   5.214116   2.415813   5.231441   5.023914
    20  C    3.551879   5.789212   1.828626   6.695053   6.643554
    21  H    4.492460   6.697185   2.461796   7.507062   7.481013
    22  H    3.730084   5.936165   2.418304   7.088037   7.089854
    23  H    3.727181   5.913005   2.418078   6.676909   6.447858
    24  C    3.426074   5.146846   1.823290   6.107742   6.505106
    25  H    3.597686   5.277086   2.416005   6.504670   6.943969
    26  H    4.392660   6.180846   2.446532   7.021465   7.367630
    27  H    3.542313   4.847569   2.412835   5.678856   6.219157
    28  H    2.222596   3.776047   3.305003   5.053947   4.896220
    29  H    2.223531   3.305814   3.776723   4.630103   4.481930
                    6          7          8          9         10
     6  H    0.000000
     7  H    1.784724   0.000000
     8  C    2.932240   3.790732   0.000000
     9  H    3.937949   4.673878   1.092419   0.000000
    10  H    2.652322   3.955054   1.094228   1.781263   0.000000
    11  H    3.278182   4.087783   1.092454   1.766800   1.781483
    12  C    2.967776   3.068885   2.819455   3.061681   2.955796
    13  H    3.313135   2.902741   3.789547   4.088243   3.951595
    14  H    2.687968   3.316574   2.930381   3.278722   2.647568
    15  H    3.970932   4.089298   3.075085   2.916308   3.322805
    16  C    6.363722   4.739566   6.725899   7.096732   7.516501
    17  H    5.774237   4.054311   6.540111   7.003084   7.208851
    18  H    7.413973   5.751770   7.778471   8.098872   8.578425
    19  H    6.299721   4.739735   6.692963   7.149664   7.494609
    20  C    7.752900   6.506775   6.982179   6.969724   7.991598
    21  H    8.570157   7.197937   7.991577   7.997565   8.975689
    22  H    8.101438   7.016796   6.954569   6.772345   7.995372
    23  H    7.752714   6.565501   6.970146   7.030748   7.998052
    24  C    7.021204   5.678950   6.694309   6.675827   7.506249
[...]
 Alpha virt. eigenvalues --    0.70004   0.73126   0.73639   0.73976   0.74719
 Alpha virt. eigenvalues --    0.76474   0.76569   0.77394   0.78537   0.79524
 Alpha virt. eigenvalues --    0.80560   0.81738   0.83216   0.84884   0.85127
 Alpha virt. eigenvalues --    0.85527   0.91184   0.91288   0.91667   0.92084
 Alpha virt. eigenvalues --    0.94631   0.94796   0.96045   0.98776   0.99209
 Alpha virt. eigenvalues --    0.99892   1.03460   1.03868   1.04442   1.05460
 Alpha virt. eigenvalues --    1.06130   1.06628   1.06947   1.07131   1.07629
 Alpha virt. eigenvalues --    1.08346   1.09523   1.10022   1.11274   1.17427
 Alpha virt. eigenvalues --    1.25474   1.30495   1.30869   1.32404   1.34067
 Alpha virt. eigenvalues --    1.38316   1.38899   1.39948   1.40689   1.41721
 Alpha virt. eigenvalues --    1.43555   1.44878   1.45449   1.46011   1.50939
 Alpha virt. eigenvalues --    1.51360   1.51770   1.52058   1.52094   1.52910
 Alpha virt. eigenvalues --    1.52965   1.53794   1.54059   1.54390   1.54961
 Alpha virt. eigenvalues --    1.55147   1.55769   1.55901   1.56616   1.58461
 Alpha virt. eigenvalues --    1.58779   1.59033   1.59087   1.59731   1.60180
 Alpha virt. eigenvalues --    1.60530   1.60937   1.61264   1.61999   1.62110
 Alpha virt. eigenvalues --    1.63036   1.63305   1.63647   1.63733   1.64145
 Alpha virt. eigenvalues --    1.64982   1.65135   1.65164   1.66076   1.67132
 Alpha virt. eigenvalues --    1.67232   1.68022   1.73304   1.73694   1.78407
 Alpha virt. eigenvalues --    1.82808   1.83255   1.84965   1.86751   1.87728
 Alpha virt. eigenvalues --    1.88381   1.91204   1.92060   1.92716   1.94007
 Alpha virt. eigenvalues --    1.94547   1.96687   2.01449   2.02943   2.03079
 Alpha virt. eigenvalues --    2.03626   2.03820   2.06390   2.06779   2.07353
 Alpha virt. eigenvalues --    2.08365   2.08699   2.08906   2.09253   2.09757
 Alpha virt. eigenvalues --    2.11440   2.11517   2.15979   2.17048   2.17504
 Alpha virt. eigenvalues --    2.17790   2.19745   2.22630   2.27797   2.30436
 Alpha virt. eigenvalues --    2.31230   2.31285   2.31638   2.32172   2.32534
 Alpha virt. eigenvalues --    2.33532   2.33944   2.34479   2.36986   2.37059
 Alpha virt. eigenvalues --    2.39147   2.40112   2.41381   2.42128   2.44112
 Alpha virt. eigenvalues --    2.44539   2.46684   2.49684   2.50051   2.51546
 Alpha virt. eigenvalues --    2.52034   2.53564   2.54860   2.55130   2.55259
 Alpha virt. eigenvalues --    2.56678   2.56999   2.59269   2.59303   2.61822
 Alpha virt. eigenvalues --    2.62103   2.62196   2.62246   2.63903   2.64215
 Alpha virt. eigenvalues --    2.64949   2.65292   2.66032   2.67037   2.70350
 Alpha virt. eigenvalues --    2.74257   2.74522   2.79447   2.79550   2.84794
 Alpha virt. eigenvalues --    2.85257   2.85731   2.85758   2.85952   2.88942
 Alpha virt. eigenvalues --    2.90698   2.92493   2.94506   2.96118   2.96678
 Alpha virt. eigenvalues --    3.04961   3.08346   3.10309   3.10517   3.10993
 Alpha virt. eigenvalues --    3.13702   3.13857   3.14566   3.16028   3.18307
 Alpha virt. eigenvalues --    3.19012   3.19910   3.21350   3.21540   3.23132
 Alpha virt. eigenvalues --    3.23169   3.29612   3.29951   3.30230   3.31154
 Alpha virt. eigenvalues --    3.33533   3.33766   3.36050   3.36155   3.37023
 Alpha virt. eigenvalues --    3.37305   3.37631   3.37890   3.48337   3.48393
 Alpha virt. eigenvalues --    3.48923   3.49825   3.50361   3.50662   3.54180
 Alpha virt. eigenvalues --    3.54477   3.54692   3.54720   3.54877   3.56461
 Alpha virt. eigenvalues --    3.60187   3.60644   3.61294   3.61619   3.61900
 Alpha virt. eigenvalues --    3.62965   3.63598   3.63795   3.63807   3.64591
 Alpha virt. eigenvalues --    3.72072   3.72127   3.72615   3.72923   3.80289
 Alpha virt. eigenvalues --    3.80330   4.25504   4.25788   4.26549   4.27192
 Alpha virt. eigenvalues --    4.27882   4.28090   4.28237   4.28461   4.32584
 Alpha virt. eigenvalues --    4.33579   4.34118   4.34309   4.39939   4.40354
 Alpha virt. eigenvalues --    4.44537   4.46669   4.46763   4.47130   7.76610
 Alpha virt. eigenvalues --    7.78437   7.81443   7.84010   7.84692   7.84815
 Alpha virt. eigenvalues --   15.52917  15.57262  22.35496  22.36771  22.37084
 Alpha virt. eigenvalues --   22.37718  22.38380  22.38991  27.11605  30.68096
 Alpha virt. eigenvalues --   34.12380  52.11961 284.97956
          Condensed to atoms (all electrons):
               1          2          3          4          5          6
     1  Pt  17.232592   0.269164   0.269762  -0.024609  -0.000835   0.005610
     2  P    0.269164  13.880601  -0.005614   0.324869  -0.024312  -0.031623
     3  P    0.269762  -0.005614  13.879150  -0.002505  -0.000078   0.000059
     4  C   -0.024609   0.324869  -0.002505   5.037502   0.395044   0.386238
     5  H   -0.000835  -0.024312  -0.000078   0.395044   0.500907  -0.021183
     6  H    0.005610  -0.031623   0.000059   0.386238  -0.021183   0.541883
     7  H   -0.001566  -0.024801   0.000560   0.391434  -0.013741  -0.020757
     8  C   -0.037920   0.363365   0.002028  -0.049939  -0.000644  -0.001705
     9  H   -0.000054  -0.026466  -0.000031   0.005510  -0.000132  -0.000175
    10  H    0.005160  -0.029458  -0.000097  -0.004708  -0.000105   0.004475
    11  H   -0.000165  -0.026580  -0.000034  -0.000003   0.001384  -0.000460
    12  C   -0.027854   0.319319  -0.003537  -0.024382   0.005147  -0.008142
    13  H   -0.000941  -0.024611   0.000767  -0.000931  -0.000135   0.000004
    14  H    0.005590  -0.031323   0.000092  -0.007879  -0.000144   0.006017
    15  H   -0.000376  -0.024254  -0.000049   0.005080  -0.000148  -0.000130
    16  C   -0.027514  -0.003385   0.320780   0.000556   0.000055  -0.000019
    17  H   -0.001045   0.000750  -0.024742  -0.000166  -0.000012   0.000009
    18  H    0.005591   0.000086  -0.031342  -0.000017  -0.000001   0.000000
    19  H   -0.000462  -0.000056  -0.024293   0.000063  -0.000003  -0.000001
    20  C   -0.038051   0.002037   0.363447  -0.000078   0.000000   0.000001
    21  H    0.005178  -0.000098  -0.029425   0.000002  -0.000000  -0.000000
    22  H   -0.000105  -0.000034  -0.026608   0.000001   0.000000  -0.000000
    23  H   -0.000099  -0.000030  -0.026448   0.000004  -0.000000  -0.000000
    24  C   -0.024960  -0.002701   0.323377   0.000285  -0.000002  -0.000006
    25  H   -0.000764  -0.000069  -0.024293  -0.000002   0.000000   0.000000
    26  H    0.005604   0.000064  -0.031578  -0.000006   0.000000   0.000000
    27  H   -0.001405   0.000589  -0.024661  -0.000062   0.000001   0.000001
    28  H    0.278163  -0.037696   0.006890   0.001063  -0.000003  -0.000040
    29  H    0.277773   0.007010  -0.037505   0.002844   0.000023  -0.000136
               7          8          9         10         11         12
     1  Pt  -0.001566  -0.037920  -0.000054   0.005160  -0.000165  -0.027854
     2  P   -0.024801   0.363365  -0.026466  -0.029458  -0.026580   0.319319
     3  P    0.000560   0.002028  -0.000031  -0.000097  -0.000034  -0.003537
     4  C    0.391434  -0.049939   0.005510  -0.004708  -0.000003  -0.024382
     5  H   -0.013741  -0.000644  -0.000132  -0.000105   0.001384   0.005147
     6  H   -0.020757  -0.001705  -0.000175   0.004475  -0.000460  -0.008142
     7  H    0.513627   0.006040  -0.000172  -0.000217  -0.000138  -0.000812
     8  C    0.006040   5.059032   0.395985   0.381139   0.396066  -0.053338
     9  H   -0.000172   0.395985   0.499190  -0.020605  -0.013710   0.000267
    10  H   -0.000217   0.381139  -0.020605   0.548781  -0.020479  -0.004457
    11  H   -0.000138   0.396066  -0.013710  -0.020479   0.498692   0.005583
    12  C   -0.000812  -0.053338   0.000267  -0.004457   0.005583   5.051185
    13  H    0.001659   0.006193  -0.000153  -0.000211  -0.000179   0.390113
    14  H    0.000000  -0.001451  -0.000454   0.004368  -0.000180   0.384245
    15  H   -0.000143  -0.000549   0.001308  -0.000155  -0.000118   0.394541
    16  C   -0.000122  -0.000073   0.000001   0.000002   0.000003   0.000428
    17  H    0.000429   0.000014  -0.000000  -0.000000  -0.000001  -0.000110
    18  H    0.000011   0.000001  -0.000000  -0.000000  -0.000000  -0.000012
    19  H   -0.000018  -0.000000   0.000000   0.000000  -0.000000  -0.000003
    20  C    0.000013   0.000018  -0.000001   0.000000  -0.000001  -0.000074
    21  H   -0.000000   0.000000   0.000000  -0.000000   0.000000   0.000002
    22  H   -0.000000  -0.000001   0.000000   0.000000   0.000000   0.000003
    23  H   -0.000001  -0.000001   0.000000   0.000000   0.000000   0.000001
    24  C   -0.000061  -0.000079   0.000004   0.000002   0.000001   0.000603
    25  H    0.000001   0.000000  -0.000000  -0.000000   0.000000   0.000053
    26  H    0.000001   0.000001  -0.000000  -0.000000  -0.000000  -0.000020
    27  H    0.000021   0.000013  -0.000001  -0.000000  -0.000000  -0.000134
    28  H   -0.000023  -0.001000   0.000135  -0.000042   0.000118   0.000951
    29  H   -0.000135  -0.021968  -0.000333   0.002029  -0.000073   0.003622
              13         14         15         16         17         18
     1  Pt  -0.000941   0.005590  -0.000376  -0.027514  -0.001045   0.005591
     2  P   -0.024611  -0.031323  -0.024254  -0.003385   0.000750   0.000086
     3  P    0.000767   0.000092  -0.000049   0.320780  -0.024742  -0.031342
     4  C   -0.000931  -0.007879   0.005080   0.000556  -0.000166  -0.000017
     5  H   -0.000135  -0.000144  -0.000148   0.000055  -0.000012  -0.000001
     6  H    0.000004   0.006017  -0.000130  -0.000019   0.000009   0.000000
     7  H    0.001659   0.000000  -0.000143  -0.000122   0.000429   0.000011
     8  C    0.006193  -0.001451  -0.000549  -0.000073   0.000014   0.000001
     9  H   -0.000153  -0.000454   0.001308   0.000001  -0.000000  -0.000000
    10  H   -0.000211   0.004368  -0.000155   0.000002  -0.000000  -0.000000
    11  H   -0.000179  -0.000180  -0.000118   0.000003  -0.000001  -0.000000
    12  C    0.390113   0.384245   0.394541   0.000428  -0.000110  -0.000012
    13  H    0.515600  -0.020377  -0.014147  -0.000110   0.000083   0.000004
    14  H   -0.020377   0.543199  -0.021174  -0.000012   0.000004   0.000000
    15  H   -0.014147  -0.021174   0.502890  -0.000003   0.000001   0.000000
    16  C   -0.000110  -0.000012  -0.000003   5.048008   0.390339   0.384856
    17  H    0.000083   0.000004   0.000001   0.390339   0.515385  -0.020437
    18  H    0.000004   0.000000   0.000000   0.384856  -0.020437   0.542487
    19  H    0.000001   0.000000   0.000000   0.394719  -0.014115  -0.021184
    20  C    0.000014   0.000001  -0.000000  -0.052630   0.006170  -0.001493
    21  H   -0.000000  -0.000000   0.000000  -0.004474  -0.000215   0.004370
    22  H   -0.000001  -0.000000  -0.000000   0.005573  -0.000178  -0.000179
    23  H   -0.000000  -0.000000   0.000000   0.000209  -0.000150  -0.000458
    24  C   -0.000174  -0.000019   0.000061  -0.024208  -0.000904  -0.007969
    25  H   -0.000012  -0.000001  -0.000002   0.005130  -0.000137  -0.000140
    26  H    0.000010   0.000000  -0.000001  -0.008084   0.000002   0.006019
    27  H    0.000431   0.000012  -0.000017  -0.000860   0.001658   0.000004
    28  H   -0.000019  -0.000037   0.000001   0.003471  -0.000128  -0.000152
    29  H   -0.000130  -0.000157  -0.000053   0.000968  -0.000020  -0.000037
              19         20         21         22         23         24
     1  Pt  -0.000462  -0.038051   0.005178  -0.000105  -0.000099  -0.024960
     2  P   -0.000056   0.002037  -0.000098  -0.000034  -0.000030  -0.002701
     3  P   -0.024293   0.363447  -0.029425  -0.026608  -0.026448   0.323377
     4  C    0.000063  -0.000078   0.000002   0.000001   0.000004   0.000285
     5  H   -0.000003   0.000000  -0.000000   0.000000  -0.000000  -0.000002
     6  H   -0.000001   0.000001  -0.000000  -0.000000  -0.000000  -0.000006
     7  H   -0.000018   0.000013  -0.000000  -0.000000  -0.000001  -0.000061
     8  C   -0.000000   0.000018   0.000000  -0.000001  -0.000001  -0.000079
     9  H    0.000000  -0.000001   0.000000   0.000000   0.000000   0.000004
    10  H    0.000000   0.000000  -0.000000   0.000000   0.000000   0.000002
    11  H   -0.000000  -0.000001   0.000000   0.000000   0.000000   0.000001
    12  C   -0.000003  -0.000074   0.000002   0.000003   0.000001   0.000603
    13  H    0.000001   0.000014  -0.000000  -0.000001  -0.000000  -0.000174
    14  H    0.000000   0.000001  -0.000000  -0.000000  -0.000000  -0.000019
    15  H    0.000000  -0.000000   0.000000  -0.000000   0.000000   0.000061
    16  C    0.394719  -0.052630  -0.004474   0.005573   0.000209  -0.024208
    17  H   -0.014115   0.006170  -0.000215  -0.000178  -0.000150  -0.000904
    18  H   -0.021184  -0.001493   0.004370  -0.000179  -0.000458  -0.007969
    19  H    0.502472  -0.000588  -0.000147  -0.000121   0.001326   0.005087
    20  C   -0.000588   5.059102   0.381038   0.396108   0.396000  -0.050763
    21  H   -0.000147   0.381038   0.548846  -0.020475  -0.020613  -0.004652
    22  H   -0.000121   0.396108  -0.020475   0.498699  -0.013711   0.000068
    23  H    0.001326   0.396000  -0.020613  -0.013711   0.499211   0.005519
    24  C    0.005087  -0.050763  -0.004652   0.000068   0.005519   5.040333
    25  H   -0.000148  -0.000609  -0.000114   0.001365  -0.000129   0.394915
    26  H   -0.000133  -0.001638   0.004448  -0.000458  -0.000177   0.385766
    27  H   -0.000141   0.006069  -0.000217  -0.000141  -0.000173   0.391208
    28  H   -0.000044  -0.021941   0.002029  -0.000125  -0.000323   0.003048
    29  H    0.000000  -0.001006  -0.000042   0.000123   0.000132   0.001036
              25         26         27         28         29
     1  Pt  -0.000764   0.005604  -0.001405   0.278163   0.277773
     2  P   -0.000069   0.000064   0.000589  -0.037696   0.007010
     3  P   -0.024293  -0.031578  -0.024661   0.006890  -0.037505
     4  C   -0.000002  -0.000006  -0.000062   0.001063   0.002844
     5  H    0.000000   0.000000   0.000001  -0.000003   0.000023
     6  H    0.000000   0.000000   0.000001  -0.000040  -0.000136
     7  H    0.000001   0.000001   0.000021  -0.000023  -0.000135
     8  C    0.000000   0.000001   0.000013  -0.001000  -0.021968
     9  H   -0.000000  -0.000000  -0.000001   0.000135  -0.000333
    10  H   -0.000000  -0.000000  -0.000000  -0.000042   0.002029
    11  H    0.000000  -0.000000  -0.000000   0.000118  -0.000073
    12  C    0.000053  -0.000020  -0.000134   0.000951   0.003622
    13  H   -0.000012   0.000010   0.000431  -0.000019  -0.000130
    14  H   -0.000001   0.000000   0.000012  -0.000037  -0.000157
    15  H   -0.000002  -0.000001  -0.000017   0.000001  -0.000053
    16  C    0.005130  -0.008084  -0.000860   0.003471   0.000968
    17  H   -0.000137   0.000002   0.001658  -0.000128  -0.000020
    18  H   -0.000140   0.006019   0.000004  -0.000152  -0.000037
    19  H   -0.000148  -0.000133  -0.000141  -0.000044   0.000000
    20  C   -0.000609  -0.001638   0.006069  -0.021941  -0.001006
    21  H   -0.000114   0.004448  -0.000217   0.002029  -0.000042
    22  H    0.001365  -0.000458  -0.000141  -0.000125   0.000123
    23  H   -0.000129  -0.000177  -0.000173  -0.000323   0.000132
    24  C    0.394915   0.385766   0.391208   0.003048   0.001036
    25  H    0.501394  -0.021177  -0.013790   0.000001  -0.000002
    26  H   -0.021177   0.542337  -0.020687  -0.000140  -0.000039
    27  H   -0.013790  -0.020687   0.513765  -0.000138  -0.000022
    28  H    0.000001  -0.000140  -0.000138   0.783986   0.059221
    29  H   -0.000002  -0.000039  -0.000022   0.059221   0.784262
 Mulliken charges:
               1
     1  Pt  -0.171465
     2  P    0.125258
     3  P    0.125929
     4  C   -0.435208
     5  H    0.158917
     6  H    0.140079
     7  H    0.148912
     8  C   -0.441224
     9  H    0.159889
    10  H    0.134580
    11  H    0.160274
    12  C   -0.433187
    13  H    0.147254
    14  H    0.139680
    15  H    0.157437
    16  C   -0.433605
    17  H    0.147518
    18  H    0.139988
    19  H    0.157788
    20  C   -0.441145
    21  H    0.134560
    22  H    0.160198
    23  H    0.159911
    24  C   -0.434815
    25  H    0.158529
    26  H    0.139886
    27  H    0.148677
    28  H   -0.077227
    29  H   -0.077386
 Sum of Mulliken charges =  -0.00000
 Mulliken charges with hydrogens summed into heavy atoms:
               1
     1  Pt  -0.326079
     2  P    0.125258
     3  P    0.125929
     4  C    0.012700
     8  C    0.013520
    12  C    0.011184
    16  C    0.011688
    20  C    0.013523
    24  C    0.012278
 APT charges:
               1
     1  Pt  -0.569886
     2  P    0.052146
     3  P    0.052631
     4  C   -1.220104
     5  H    0.325660
     6  H    0.691657
     7  H    0.245211
     8  C   -1.243927
     9  H    0.327608
    10  H    0.669736
    11  H    0.337642
    12  C   -1.221525
    13  H    0.245310
    14  H    0.690744
    15  H    0.321716
    16  C   -1.220631
    17  H    0.245765
    18  H    0.691373
    19  H    0.321376
    20  C   -1.243324
    21  H    0.669849
    22  H    0.336291
    23  H    0.328302
    24  C   -1.221492
    25  H    0.326327
    26  H    0.691281
    27  H    0.245025
    28  H    0.062558
    29  H    0.062682
 Sum of APT charges =  -0.00000
 APT charges with hydrogens summed into heavy atoms:
               1
     1  Pt  -0.444646
     2  P    0.052146
     3  P    0.052631
     4  C    0.042423
     8  C    0.091059
    12  C    0.036245
    16  C    0.037883
    20  C    0.091118
    24  C    0.041141
 Electronic spatial extent (au):  <R**2>=           3094.2766
 Charge=             -0.0000 electrons
 Dipole moment (field-independent basis, Debye):
    X=             -0.0030    Y=              4.1180    Z=             -0.0958  Tot=              4.1191
 Quadrupole moment (field-independent basis, Debye-Ang):
   XX=            -76.1031   YY=            -95.5674   ZZ=            -91.4162
   XY=             -0.0094   XZ=              0.0171   YZ=              0.1493
 Traceless Quadrupole moment (field-independent basis, Debye-Ang):
   XX=             11.5924   YY=             -7.8718   ZZ=             -3.7206
   XY=             -0.0094   XZ=              0.0171   YZ=              0.1493
 Octapole moment (field-independent basis, Debye-Ang**2):
  XXX=             -0.0300  YYY=            -76.0303  ZZZ=              2.0856  XYY=             -0.0320
  XXY=            -19.6991  XXZ=              0.5067  XZZ=              0.0022  YZZ=            -31.1663
  YYZ=              0.3291  XYZ=             -0.1906
 Hexadecapole moment (field-independent basis, Debye-Ang**3):
 XXXX=          -2831.8060 YYYY=           -791.8710 ZZZZ=           -536.0976 XXXY=             -0.0493
 XXXZ=              5.1151 YYYX=              0.0987 YYYZ=              3.4388 ZZZX=              2.1868
 ZZZY=              4.0325 XXYY=           -616.7854 XXZZ=           -578.7771 YYZZ=           -227.4903
 XXYZ=              1.1668 YYXZ=              2.6770 ZZXY=             -0.0662
 N-N= 8.344460762292D+02 E-N=-4.097426839587D+03  KE= 9.606737462098D+02
  Exact polarizability:   0.000   0.000   0.000   0.000   0.000   0.000
 Approx polarizability: 273.558  -0.040 238.083  -0.319  -0.489 222.210
 No NMR shielding tensors so no spin-rotation constants.
 Leave Link  601 at Sat Nov  9 23:00:50 2019, MaxMem=  5368709120 cpu:               7.5 elap:               0.4
 (Enter /share/home/wli/program/opt/Chem_soft/g16/l9999.exe)

 This type of calculation cannot be archived.


 AND ALL THIS SCIENCE I DON'T UNDERSTAND
 IT'S JUST MY JOB FIVE DAYS A WEEK

                           -- ELTON JOHN, "ROCKET MAN"
 Job cpu time:       2 days  0 hours 32 minutes 41.0 seconds.
 Elapsed time:       0 days  2 hours  4 minutes  9.4 seconds.
 File lengths (MBytes):  RWF=   1712 Int=      0 D2E=      0 Chk=   1072 Scr=     32
 Normal termination of Gaussian 16 at Sat Nov  9 23:00:50 2019.
