 Entering Gaussian System, Link 0=g16
 Input=Pt_ircb.gjf
 Output=Pt_ircb.log
 Initial command:
 /share/home/wli/program/opt/Chem_soft/g16/l1.exe "/scratch/wli/Gau-3856.inp" -scrdir="/scratch/wli/"
 Entering Link 1 = /share/home/wli/program/opt/Chem_soft/g16/l1.exe PID=      3857.
  
 Copyright (c) 1988,1990,1992,1993,1995,1998,2003,2009,2016,
            Gaussian, Inc.  All Rights Reserved.
  
 This is part of the Gaussian(R) 16 program.  It is based on
 the Gaussian(R) 09 system (copyright 2009, Gaussian, Inc.),
 the Gaussian(R) 03 system (copyright 2003, Gaussian, Inc.),
 the Gaussian(R) 98 system (copyright 1998, Gaussian, Inc.),
 the Gaussian(R) 94 system (copyright 1995, Gaussian, Inc.),
 the Gaussian 92(TM) system (copyright 1992, Gaussian, Inc.),
 the Gaussian 90(TM) system (copyright 1990, Gaussian, Inc.),
 the Gaussian 88(TM) system (copyright 1988, Gaussian, Inc.),
 the Gaussian 86(TM) system (copyright 1986, Carnegie Mellon
 University), and the Gaussian 82(TM) system (copyright 1983,
 Carnegie Mellon University). Gaussian is a federally registered
 trademark of Gaussian, Inc.
  
 This software contains proprietary and confidential information,
 including trade secrets, belonging to Gaussian, Inc.
  
 This software is provided under written license and may be
 used, copied, transmitted, or stored only in accord with that
 written license.
  
 The following legend is applicable only to US Government
 contracts under FAR:
  
                    RESTRICTED RIGHTS LEGEND
  
 Use, reproduction and disclosure by the US Government is
 subject to restrictions as set forth in subparagraphs (a)
 and (c) of the Commercial Computer Software - Restricted
 Rights clause in FAR 52.227-19.
  
 Gaussian, Inc.
 340 Quinnipiac St., Bldg. 40, Wallingford CT 06492
  
  
 ---------------------------------------------------------------
 Warning -- This program may not be used in any manner that
 competes with the business of Gaussian, Inc. or will provide
 assistance to any competitor of Gaussian, Inc.  The licensee
 of this program is prohibited from giving any competitor of
 Gaussian, Inc. access to this program.  By using this program,
 the user acknowledges that Gaussian, Inc. is engaged in the
 business of creating and licensing software in the field of
 computational chemistry and represents and warrants to the
 licensee that it is not a competitor of Gaussian, Inc. and that
 it will not use this program in any manner prohibited above.
 ---------------------------------------------------------------
  

 Cite this work as:
 Gaussian 16, Revision A.03,
 M. J. Frisch, G. W. Trucks, H. B. Schlegel, G. E. Scuseria, 
 M. A. Robb, J. R. Cheeseman, G. Scalmani, V. Barone, 
 G. A. Petersson, H. Nakatsuji, X. Li, M. Caricato, A. V. Marenich, 
 J. Bloino, B. G. Janesko, R. Gomperts, B. Mennucci, H. P. Hratchian, 
 J. V. Ortiz, A. F. Izmaylov, J. L. Sonnenberg, D. Williams-Young, 
 F. Ding, F. Lipparini, F. Egidi, J. Goings, B. Peng, A. Petrone, 
 T. Henderson, D. Ranasinghe, V. G. Zakrzewski, J. Gao, N. Rega, 
 G. Zheng, W. Liang, M. Hada, M. Ehara, K. Toyota, R. Fukuda, 
 J. Hasegawa, M. Ishida, T. Nakajima, Y. Honda, O. Kitao, H. Nakai, 
 T. Vreven, K. Throssell, J. A. Montgomery, Jr., J. E. Peralta, 
 F. Ogliaro, M. J. Bearpark, J. J. Heyd, E. N. Brothers, K. N. Kudin, 
 V. N. Staroverov, T. A. Keith, R. Kobayashi, J. Normand, 
 K. Raghavachari, A. P. Rendell, J. C. Burant, S. S. Iyengar, 
 J. Tomasi, M. Cossi, J. M. Millam, M. Klene, C. Adamo, R. Cammi, 
 J. W. Ochterski, R. L. Martin, K. Morokuma, O. Farkas, 
 J. B. Foresman, and D. J. Fox, Gaussian, Inc., Wallingford CT, 2016.
 
 ******************************************
 Gaussian 16:  ES64L-G16RevA.03 25-Dec-2016
                 9-Nov-2019 
 ******************************************
 %oldchk=Pt_tsb.chk
 %chk=Pt_ircb.chk
 %mem=40gb
 %nprocshared=24
 Will use up to   24 processors via shared memory.
 Copying data from "Pt_tsb.chk" to current chk file "Pt_ircb.chk"
 IOpt=  2 FromEx=T IUOpen= 4 IOptOp= 5 NList=   0 IFRang= 0 IUIn= 4 IUOut= 2.
 ----------------------------------------------------------------------
 #p irc=(calcfc,lqa,maxpoint=30) pbe1pbe/def2tzvp em=gd3bj geom=allchec
 k scrf=(smd,solvent=benzene)
 ----------------------------------------------------------------------
 1/10=4,18=10,26=3,29=7,38=1,42=30,44=3,45=2,172=1/1,23;
 2/12=2,29=1,40=1/2;
 3/5=44,7=101,11=2,14=-4,25=1,30=1,70=32201,71=2,72=12,74=-13,124=41,140=1/1,2,3;
 4//1;
 5/5=2,38=5,53=12/2;
 8/6=4,10=90,11=11/1;
 11/6=1,8=1,9=11,15=111,16=1/1,2,10;
 10/6=1,13=1/2;
 6/7=2,8=2,9=2,10=2,28=1/1;
 7/10=1,18=20,25=1/1,2,3,16;
 1/10=4,18=10,26=3,42=30,44=3,45=2/23(2);
 2/29=1/2;
 99/5=20/99;
 2/29=1/2;
 3/5=44,7=101,11=2,14=-2,25=1,30=1,70=32205,71=2,72=12,74=-13,124=41,140=1/1,2,3;
 4/5=5,16=3,69=1/1;
 5/5=2,38=5,53=12/2;
 8/6=4,10=90,11=11/1;
 11/6=1,8=1,9=11,15=111,16=1/1,2,10;
 10/6=1,13=1/2;
 7/10=1,18=20,25=1/1,2,3,16;
 1/18=10,26=3,42=30,44=3,45=2/23(-8);
 2/29=1/2;
 6/7=2,8=2,9=2,10=2,19=2,28=1/1;
 99/5=20,9=1/99;
 Leave Link    1 at Sat Nov  9 16:58:54 2019, MaxMem=  5368709120 cpu:              11.3 elap:               0.5
 (Enter /share/home/wli/program/opt/Chem_soft/g16/l101.exe)
 Structure from the checkpoint file:  "Pt_ircb.chk"
 -------------------
 Title Card Required
 -------------------
 Charge =  0 Multiplicity = 1
 Redundant internal coordinates found in file.  (old form).
 Pt,0,-0.000087484,-0.3736730556,0.0156970064
 P,0,2.1602409009,0.2325337268,-0.0019436654
 P,0,-2.1606660526,0.2317099682,0.0086200397
 C,0,2.6844933,1.2135326036,1.4424907414
 H,0,2.5517819794,0.6208721659,2.3498107733
 H,0,3.7319777265,1.5193952442,1.3619641783
 H,0,2.0514869572,2.098862228,1.5228167917
 C,0,3.4869864395,-1.0244162697,-0.0738320726
 H,0,3.3616477818,-1.6264624599,-0.9767337541
 H,0,4.4847268237,-0.57515867,-0.0788044419
 H,0,3.3982772549,-1.6891291198,0.7885852735
 C,0,2.6321346804,1.3175629616,-1.3890117967
 H,0,1.99872065,2.2061634594,-1.3792249056
 H,0,3.6829153116,1.6164929646,-1.3268842546
 H,0,2.4626434087,0.7933504292,-2.3316684358
 C,0,-2.6335502408,1.3704561692,1.351598175
 H,0,-2.0005321026,2.2582720275,1.3069421373
 H,0,-3.6844412793,1.6662169956,1.2773584643
 H,0,-2.4641607713,0.8839612725,2.314281695
 C,0,-3.4868653248,-1.0220542239,0.129633501
 H,0,-4.4848172692,-0.5734307297,0.1165079475
 H,0,-3.3975325237,-1.7202759458,-0.7058210506
 H,0,-3.3615720818,-1.5879048054,1.0556548312
 C,0,-2.6848798937,1.1546624894,-1.473584823
 H,0,-2.5513733301,0.5268027035,-2.3567913757
 H,0,-3.7325967938,1.4627738372,-1.4056242314
 H,0,-2.0523999631,2.0365524231,-1.588458073
 H,0,-0.3882734233,-2.5048777885,0.0643276899
 H,0,0.3889789278,-2.5055228417,0.0541545132
 Recover connectivity data from disk.
 ITRead=  0  0  0  0  0  0  0  0  0  0  0  0  0  0  0  0  0  0  0  0
 ITRead=  0  0  0  0  0  0  0  0  0
 MicOpt= -1 -1 -1 -1 -1 -1 -1 -1 -1 -1 -1 -1 -1 -1 -1 -1 -1 -1 -1 -1
 MicOpt= -1 -1 -1 -1 -1 -1 -1 -1 -1
 NAtoms=     29 NQM=       29 NQMF=       0 NMMI=      0 NMMIF=      0
                NMic=       0 NMicF=      0.
                    Isotopes and Nuclear Properties:
 (Nuclear quadrupole moments (NQMom) in fm**2, nuclear magnetic moments (NMagM)
  in nuclear magnetons)

  Atom         1           2           3           4           5           6           7           8           9          10
 IAtWgt=         195          31          31          12           1           1           1          12           1           1
 AtmWgt= 194.9648000  30.9737634  30.9737634  12.0000000   1.0078250   1.0078250   1.0078250  12.0000000   1.0078250   1.0078250
 NucSpn=           1           1           1           0           1           1           1           0           1           1
 AtZEff=1176.2400000  12.9400000  12.9400000   3.6000000   1.0000000   1.0000000   1.0000000   3.6000000   1.0000000   1.0000000
 NQMom=    0.0000000   0.0000000   0.0000000   0.0000000   0.0000000   0.0000000   0.0000000   0.0000000   0.0000000   0.0000000
 NMagM=    0.6095000   1.1316000   1.1316000   0.0000000   2.7928460   2.7928460   2.7928460   0.0000000   2.7928460   2.7928460
 AtZNuc=  78.0000000  15.0000000  15.0000000   6.0000000   1.0000000   1.0000000   1.0000000   6.0000000   1.0000000   1.0000000

  Atom        11          12          13          14          15          16          17          18          19          20
 IAtWgt=           1          12           1           1           1          12           1           1           1          12
 AtmWgt=   1.0078250  12.0000000   1.0078250   1.0078250   1.0078250  12.0000000   1.0078250   1.0078250   1.0078250  12.0000000
 NucSpn=           1           0           1           1           1           0           1           1           1           0
 AtZEff=   1.0000000   3.6000000   1.0000000   1.0000000   1.0000000   3.6000000   1.0000000   1.0000000   1.0000000   3.6000000
 NQMom=    0.0000000   0.0000000   0.0000000   0.0000000   0.0000000   0.0000000   0.0000000   0.0000000   0.0000000   0.0000000
 NMagM=    2.7928460   0.0000000   2.7928460   2.7928460   2.7928460   0.0000000   2.7928460   2.7928460   2.7928460   0.0000000
 AtZNuc=   1.0000000   6.0000000   1.0000000   1.0000000   1.0000000   6.0000000   1.0000000   1.0000000   1.0000000   6.0000000

  Atom        21          22          23          24          25          26          27          28          29
 IAtWgt=           1           1           1          12           1           1           1           1           1
 AtmWgt=   1.0078250   1.0078250   1.0078250  12.0000000   1.0078250   1.0078250   1.0078250   1.0078250   1.0078250
 NucSpn=           1           1           1           0           1           1           1           1           1
 AtZEff=   1.0000000   1.0000000   1.0000000   3.6000000   1.0000000   1.0000000   1.0000000   1.0000000   1.0000000
 NQMom=    0.0000000   0.0000000   0.0000000   0.0000000   0.0000000   0.0000000   0.0000000   0.0000000   0.0000000
 NMagM=    2.7928460   2.7928460   2.7928460   0.0000000   2.7928460   2.7928460   2.7928460   2.7928460   2.7928460
 AtZNuc=   1.0000000   1.0000000   1.0000000   6.0000000   1.0000000   1.0000000   1.0000000   1.0000000   1.0000000
 Leave Link  101 at Sat Nov  9 16:58:55 2019, MaxMem=  5368709120 cpu:               7.5 elap:               0.3
 (Enter /share/home/wli/program/opt/Chem_soft/g16/l123.exe)
 IRC-IRC-IRC-IRC-IRC-IRC-IRC-IRC-IRC-IRC-IRC-IRC-IRC-IRC-IRC-IRC-IRC-IRC
 ------------------------------------------------------------------------
 INPUT DATA FOR L123
 ------------------------------------------------------------------------
 GENERAL PARAMETERS:
 Follow reaction path in both directions.
 Maximum points per path      =  30
 Step size                    =   0.100 bohr
 Integration scheme           = LQA                                 
 Initial Hessian              = CalcFC
 Hessian evaluation           = All updating
 Hessian updating method      = Bofill                              
 ------------------------------------------------------------------------
 IRC-IRC-IRC-IRC-IRC-IRC-IRC-IRC-IRC-IRC-IRC-IRC-IRC-IRC-IRC-IRC-IRC-IRC
 Leave Link  123 at Sat Nov  9 16:58:55 2019, MaxMem=  5368709120 cpu:               0.1 elap:               0.0
 (Enter /share/home/wli/program/opt/Chem_soft/g16/l202.exe)
                          Input orientation:                          
 ---------------------------------------------------------------------
 Center     Atomic      Atomic             Coordinates (Angstroms)
 Number     Number       Type             X           Y           Z
 ---------------------------------------------------------------------
      1         78           0       -0.000087   -0.373673    0.015697
      2         15           0        2.160241    0.232534   -0.001944
      3         15           0       -2.160666    0.231710    0.008620
      4          6           0        2.684493    1.213533    1.442491
      5          1           0        2.551782    0.620872    2.349811
      6          1           0        3.731978    1.519395    1.361964
      7          1           0        2.051487    2.098862    1.522817
      8          6           0        3.486986   -1.024416   -0.073832
      9          1           0        3.361648   -1.626462   -0.976734
     10          1           0        4.484727   -0.575159   -0.078804
     11          1           0        3.398277   -1.689129    0.788585
     12          6           0        2.632135    1.317563   -1.389012
     13          1           0        1.998721    2.206163   -1.379225
     14          1           0        3.682915    1.616493   -1.326884
     15          1           0        2.462643    0.793350   -2.331668
     16          6           0       -2.633550    1.370456    1.351598
     17          1           0       -2.000532    2.258272    1.306942
     18          1           0       -3.684441    1.666217    1.277358
     19          1           0       -2.464161    0.883961    2.314282
     20          6           0       -3.486865   -1.022054    0.129634
     21          1           0       -4.484817   -0.573431    0.116508
     22          1           0       -3.397533   -1.720276   -0.705821
     23          1           0       -3.361572   -1.587905    1.055655
     24          6           0       -2.684880    1.154662   -1.473585
     25          1           0       -2.551373    0.526803   -2.356791
     26          1           0       -3.732597    1.462774   -1.405624
     27          1           0       -2.052400    2.036552   -1.588458
     28          1           0       -0.388273   -2.504878    0.064328
     29          1           0        0.388979   -2.505523    0.054155
 ---------------------------------------------------------------------
                    Distance matrix (angstroms):
                    1          2          3          4          5
     1  Pt   0.000000
     2  P    2.243840   0.000000
     3  P    2.243800   4.320920   0.000000
     4  C    3.429568   1.823072   5.147381   0.000000
     5  H    3.598506   2.415546   5.276342   1.091828   0.000000
     6  H    4.395959   2.446756   6.181660   1.094194   1.782147
     7  H    3.548774   2.412448   4.849874   1.091310   1.765975
     8  C    3.548403   1.829028   5.786245   2.819866   3.075000
     9  H    3.722320   2.418566   5.909287   3.791669   4.095399
    10  H    4.490333   2.462013   6.694769   2.958817   3.326400
    11  H    3.725139   2.418772   5.932944   3.059824   2.913775
    12  C    3.429589   1.823165   5.109148   2.833897   3.804028
    13  H    3.549169   2.412096   4.808854   3.068824   4.089588
    14  H    4.396339   2.447314   6.152125   2.971306   3.973514
    15  H    3.596820   2.415281   5.212234   3.803952   4.685503
    16  C    3.429540   5.109538   1.823171   5.321135   5.333477
    17  H    3.549116   4.809244   2.412102   4.802012   4.948961
    18  H    4.396294   6.152428   2.447325   6.387137   6.413531
    19  H    3.596775   5.212902   2.415288   5.232330   5.022963
    20  C    3.548380   5.786287   1.829036   6.693811   6.640305
    21  H    4.490308   6.694805   2.462026   7.506696   7.478484
    22  H    3.725126   5.932770   2.418784   7.086149   7.086057
    23  H    3.722291   5.909563   2.418565   6.674773   6.443702
    24  C    3.429560   5.146965   1.823067   6.110412   6.505837
    25  H    3.598419   5.275529   2.415554   6.505416   6.942849
    26  H    4.395943   6.181371   2.446747   7.025164   7.369227
    27  H    3.548871   4.849521   2.412434   5.683500   6.221945
    28  H    2.166815   3.740687   3.260888   5.016752   4.861859
    29  H    2.167403   3.261513   3.741017   4.585656   4.440957
                    6          7          8          9         10
     6  H    0.000000
     7  H    1.784854   0.000000
     8  C    2.931298   3.790094   0.000000
     9  H    3.937394   4.673577   1.092429   0.000000
    10  H    2.651340   3.954268   1.094232   1.781242   0.000000
    11  H    3.276393   4.086786   1.092463   1.766811   1.781479
    12  C    2.969555   3.070232   2.818747   3.060955   2.954850
    13  H    3.315109   2.904504   3.788883   4.087614   3.950579
    14  H    2.691048   3.318891   2.929664   3.277587   2.646496
    15  H    3.972565   4.090289   3.074310   2.915399   3.322203
    16  C    6.367279   4.744414   6.725194   7.095425   7.516737
    17  H    5.780193   4.060895   6.541822   7.004235   7.211602
    18  H    7.418355   5.757456   7.777827   8.097533   8.578942
    19  H    6.301017   4.742729   6.690377   7.146541   7.492859
    20  C    7.751729   6.508028   6.976820   6.963583   7.986829
    21  H    8.570111   7.200148   7.986819   7.991938   8.971670
    22  H    8.099452   7.017439   6.948398   6.765258   7.989647
    23  H    7.750328   6.565950   6.963908   7.023801   7.992312
    24  C    7.024915   5.683582   6.693252   6.673980   7.506061
    25  H    7.368506   6.221660   6.639275   6.442432   7.477316
    26  H    7.961321   6.514292   7.751269   7.749557   8.569599
    27  H    6.513944   5.150321   6.507567   6.565348   7.199591
    28  H    5.903821   5.410549   4.150722   3.989653   5.243132
    29  H    5.393141   5.110897   3.436235   3.266839   4.529805
                   11         12         13         14         15
    11  H    0.000000
    12  C    3.790660   0.000000
    13  H    4.672415   1.091293   0.000000
    14  H    3.934891   1.094239   1.785207   0.000000
    15  H    4.095619   1.091846   1.765903   1.782195   0.000000
    16  C    6.786825   5.936428   5.441850   6.865314   6.314324
    17  H    6.708041   5.441939   4.817907   6.296864   5.941836
    18  H    7.852525   6.865145   6.296611   7.814250   7.181478
    19  H    6.581544   6.314635   5.942013   7.182008   6.772478
    20  C    6.948697   6.724749   6.541383   7.777476   6.689571
    21  H    7.989972   7.516213   7.211077   8.578520   7.491920
    22  H    6.958251   6.786170   6.707455   7.851910   6.580529
    23  H    6.765880   7.095256   7.004023   8.097497   7.146035
    24  C    7.085857   5.320182   4.801112   6.386206   5.231047
    25  H    7.085343   5.332040   4.947650   6.412058   5.021159
    26  H    8.099285   6.366409   5.779388   7.417523   6.299737
    27  H    7.017187   4.743584   4.060065   5.756623   4.741680
    28  H    3.940553   5.083907   5.474988   5.957831   4.974619
    29  H    3.203399   4.661594   5.181296   5.454200   4.568895
                   16         17         18         19         20
    16  C    0.000000
    17  H    1.091294   0.000000
    18  H    1.094239   1.785204   0.000000
    19  H    1.091847   1.765903   1.782195   0.000000
    20  C    2.818768   3.788903   2.929695   3.074330   0.000000
    21  H    2.954883   3.950613   2.646544   3.322236   1.094232
    22  H    3.790682   4.672437   3.934927   4.095639   1.092464
    23  H    3.060964   4.087622   3.277607   2.915409   1.092429
    24  C    2.833877   3.068813   2.971279   3.803936   2.819856
    25  H    3.804032   4.089542   3.973557   4.685519   3.075128
    26  H    2.969630   3.315250   2.691116   3.972613   2.931172
    27  H    3.070073   2.904340   3.318676   4.090158   3.790067
    28  H    4.660102   5.179871   5.452907   4.566819   3.435739
    29  H    5.083528   5.474759   5.957549   4.973649   4.150728
                   21         22         23         24         25
    21  H    0.000000
    22  H    1.781479   0.000000
    23  H    1.781245   1.766809   0.000000
    24  C    2.958796   3.059838   3.791654   0.000000
    25  H    3.326549   2.913941   4.095510   1.091827   0.000000
    26  H    2.651198   3.276248   3.937283   1.094195   1.782148
    27  H    3.954185   4.086831   4.673538   1.091310   1.765971
    28  H    4.529336   3.203805   3.265589   4.586045   4.442061
    29  H    5.243163   3.941046   3.988942   5.017923   4.863469
                   26         27         28         29
    26  H    0.000000
    27  H    1.784856   0.000000
    28  H    5.393284   5.111321   0.000000
    29  H    5.904720   5.411927   0.777319   0.000000
 Symmetry turned off by external request.
 Stoichiometry    C6H20P2Pt
 Framework group  C1[X(C6H20P2Pt)]
 Deg. of freedom    81
 Full point group                 C1      NOp   1
 Rotational constants (GHZ):           1.5580151           0.4069172           0.3913240
 Leave Link  202 at Sat Nov  9 16:58:55 2019, MaxMem=  5368709120 cpu:               0.3 elap:               0.0
 (Enter /share/home/wli/program/opt/Chem_soft/g16/l301.exe)
 Standard basis: def2TZVP (5D, 7F)
 Ernie: Thresh=  0.10000D-02 Tol=  0.10000D-05 Strict=F.
   420 basis functions,   679 primitive gaussians,   466 cartesian basis functions
    52 alpha electrons       52 beta electrons
       nuclear repulsion energy       826.2901299655 Hartrees.
 IExCor= 1009 DFT=T Ex+Corr=PBE1PBE ExCW=0 ScaHFX=  0.250000
 ScaDFX=  0.750000  0.750000  1.000000  1.000000 ScalE2=  1.000000  1.000000
 IRadAn=      5 IRanWt=     -1 IRanGd=            0 ICorTp=0 IEmpDi=141
 NAtoms=   29 NActive=   29 NUniq=   29 SFac= 1.00D+00 NAtFMM=   60 NAOKFM=F Big=F
 Integral buffers will be    131072 words long.
 Raffenetti 2 integral format.
 Two-electron integral symmetry is turned off.
 R6Disp:  Grimme-D3(BJ) Dispersion energy=       -0.0309156281 Hartrees.
 Nuclear repulsion after empirical dispersion term =      826.2592143375 Hartrees.
 Force inversion solution in PCM.
 ------------------------------------------------------------------------------
 Polarizable Continuum Model (PCM)
 =================================
 Model                : PCM.
 Atomic radii         : SMD-Coulomb.
 Polarization charges : Total charges.
 Charge compensation  : None.
 Solution method      : Matrix inversion.
 Cavity type          : VdW (van der Waals Surface) (Alpha=1.000).
 Cavity algorithm     : GePol (No added spheres)
                        Default sphere list used, NSphG=   29.
                        Lebedev-Laikov grids with approx.  5.0 points / Ang**2.
                        Smoothing algorithm: York/Karplus (Gamma=1.0000).
                        Polarization charges: spherical gaussians, with
                                              point-specific exponents (IZeta= 3).
                        Self-potential: point-specific (ISelfS= 7).
                        Self-field    : sphere-specific E.n sum rule (ISelfD= 2).
 1st derivatives      : Analytical E(r).r(x)/FMM algorithm (CHGder, D1EAlg=3).
                        Cavity 1st derivative terms included.
 2nd derivatives      : Analytical E(r).r(xy)/FMM algorithm (CHGder, D2EAlg=3).
                        Cavity 2nd derivative terms included.
 Solvent              : Benzene, Eps=   2.270600 Eps(inf)=   2.253301
 ------------------------------------------------------------------------------
 GePol: Number of generator spheres                  =      29
 GePol: Total number of spheres                      =      29
 GePol: Number of exposed spheres                    =      29 (100.00%)
 GePol: Number of points                             =    2151
 GePol: Average weight of points                     =       0.12
 GePol: Minimum weight of points                     =   0.32D-09
 GePol: Maximum weight of points                     =    0.22001
 GePol: Number of points with low weight             =     137
 GePol: Fraction of low-weight points (<1% of avg)   =       6.37%
 GePol: Cavity surface area                          =    254.874 Ang**2
 GePol: Cavity volume                                =    208.596 Ang**3
 ------------------------------------------------------------------------------
 Atomic radii for non-electrostatic terms: SMD-CDS.
 ------------------------------------------------------------------------------
 PCM non-electrostatic energy =         0.0001470003 Hartrees.
 Nuclear repulsion after PCM non-electrostatic terms =      826.2593613378 Hartrees.
 Leave Link  301 at Sat Nov  9 16:58:55 2019, MaxMem=  5368709120 cpu:               1.9 elap:               0.1
 (Enter /share/home/wli/program/opt/Chem_soft/g16/l302.exe)
 NPDir=0 NMtPBC=     1 NCelOv=     1 NCel=       1 NClECP=     1 NCelD=      1
         NCelK=      1 NCelE2=     1 NClLst=     1 CellRange=     0.0.
 One-electron integrals computed using PRISM.
   1 Symmetry operations used in ECPInt.
 ECPInt:  NShTT=   17391 NPrTT=   50365 LenC2=   15924 LenP2D=   34696.
 LDataN:  DoStor=T MaxTD1= 8 Len=  415
 NBasis=   420 RedAO= T EigKep=  6.54D-04  NBF=   420
 NBsUse=   420 1.00D-06 EigRej= -1.00D+00 NBFU=   420
 Precomputing XC quadrature grid using
 IXCGrd= 4 IRadAn=           5 IRanWt=          -1 IRanGd=           0 AccXCQ= 0.00D+00.
 Defaulting to unpruned grid for atomic number  78.
 Generated NRdTot=       0 NPtTot=           0 NUsed=           0 NTot=          32
 NSgBfM=   464   464   464   464   464 MxSgAt=    29 MxSgA2=    29.
 Leave Link  302 at Sat Nov  9 16:58:56 2019, MaxMem=  5368709120 cpu:              15.4 elap:               0.7
 (Enter /share/home/wli/program/opt/Chem_soft/g16/l303.exe)
 DipDrv:  MaxL=1.
 Leave Link  303 at Sat Nov  9 16:58:56 2019, MaxMem=  5368709120 cpu:               1.3 elap:               0.1
 (Enter /share/home/wli/program/opt/Chem_soft/g16/l401.exe)
 ExpMin= 4.92D-02 ExpMax= 5.24D+04 ExpMxC= 1.79D+03 IAcc=3 IRadAn=         5 AccDes= 0.00D+00
 Harris functional with IExCor= 1009 and IRadAn=       5 diagonalized for initial guess.
 HarFok:  IExCor= 1009 AccDes= 0.00D+00 IRadAn=         5 IDoV= 1 UseB2=F ITyADJ=14
 ICtDFT=  3500011 ScaDFX=  1.000000  1.000000  1.000000  1.000000
 Defaulting to unpruned grid for atomic number  78.
 FoFCou: FMM=F IPFlag=           0 FMFlag=      100000 FMFlg1=           0
         NFxFlg=           0 DoJE=T BraDBF=F KetDBF=T FulRan=T
         wScrn=  0.000000 ICntrl=       500 IOpCl=  0 I1Cent=   200000004 NGrid=           0
         NMat0=    1 NMatS0=      1 NMatT0=    0 NMatD0=    1 NMtDS0=    0 NMtDT0=    0
 Symmetry not used in FoFCou.
 Harris En= -1042.49112776262    
 JPrj=0 DoOrth=F DoCkMO=F.
 Leave Link  401 at Sat Nov  9 16:58:58 2019, MaxMem=  5368709120 cpu:              42.4 elap:               1.8
 (Enter /share/home/wli/program/opt/Chem_soft/g16/l502.exe)
 Two-electron integral symmetry not used.
 Closed shell SCF:
 Using DIIS extrapolation, IDIIS=  1040.
 NGot=  5368709120 LenX=  5368260223 LenY=  5368042601
 Requested convergence on RMS density matrix=1.00D-08 within 128 cycles.
 Requested convergence on MAX density matrix=1.00D-06.
 Requested convergence on             energy=1.00D-06.
 No special actions if energy rises.
 Fock matrices will be formed incrementally for  20 cycles.

 Cycle   1  Pass 1  IDiag  1:
 FoFJK:  IHMeth= 1 ICntrl=       0 DoSepK=F KAlg= 0 I1Cent=           0 FoldK=F
 IRaf= 860000000 NMat=       1 IRICut=       1 DoRegI=T DoRafI=F ISym2E= 0 IDoP0=0 IntGTp=1.
 FoFCou: FMM=F IPFlag=           0 FMFlag=      100000 FMFlg1=           0
         NFxFlg=           0 DoJE=F BraDBF=F KetDBF=F FulRan=T
         wScrn=  0.000000 ICntrl=         0 IOpCl=  0 I1Cent=           0 NGrid=           0
         NMat0=    1 NMatS0=      1 NMatT0=    0 NMatD0=    1 NMtDS0=    0 NMtDT0=    0
 Symmetry not used in FoFCou.
 Defaulting to unpruned grid for atomic number  78.
 Defaulting to unpruned grid for atomic number  78.
 Defaulting to unpruned grid for atomic number  78.
 Defaulting to unpruned grid for atomic number  78.
 Defaulting to unpruned grid for atomic number  78.
 Defaulting to unpruned grid for atomic number  78.
 Defaulting to unpruned grid for atomic number  78.
 Defaulting to unpruned grid for atomic number  78.
 Defaulting to unpruned grid for atomic number  78.
 Defaulting to unpruned grid for atomic number  78.
 Defaulting to unpruned grid for atomic number  78.
 Defaulting to unpruned grid for atomic number  78.
 Defaulting to unpruned grid for atomic number  78.
 Defaulting to unpruned grid for atomic number  78.
 Defaulting to unpruned grid for atomic number  78.
 Defaulting to unpruned grid for atomic number  78.
 Defaulting to unpruned grid for atomic number  78.
 Defaulting to unpruned grid for atomic number  78.
 Defaulting to unpruned grid for atomic number  78.
 Defaulting to unpruned grid for atomic number  78.
 Defaulting to unpruned grid for atomic number  78.
 Defaulting to unpruned grid for atomic number  78.
 Defaulting to unpruned grid for atomic number  78.
 Defaulting to unpruned grid for atomic number  78.
 Inv3:  Mode=1 IEnd=    13880403.
 Iteration    1 A*A^-1 deviation from unit magnitude is 4.44D-15 for   2140.
 Iteration    1 A*A^-1 deviation from orthogonality  is 1.47D-15 for   1369    604.
 Iteration    1 A^-1*A deviation from unit magnitude is 4.66D-15 for   2140.
 Iteration    1 A^-1*A deviation from orthogonality  is 3.53D-15 for   2131   1812.
 E= -1041.70381681081    
 DIIS: error= 4.82D-02 at cycle   1 NSaved=   1.
 NSaved= 1 IEnMin= 1 EnMin= -1041.70381681081     IErMin= 1 ErrMin= 4.82D-02
 ErrMax= 4.82D-02  0.00D+00 EMaxC= 1.00D-01 BMatC= 8.56D-01 BMatP= 8.56D-01
 IDIUse=3 WtCom= 5.18D-01 WtEn= 4.82D-01
 Coeff-Com:  0.100D+01
 Coeff-En:   0.100D+01
 Coeff:      0.100D+01
 Gap=     0.383 Goal=   None    Shift=    0.000
 GapD=    0.383 DampG=1.000 DampE=0.250 DampFc=0.2500 IDamp=-1.
 Damping current iteration by 2.50D-01
 RMSDP=3.57D-03 MaxDP=2.96D-01              OVMax= 2.54D-01

 Cycle   2  Pass 1  IDiag  1:
 RMSU=  8.92D-04    CP:  1.00D+00
 E= -1041.96992578340     Delta-E=       -0.266108972592 Rises=F Damp=T
 DIIS: error= 2.21D-02 at cycle   2 NSaved=   2.
 NSaved= 2 IEnMin= 2 EnMin= -1041.96992578340     IErMin= 2 ErrMin= 2.21D-02
 ErrMax= 2.21D-02  0.00D+00 EMaxC= 1.00D-01 BMatC= 1.69D-01 BMatP= 8.56D-01
 IDIUse=3 WtCom= 7.79D-01 WtEn= 2.21D-01
 Coeff-Com: -0.658D+00 0.166D+01
 Coeff-En:   0.000D+00 0.100D+01
 Coeff:     -0.512D+00 0.151D+01
 Gap=     0.295 Goal=   None    Shift=    0.000
 RMSDP=1.24D-03 MaxDP=1.74D-01 DE=-2.66D-01 OVMax= 2.37D-01

 Cycle   3  Pass 1  IDiag  1:
 RMSU=  1.19D-03    CP:  9.84D-01  1.29D+00
 E= -1042.36451624261     Delta-E=       -0.394590459213 Rises=F Damp=F
 DIIS: error= 9.21D-03 at cycle   3 NSaved=   3.
 NSaved= 3 IEnMin= 3 EnMin= -1042.36451624261     IErMin= 3 ErrMin= 9.21D-03
 ErrMax= 9.21D-03  0.00D+00 EMaxC= 1.00D-01 BMatC= 3.45D-02 BMatP= 1.69D-01
 IDIUse=3 WtCom= 9.08D-01 WtEn= 9.21D-02
 Coeff-Com: -0.300D+00 0.776D+00 0.525D+00
 Coeff-En:   0.000D+00 0.000D+00 0.100D+01
 Coeff:     -0.273D+00 0.704D+00 0.568D+00
 Gap=     0.189 Goal=   None    Shift=    0.000
 RMSDP=6.47D-04 MaxDP=5.44D-02 DE=-3.95D-01 OVMax= 4.74D-02

 Cycle   4  Pass 1  IDiag  1:
 RMSU=  4.81D-04    CP:  9.85D-01  1.51D+00  6.75D-01
 E= -1042.38961371381     Delta-E=       -0.025097471196 Rises=F Damp=F
 DIIS: error= 4.01D-03 at cycle   4 NSaved=   4.
 NSaved= 4 IEnMin= 4 EnMin= -1042.38961371381     IErMin= 4 ErrMin= 4.01D-03
 ErrMax= 4.01D-03  0.00D+00 EMaxC= 1.00D-01 BMatC= 7.17D-03 BMatP= 3.45D-02
 IDIUse=3 WtCom= 9.60D-01 WtEn= 4.01D-02
 Coeff-Com:  0.754D-02 0.275D-01 0.309D+00 0.656D+00
 Coeff-En:   0.000D+00 0.000D+00 0.152D+00 0.848D+00
 Coeff:      0.724D-02 0.264D-01 0.302D+00 0.664D+00
 Gap=     0.182 Goal=   None    Shift=    0.000
 RMSDP=1.87D-04 MaxDP=2.02D-02 DE=-2.51D-02 OVMax= 1.44D-02

 Cycle   5  Pass 1  IDiag  1:
 RMSU=  8.72D-05    CP:  9.83D-01  1.44D+00  7.79D-01  8.31D-01
 E= -1042.39514521183     Delta-E=       -0.005531498020 Rises=F Damp=F
 DIIS: error= 6.91D-04 at cycle   5 NSaved=   5.
 NSaved= 5 IEnMin= 5 EnMin= -1042.39514521183     IErMin= 5 ErrMin= 6.91D-04
 ErrMax= 6.91D-04  0.00D+00 EMaxC= 1.00D-01 BMatC= 1.34D-04 BMatP= 7.17D-03
 IDIUse=3 WtCom= 9.93D-01 WtEn= 6.91D-03
 Coeff-Com:  0.181D-01-0.258D-01 0.927D-01 0.250D+00 0.665D+00
 Coeff-En:   0.000D+00 0.000D+00 0.000D+00 0.000D+00 0.100D+01
 Coeff:      0.179D-01-0.256D-01 0.920D-01 0.248D+00 0.668D+00
 Gap=     0.182 Goal=   None    Shift=    0.000
 RMSDP=2.61D-05 MaxDP=1.38D-03 DE=-5.53D-03 OVMax= 2.49D-03

 Cycle   6  Pass 1  IDiag  1:
 RMSU=  1.70D-05    CP:  9.83D-01  1.43D+00  7.85D-01  8.45D-01  8.03D-01
 E= -1042.39528838135     Delta-E=       -0.000143169518 Rises=F Damp=F
 DIIS: error= 7.65D-05 at cycle   6 NSaved=   6.
 NSaved= 6 IEnMin= 6 EnMin= -1042.39528838135     IErMin= 6 ErrMin= 7.65D-05
 ErrMax= 7.65D-05  0.00D+00 EMaxC= 1.00D-01 BMatC= 1.82D-06 BMatP= 1.34D-04
 IDIUse=1 WtCom= 1.00D+00 WtEn= 0.00D+00
 Coeff-Com:  0.341D-02-0.540D-02 0.977D-02 0.262D-01 0.131D+00 0.835D+00
 Coeff:      0.341D-02-0.540D-02 0.977D-02 0.262D-01 0.131D+00 0.835D+00
 Gap=     0.181 Goal=   None    Shift=    0.000
 RMSDP=5.84D-06 MaxDP=7.33D-04 DE=-1.43D-04 OVMax= 5.11D-04

 Cycle   7  Pass 1  IDiag  1:
 RMSU=  4.17D-06    CP:  9.83D-01  1.43D+00  7.88D-01  8.47D-01  8.19D-01
                    CP:  9.56D-01
 E= -1042.39529021685     Delta-E=       -0.000001835504 Rises=F Damp=F
 DIIS: error= 3.26D-05 at cycle   7 NSaved=   7.
 NSaved= 7 IEnMin= 7 EnMin= -1042.39529021685     IErMin= 7 ErrMin= 3.26D-05
 ErrMax= 3.26D-05  0.00D+00 EMaxC= 1.00D-01 BMatC= 2.45D-07 BMatP= 1.82D-06
 IDIUse=1 WtCom= 1.00D+00 WtEn= 0.00D+00
 Coeff-Com:  0.341D-03-0.738D-03-0.340D-03-0.943D-03 0.178D-01 0.314D+00
 Coeff-Com:  0.670D+00
 Coeff:      0.341D-03-0.738D-03-0.340D-03-0.943D-03 0.178D-01 0.314D+00
 Coeff:      0.670D+00
 Gap=     0.181 Goal=   None    Shift=    0.000
 RMSDP=1.92D-06 MaxDP=1.15D-04 DE=-1.84D-06 OVMax= 1.80D-04

 Cycle   8  Pass 1  IDiag  1:
 RMSU=  9.47D-07    CP:  9.83D-01  1.43D+00  7.87D-01  8.49D-01  8.26D-01
                    CP:  1.01D+00  8.57D-01
 E= -1042.39529047549     Delta-E=       -0.000000258644 Rises=F Damp=F
 DIIS: error= 4.93D-06 at cycle   8 NSaved=   8.
 NSaved= 8 IEnMin= 8 EnMin= -1042.39529047549     IErMin= 8 ErrMin= 4.93D-06
 ErrMax= 4.93D-06  0.00D+00 EMaxC= 1.00D-01 BMatC= 1.26D-08 BMatP= 2.45D-07
 IDIUse=1 WtCom= 1.00D+00 WtEn= 0.00D+00
 Coeff-Com: -0.229D-03 0.331D-03-0.103D-02-0.314D-02-0.584D-02 0.371D-01
 Coeff-Com:  0.207D+00 0.766D+00
 Coeff:     -0.229D-03 0.331D-03-0.103D-02-0.314D-02-0.584D-02 0.371D-01
 Coeff:      0.207D+00 0.766D+00
 Gap=     0.181 Goal=   None    Shift=    0.000
 RMSDP=4.33D-07 MaxDP=3.52D-05 DE=-2.59D-07 OVMax= 8.06D-05

 Cycle   9  Pass 1  IDiag  1:
 RMSU=  2.63D-07    CP:  9.83D-01  1.43D+00  7.87D-01  8.49D-01  8.27D-01
                    CP:  1.02D+00  9.13D-01  1.03D+00
 E= -1042.39529049088     Delta-E=       -0.000000015381 Rises=F Damp=F
 DIIS: error= 2.06D-06 at cycle   9 NSaved=   9.
 NSaved= 9 IEnMin= 9 EnMin= -1042.39529049088     IErMin= 9 ErrMin= 2.06D-06
 ErrMax= 2.06D-06  0.00D+00 EMaxC= 1.00D-01 BMatC= 1.25D-09 BMatP= 1.26D-08
 IDIUse=1 WtCom= 1.00D+00 WtEn= 0.00D+00
 Coeff-Com: -0.589D-04 0.919D-04-0.333D-03-0.110D-02-0.247D-02-0.762D-03
 Coeff-Com:  0.428D-01 0.243D+00 0.719D+00
 Coeff:     -0.589D-04 0.919D-04-0.333D-03-0.110D-02-0.247D-02-0.762D-03
 Coeff:      0.428D-01 0.243D+00 0.719D+00
 Gap=     0.181 Goal=   None    Shift=    0.000
 RMSDP=1.43D-07 MaxDP=1.33D-05 DE=-1.54D-08 OVMax= 2.13D-05

 Cycle  10  Pass 1  IDiag  1:
 RMSU=  8.07D-08    CP:  9.83D-01  1.43D+00  7.87D-01  8.49D-01  8.27D-01
                    CP:  1.02D+00  9.30D-01  1.10D+00  1.03D+00
 E= -1042.39529049224     Delta-E=       -0.000000001361 Rises=F Damp=F
 DIIS: error= 7.47D-07 at cycle  10 NSaved=  10.
 NSaved=10 IEnMin=10 EnMin= -1042.39529049224     IErMin=10 ErrMin= 7.47D-07
 ErrMax= 7.47D-07  0.00D+00 EMaxC= 1.00D-01 BMatC= 2.48D-10 BMatP= 1.25D-09
 IDIUse=1 WtCom= 1.00D+00 WtEn= 0.00D+00
 Coeff-Com:  0.251D-04-0.325D-04 0.474D-04 0.854D-04-0.667D-05-0.876D-02
 Coeff-Com: -0.228D-01-0.390D-01 0.368D+00 0.702D+00
 Coeff:      0.251D-04-0.325D-04 0.474D-04 0.854D-04-0.667D-05-0.876D-02
 Coeff:     -0.228D-01-0.390D-01 0.368D+00 0.702D+00
 Gap=     0.181 Goal=   None    Shift=    0.000
 RMSDP=6.47D-08 MaxDP=7.03D-06 DE=-1.36D-09 OVMax= 1.56D-05

 Cycle  11  Pass 1  IDiag  1:
 RMSU=  2.61D-08    CP:  9.83D-01  1.43D+00  7.88D-01  8.49D-01  8.27D-01
                    CP:  1.02D+00  9.36D-01  1.13D+00  1.14D+00  8.36D-01
 E= -1042.39529049253     Delta-E=       -0.000000000296 Rises=F Damp=F
 DIIS: error= 1.72D-07 at cycle  11 NSaved=  11.
 NSaved=11 IEnMin=11 EnMin= -1042.39529049253     IErMin=11 ErrMin= 1.72D-07
 ErrMax= 1.72D-07  0.00D+00 EMaxC= 1.00D-01 BMatC= 1.02D-11 BMatP= 2.48D-10
 IDIUse=1 WtCom= 1.00D+00 WtEn= 0.00D+00
 Coeff-Com: -0.266D-06 0.601D-06 0.157D-04 0.668D-04 0.640D-04-0.443D-03
 Coeff-Com: -0.279D-02-0.118D-01-0.417D-02 0.590D-01 0.960D+00
 Coeff:     -0.266D-06 0.601D-06 0.157D-04 0.668D-04 0.640D-04-0.443D-03
 Coeff:     -0.279D-02-0.118D-01-0.417D-02 0.590D-01 0.960D+00
 Gap=     0.181 Goal=   None    Shift=    0.000
 RMSDP=1.39D-08 MaxDP=1.24D-06 DE=-2.96D-10 OVMax= 2.64D-06

 Cycle  12  Pass 1  IDiag  1:
 RMSU=  5.28D-09    CP:  9.83D-01  1.43D+00  7.88D-01  8.49D-01  8.27D-01
                    CP:  1.02D+00  9.37D-01  1.13D+00  1.16D+00  9.17D-01
                    CP:  1.13D+00
 E= -1042.39529049253     Delta-E=        0.000000000006 Rises=F Damp=F
 DIIS: error= 1.96D-08 at cycle  12 NSaved=  12.
 NSaved=12 IEnMin=11 EnMin= -1042.39529049253     IErMin=12 ErrMin= 1.96D-08
 ErrMax= 1.96D-08  0.00D+00 EMaxC= 1.00D-01 BMatC= 2.37D-13 BMatP= 1.02D-11
 IDIUse=1 WtCom= 1.00D+00 WtEn= 0.00D+00
 Coeff-Com: -0.193D-05 0.264D-05 0.593D-06 0.104D-04 0.120D-04 0.395D-03
 Coeff-Com:  0.568D-03-0.280D-03-0.196D-01-0.259D-01 0.219D+00 0.826D+00
 Coeff:     -0.193D-05 0.264D-05 0.593D-06 0.104D-04 0.120D-04 0.395D-03
 Coeff:      0.568D-03-0.280D-03-0.196D-01-0.259D-01 0.219D+00 0.826D+00
 Gap=     0.181 Goal=   None    Shift=    0.000
 RMSDP=2.55D-09 MaxDP=2.54D-07 DE= 6.37D-12 OVMax= 5.47D-07

 Error on total polarization charges =  0.04498
 SCF Done:  E(RPBE1PBE) =  -1042.39529049     A.U. after   12 cycles
            NFock= 12  Conv=0.25D-08     -V/T= 2.0849
 KE= 9.608642474809D+02 PE=-4.082448847218D+03 EE= 1.252929947907D+03
 SMD-CDS (non-electrostatic) energy       (kcal/mol) =       0.09
 (included in total energy above)
 Leave Link  502 at Sat Nov  9 17:00:11 2019, MaxMem=  5368709120 cpu:            1715.2 elap:              72.8
 (Enter /share/home/wli/program/opt/Chem_soft/g16/l801.exe)
 DoSCS=F DFT=T ScalE2(SS,OS)=  1.000000  1.000000
 Range of M.O.s used for correlation:     1   420
 NBasis=   420 NAE=    52 NBE=    52 NFC=     0 NFV=     0
 NROrb=    420 NOA=    52 NOB=    52 NVA=   368 NVB=   368
 Leave Link  801 at Sat Nov  9 17:00:11 2019, MaxMem=  5368709120 cpu:               0.5 elap:               0.0
 (Enter /share/home/wli/program/opt/Chem_soft/g16/l1101.exe)
 Using compressed storage, NAtomX=    29.
 Will process     30 centers per pass.
   1 Symmetry operations used in ECPInt.
 ECPInt:  NShTT=   17391 NPrTT=   50365 LenC2=   15924 LenP2D=   34696.
 LDataN:  DoStor=T MaxTD1= 9 Len=  602
 Number of processors reduced to  23 by ecpmxn.
 R6Disp: Adding Grimme-D3(BJ) dispersion energy 1st derivatives to the gradient.
 Leave Link 1101 at Sat Nov  9 17:00:12 2019, MaxMem=  5368709120 cpu:              40.5 elap:               1.8
 (Enter /share/home/wli/program/opt/Chem_soft/g16/l1102.exe)
 Symmetrizing basis deriv contribution to polar:
 IMax=3 JMax=2 DiffMx= 0.00D+00
 Leave Link 1102 at Sat Nov  9 17:00:13 2019, MaxMem=  5368709120 cpu:               1.2 elap:               0.1
 (Enter /share/home/wli/program/opt/Chem_soft/g16/l1110.exe)
 Forming Gx(P) for the SCF density, NAtomX=    29.
 Integral derivatives from FoFJK, PRISM(SPDF).
 Do as many integral derivatives as possible in FoFJK.
 G2DrvN: MDV=    5368706896.
 G2DrvN: will do    30 centers at a time, making    1 passes.
 Calling FoFCou, ICntrl=  3107 FMM=F I1Cent=   0 AccDes= 0.00D+00.
 FoFJK:  IHMeth= 1 ICntrl=    3107 DoSepK=F KAlg= 0 I1Cent=           0 FoldK=F
 IRaf=         0 NMat=       1 IRICut=       1 DoRegI=T DoRafI=F ISym2E= 0 IDoP0=0 IntGTp=1.
 FoFCou: FMM=F IPFlag=           0 FMFlag=      100000 FMFlg1=           0
         NFxFlg=           0 DoJE=F BraDBF=F KetDBF=F FulRan=T
         wScrn=  0.000000 ICntrl=      3107 IOpCl=  0 I1Cent=           0 NGrid=           0
         NMat0=    1 NMatS0=      1 NMatT0=    0 NMatD0=    1 NMtDS0=    0 NMtDT0=    0
 Symmetry not used in FoFCou.
 Defaulting to unpruned grid for atomic number  78.
 Defaulting to unpruned grid for atomic number  78.
 Defaulting to unpruned grid for atomic number  78.
 Defaulting to unpruned grid for atomic number  78.
 Defaulting to unpruned grid for atomic number  78.
 Defaulting to unpruned grid for atomic number  78.
 Defaulting to unpruned grid for atomic number  78.
 Defaulting to unpruned grid for atomic number  78.
 Defaulting to unpruned grid for atomic number  78.
 Defaulting to unpruned grid for atomic number  78.
 Defaulting to unpruned grid for atomic number  78.
 Defaulting to unpruned grid for atomic number  78.
 Defaulting to unpruned grid for atomic number  78.
 Defaulting to unpruned grid for atomic number  78.
 Defaulting to unpruned grid for atomic number  78.
 Defaulting to unpruned grid for atomic number  78.
 Defaulting to unpruned grid for atomic number  78.
 Defaulting to unpruned grid for atomic number  78.
 Defaulting to unpruned grid for atomic number  78.
 Defaulting to unpruned grid for atomic number  78.
 Defaulting to unpruned grid for atomic number  78.
 Defaulting to unpruned grid for atomic number  78.
 Defaulting to unpruned grid for atomic number  78.
 Defaulting to unpruned grid for atomic number  78.
 NEqPCM:  Using equilibrium solvation (IEInf=0, Eps=   2.2706, EpsInf=   2.2533)
 G2PCM: DoFxE=T DoFxN=T DoGrad=T DoDP/DQ/DG/TGxP=FFFF NFrqRd=   0 IEInf=0 SqF1=F DoCFld=F IF1Alg=4.
 GePol: Maximum number of non-zero 1st derivatives   =     237
 End of G2Drv F.D. properties file   721 does not exist.
 End of G2Drv F.D. properties file   722 does not exist.
 End of G2Drv F.D. properties file   788 does not exist.
 Leave Link 1110 at Sat Nov  9 17:02:25 2019, MaxMem=  5368709120 cpu:            3177.4 elap:             132.5
 (Enter /share/home/wli/program/opt/Chem_soft/g16/l1002.exe)
 Minotr:  Closed shell wavefunction.
          IDoAtm=11111111111111111111111111111
 NEqPCM:  Using equilibrium solvation (IEInf=0, Eps=   2.2706, EpsInf=   2.2533)
          Direct CPHF calculation.
          Differentiating once with respect to nuclear coordinates.
          Requested convergence is 1.0D-08 RMS, and 1.0D-07 maximum.
          Secondary convergence is 1.0D-12 RMS, and 1.0D-12 maximum.
          NewPWx=T KeepS1=F KeepF1=F KeepIn=T MapXYZ=F SortEE=F KeepMc=T.
 Defaulting to unpruned grid for atomic number  78.
         8720 words used for storage of precomputed grid.
 Keep R1 ints in memory in canonical form, NReq=3959145597.
 FoFCou: FMM=F IPFlag=           0 FMFlag=           0 FMFlg1=           0
         NFxFlg=           0 DoJE=F BraDBF=F KetDBF=F FulRan=T
         wScrn=  0.000000 ICntrl=       600 IOpCl=  0 I1Cent=           0 NGrid=           0
         NMat0=    1 NMatS0=  88410 NMatT0=    0 NMatD0=    1 NMtDS0=    0 NMtDT0=    0
 Symmetry not used in FoFCou.
 Two-electron integral symmetry not used.
          MDV=    5368709120 using IRadAn=       1.
          Solving linear equations simultaneously, MaxMat=       0.
 Defaulting to unpruned grid for atomic number  78.
 Defaulting to unpruned grid for atomic number  78.
 Defaulting to unpruned grid for atomic number  78.
 Defaulting to unpruned grid for atomic number  78.
 Defaulting to unpruned grid for atomic number  78.
 Defaulting to unpruned grid for atomic number  78.
 Defaulting to unpruned grid for atomic number  78.
 Defaulting to unpruned grid for atomic number  78.
 Defaulting to unpruned grid for atomic number  78.
 Defaulting to unpruned grid for atomic number  78.
 Defaulting to unpruned grid for atomic number  78.
 Defaulting to unpruned grid for atomic number  78.
 Defaulting to unpruned grid for atomic number  78.
 Defaulting to unpruned grid for atomic number  78.
 Defaulting to unpruned grid for atomic number  78.
 Defaulting to unpruned grid for atomic number  78.
 Defaulting to unpruned grid for atomic number  78.
 Defaulting to unpruned grid for atomic number  78.
 Defaulting to unpruned grid for atomic number  78.
 Defaulting to unpruned grid for atomic number  78.
 Defaulting to unpruned grid for atomic number  78.
 Defaulting to unpruned grid for atomic number  78.
 Defaulting to unpruned grid for atomic number  78.
 Defaulting to unpruned grid for atomic number  78.
          There are    90 degrees of freedom in the 1st order CPHF.  IDoFFX=6 NUNeed=     0.
     84 vectors produced by pass  0 Test12= 2.13D-14 1.11D-09 XBig12= 9.89D-02 1.14D-01.
 AX will form    84 AO Fock derivatives at one time.
     84 vectors produced by pass  1 Test12= 2.13D-14 1.11D-09 XBig12= 2.51D-02 3.42D-02.
     84 vectors produced by pass  2 Test12= 2.13D-14 1.11D-09 XBig12= 3.52D-04 7.06D-03.
     84 vectors produced by pass  3 Test12= 2.13D-14 1.11D-09 XBig12= 5.29D-06 6.50D-04.
     84 vectors produced by pass  4 Test12= 2.13D-14 1.11D-09 XBig12= 9.35D-08 3.89D-05.
     84 vectors produced by pass  5 Test12= 2.13D-14 1.11D-09 XBig12= 2.14D-10 2.72D-06.
     23 vectors produced by pass  6 Test12= 2.13D-14 1.11D-09 XBig12= 2.97D-13 6.57D-08.
      2 vectors produced by pass  7 Test12= 2.13D-14 1.11D-09 XBig12= 3.83D-16 2.68D-09.
 InvSVY:  IOpt=1 It=  1 EMax= 3.61D-16
 Solved reduced A of dimension   529 with    90 vectors.
 End of Minotr F.D. properties file   721 does not exist.
 End of Minotr F.D. properties file   722 does not exist.
 End of Minotr F.D. properties file   788 does not exist.
 Leave Link 1002 at Sat Nov  9 17:05:33 2019, MaxMem=  5368709120 cpu:            4507.8 elap:             188.2
 (Enter /share/home/wli/program/opt/Chem_soft/g16/l601.exe)
 Copying SCF densities to generalized density rwf, IOpCl= 0 IROHF=0.

 **********************************************************************

            Population analysis using the SCF density.

 **********************************************************************

 Alpha  occ. eigenvalues --  -77.21199 -77.21199 -10.20809 -10.20809 -10.20789
 Alpha  occ. eigenvalues --  -10.20788 -10.20783 -10.20782  -6.60495  -6.60494
 Alpha  occ. eigenvalues --   -4.74104  -4.74103  -4.74096  -4.74095  -4.73773
 Alpha  occ. eigenvalues --   -4.73772  -3.88181  -2.13279  -2.11142  -2.10609
 Alpha  occ. eigenvalues --   -0.78615  -0.78442  -0.70620  -0.70613  -0.70568
 Alpha  occ. eigenvalues --   -0.70566  -0.55925  -0.54575  -0.46084  -0.44845
 Alpha  occ. eigenvalues --   -0.44660  -0.43539  -0.43518  -0.43491  -0.43459
 Alpha  occ. eigenvalues --   -0.40831  -0.40819  -0.40792  -0.40704  -0.39065
 Alpha  occ. eigenvalues --   -0.39040  -0.35619  -0.34291  -0.34114  -0.33967
 Alpha  occ. eigenvalues --   -0.33696  -0.28489  -0.23423  -0.21020  -0.20693
 Alpha  occ. eigenvalues --   -0.20415  -0.18422
 Alpha virt. eigenvalues --   -0.00280   0.03598   0.04140   0.04959   0.07352
 Alpha virt. eigenvalues --    0.07719   0.09096   0.09413   0.09527   0.09551
 Alpha virt. eigenvalues --    0.10004   0.10502   0.10762   0.11427   0.11473
 Alpha virt. eigenvalues --    0.13088   0.14035   0.14613   0.14723   0.14964
 Alpha virt. eigenvalues --    0.15147   0.15214   0.15315   0.15460   0.16000
 Alpha virt. eigenvalues --    0.16357   0.17279   0.17696   0.18499   0.20901
 Alpha virt. eigenvalues --    0.20968   0.21345   0.21830   0.24976   0.25587
 Alpha virt. eigenvalues --    0.25862   0.26200   0.26523   0.26685   0.28220
 Alpha virt. eigenvalues --    0.29392   0.29548   0.30423   0.31100   0.31272
 Alpha virt. eigenvalues --    0.35348   0.35961   0.36135   0.36716   0.37196
 Alpha virt. eigenvalues --    0.38376   0.39441   0.39596   0.40271   0.40319
 Alpha virt. eigenvalues --    0.40732   0.41737   0.41952   0.41994   0.42839
 Alpha virt. eigenvalues --    0.44422   0.45080   0.45834   0.46579   0.46820
 Alpha virt. eigenvalues --    0.47288   0.47389   0.47554   0.47614   0.48077
 Alpha virt. eigenvalues --    0.49613   0.49758   0.50251   0.50520   0.52809
 Alpha virt. eigenvalues --    0.52847   0.53148   0.54300   0.55071   0.56453
 Alpha virt. eigenvalues --    0.57041   0.58929   0.59483   0.61766   0.64422
 Alpha virt. eigenvalues --    0.65256   0.68856   0.69125   0.69455   0.70811
 Alpha virt. eigenvalues --    0.70927   0.71871   0.72283   0.73850   0.75034
 Alpha virt. eigenvalues --    0.75938   0.76416   0.76648   0.76690   0.77471
 Alpha virt. eigenvalues --    0.81987   0.82387   0.82677   0.86571   0.88265
 Alpha virt. eigenvalues --    0.88286   0.91144   0.91332   0.91885   0.92050
 Alpha virt. eigenvalues --    0.94349   0.95502   0.95936   0.99747   1.00266
 Alpha virt. eigenvalues --    1.01229   1.02117   1.04766   1.04998   1.05824
 Alpha virt. eigenvalues --    1.06884   1.07365   1.07545   1.07683   1.08495
 Alpha virt. eigenvalues --    1.09237   1.09410   1.10429   1.11506   1.22710
 Alpha virt. eigenvalues --    1.25284   1.26479   1.30616   1.32532   1.33797
 Alpha virt. eigenvalues --    1.36815   1.37330   1.41398   1.42204   1.44121
 Alpha virt. eigenvalues --    1.44166   1.44598   1.46050   1.48768   1.51151
 Alpha virt. eigenvalues --    1.51451   1.52027   1.52133   1.53067   1.53343
 Alpha virt. eigenvalues --    1.53384   1.53495   1.54076   1.55260   1.55410
 Alpha virt. eigenvalues --    1.55412   1.55845   1.56062   1.57140   1.57657
 Alpha virt. eigenvalues --    1.58646   1.59044   1.59935   1.60175   1.60292
 Alpha virt. eigenvalues --    1.61054   1.61789   1.62214   1.62250   1.62799
 Alpha virt. eigenvalues --    1.62824   1.63884   1.64095   1.64479   1.64926
 Alpha virt. eigenvalues --    1.65252   1.66785   1.66922   1.67451   1.68285
 Alpha virt. eigenvalues --    1.69326   1.69415   1.69574   1.71042   1.73652
 Alpha virt. eigenvalues --    1.79061   1.84370   1.86937   1.87012   1.87834
 Alpha virt. eigenvalues --    1.88743   1.93308   1.93508   1.93797   1.94292
 Alpha virt. eigenvalues --    1.96513   1.98305   1.98921   2.01724   2.03778
 Alpha virt. eigenvalues --    2.03850   2.04160   2.04191   2.04367   2.07719
 Alpha virt. eigenvalues --    2.08487   2.08586   2.08718   2.09093   2.09366
 Alpha virt. eigenvalues --    2.11304   2.11677   2.11859   2.15845   2.17367
 Alpha virt. eigenvalues --    2.19509   2.20677   2.21118   2.22193   2.28619
 Alpha virt. eigenvalues --    2.29556   2.31220   2.31246   2.31867   2.33267
 Alpha virt. eigenvalues --    2.33742   2.34347   2.34741   2.35723   2.37380
 Alpha virt. eigenvalues --    2.37618   2.40242   2.40601   2.40820   2.42381
 Alpha virt. eigenvalues --    2.42908   2.44509   2.47622   2.48788   2.50720
 Alpha virt. eigenvalues --    2.51032   2.52365   2.52474   2.55415   2.55520
 Alpha virt. eigenvalues --    2.55552   2.56029   2.59522   2.59691   2.59898
 Alpha virt. eigenvalues --    2.61971   2.62030   2.62343   2.63632   2.64478
 Alpha virt. eigenvalues --    2.64983   2.66447   2.66908   2.68062   2.68743
 Alpha virt. eigenvalues --    2.70565   2.75499   2.77783   2.79084   2.79340
 Alpha virt. eigenvalues --    2.84999   2.85748   2.85890   2.87352   2.89786
 Alpha virt. eigenvalues --    2.91024   2.94979   2.95569   2.97263   2.97654
 Alpha virt. eigenvalues --    2.99967   3.10279   3.10493   3.11463   3.14067
 Alpha virt. eigenvalues --    3.14203   3.14524   3.18551   3.18772   3.19625
 Alpha virt. eigenvalues --    3.20311   3.20593   3.21583   3.23484   3.23542
 Alpha virt. eigenvalues --    3.29692   3.30087   3.30286   3.31186   3.33164
 Alpha virt. eigenvalues --    3.33258   3.34835   3.36500   3.36526   3.37156
 Alpha virt. eigenvalues --    3.37382   3.38163   3.38202   3.48857   3.49164
 Alpha virt. eigenvalues --    3.49221   3.49769   3.50294   3.50638   3.54483
 Alpha virt. eigenvalues --    3.54520   3.54696   3.55338   3.55513   3.56624
 Alpha virt. eigenvalues --    3.60024   3.60319   3.60940   3.61579   3.62481
 Alpha virt. eigenvalues --    3.63016   3.63984   3.64176   3.64412   3.64685
 Alpha virt. eigenvalues --    3.72614   3.72713   3.72898   3.73196   3.80602
 Alpha virt. eigenvalues --    3.80660   4.25724   4.25926   4.27592   4.27725
 Alpha virt. eigenvalues --    4.28117   4.28194   4.28309   4.28539   4.33215
 Alpha virt. eigenvalues --    4.33514   4.33523   4.34955   4.39938   4.40410
 Alpha virt. eigenvalues --    4.46025   4.46165   4.46365   4.46687   7.77561
 Alpha virt. eigenvalues --    7.81304   7.81821   7.82052   7.83520   7.87550
 Alpha virt. eigenvalues --   15.51860  15.53817  22.35786  22.36975  22.38022
 Alpha virt. eigenvalues --   22.38261  22.38467  22.38727  27.20251  29.01649
 Alpha virt. eigenvalues --   34.48945  52.14283 285.01305
          Condensed to atoms (all electrons):
               1          2          3          4          5          6
     1  Pt  17.823464   0.386873   0.386936  -0.043482  -0.000393   0.008522
     2  P    0.386873  13.761357  -0.047122   0.341778  -0.024172  -0.033672
     3  P    0.386936  -0.047122  13.761291   0.000543  -0.000006  -0.000047
     4  C   -0.043482   0.341778   0.000543   5.046148   0.392805   0.381958
     5  H   -0.000393  -0.024172  -0.000006   0.392805   0.509030  -0.022062
     6  H    0.008522  -0.033672  -0.000047   0.381958  -0.022062   0.552350
     7  H   -0.000032  -0.025083   0.000175   0.393265  -0.013353  -0.021134
     8  C   -0.031032   0.326270   0.001534  -0.041742  -0.000285  -0.005683
     9  H   -0.000448  -0.024671  -0.000064   0.005681  -0.000148  -0.000167
    10  H    0.005642  -0.032126  -0.000064  -0.005282  -0.000214   0.005952
    11  H   -0.000588  -0.024484  -0.000065  -0.000498   0.001463  -0.000419
    12  C   -0.047660   0.342827   0.000260  -0.038827   0.005485  -0.006120
    13  H    0.000530  -0.025234   0.000269  -0.000001  -0.000137  -0.000188
    14  H    0.008742  -0.033605  -0.000039  -0.006164  -0.000177   0.006213
    15  H    0.000006  -0.024256   0.000012   0.005456  -0.000163  -0.000171
    16  C   -0.047633   0.000263   0.342799  -0.000120   0.000034   0.000002
    17  H    0.000526   0.000268  -0.025234  -0.000053  -0.000007   0.000002
    18  H    0.008739  -0.000039  -0.033603   0.000003  -0.000000   0.000000
    19  H    0.000000   0.000012  -0.024253   0.000039  -0.000005  -0.000000
    20  C   -0.031046   0.001534   0.326298  -0.000033  -0.000000   0.000001
    21  H    0.005642  -0.000064  -0.032134   0.000001   0.000000  -0.000000
    22  H   -0.000587  -0.000065  -0.024488   0.000000   0.000000  -0.000000
    23  H   -0.000447  -0.000064  -0.024668   0.000003  -0.000000  -0.000000
    24  C   -0.043518   0.000540   0.341787   0.000080  -0.000004  -0.000001
    25  H   -0.000388  -0.000006  -0.024172  -0.000004   0.000000   0.000000
    26  H    0.008521  -0.000047  -0.033681  -0.000001   0.000000   0.000000
    27  H   -0.000023   0.000175  -0.025085  -0.000027   0.000000   0.000000
    28  H   -0.033218  -0.016385   0.007333   0.000426   0.000005  -0.000029
    29  H   -0.033321   0.007325  -0.016378   0.000655  -0.000011  -0.000041
               7          8          9         10         11         12
     1  Pt  -0.000032  -0.031032  -0.000448   0.005642  -0.000588  -0.047660
     2  P   -0.025083   0.326270  -0.024671  -0.032126  -0.024484   0.342827
     3  P    0.000175   0.001534  -0.000064  -0.000064  -0.000065   0.000260
     4  C    0.393265  -0.041742   0.005681  -0.005282  -0.000498  -0.038827
     5  H   -0.013353  -0.000285  -0.000148  -0.000214   0.001463   0.005485
     6  H   -0.021134  -0.005683  -0.000167   0.005952  -0.000419  -0.006120
     7  H    0.505776   0.005766  -0.000174  -0.000161  -0.000157   0.000071
     8  C    0.005766   5.076579   0.391326   0.380704   0.390580  -0.042772
     9  H   -0.000174   0.391326   0.512034  -0.020111  -0.015163  -0.000387
    10  H   -0.000161   0.380704  -0.020111   0.550721  -0.020052  -0.005101
    11  H   -0.000157   0.390580  -0.015163  -0.020052   0.513149   0.005773
    12  C    0.000071  -0.042772  -0.000387  -0.005101   0.005773   5.049692
    13  H    0.001486   0.005829  -0.000159  -0.000162  -0.000180   0.392851
    14  H   -0.000198  -0.005542  -0.000425   0.005866  -0.000184   0.381103
    15  H   -0.000138  -0.000170   0.001412  -0.000235  -0.000147   0.392651
    16  C   -0.000025  -0.000025   0.000000   0.000000   0.000002   0.000103
    17  H    0.000148   0.000004  -0.000000   0.000000  -0.000000  -0.000044
    18  H    0.000002   0.000001  -0.000000  -0.000000  -0.000000  -0.000002
    19  H   -0.000011  -0.000001   0.000000   0.000000  -0.000000  -0.000005
    20  C    0.000003  -0.000009  -0.000001   0.000000  -0.000000  -0.000025
    21  H    0.000000   0.000000  -0.000000  -0.000000  -0.000000   0.000000
    22  H   -0.000000  -0.000000   0.000000  -0.000000   0.000000   0.000002
    23  H   -0.000000  -0.000001   0.000000  -0.000000   0.000000   0.000000
    24  C   -0.000027  -0.000033   0.000003   0.000001   0.000000  -0.000120
    25  H    0.000000  -0.000000  -0.000000   0.000000   0.000000   0.000034
    26  H    0.000000   0.000001  -0.000000  -0.000000  -0.000000   0.000002
    27  H    0.000007   0.000003  -0.000000   0.000000  -0.000000  -0.000025
    28  H   -0.000009  -0.000549   0.000153  -0.000093   0.000151   0.000375
    29  H   -0.000030  -0.007952   0.001105   0.000300   0.001324   0.000764
              13         14         15         16         17         18
     1  Pt   0.000530   0.008742   0.000006  -0.047633   0.000526   0.008739
     2  P   -0.025234  -0.033605  -0.024256   0.000263   0.000268  -0.000039
     3  P    0.000269  -0.000039   0.000012   0.342799  -0.025234  -0.033603
     4  C   -0.000001  -0.006164   0.005456  -0.000120  -0.000053   0.000003
     5  H   -0.000137  -0.000177  -0.000163   0.000034  -0.000007  -0.000000
     6  H   -0.000188   0.006213  -0.000171   0.000002   0.000002   0.000000
     7  H    0.001486  -0.000198  -0.000138  -0.000025   0.000148   0.000002
     8  C    0.005829  -0.005542  -0.000170  -0.000025   0.000004   0.000001
     9  H   -0.000159  -0.000425   0.001412   0.000000  -0.000000  -0.000000
    10  H   -0.000162   0.005866  -0.000235   0.000000   0.000000  -0.000000
    11  H   -0.000180  -0.000184  -0.000147   0.000002  -0.000000  -0.000000
    12  C    0.392851   0.381103   0.392651   0.000103  -0.000044  -0.000002
    13  H    0.506389  -0.021013  -0.013402  -0.000044   0.000027   0.000001
    14  H   -0.021013   0.553027  -0.021983  -0.000002   0.000001   0.000000
    15  H   -0.013402  -0.021983   0.508821  -0.000005   0.000000   0.000000
    16  C   -0.000044  -0.000002  -0.000005   5.049545   0.392858   0.381114
    17  H    0.000027   0.000001   0.000000   0.392858   0.506435  -0.021015
    18  H    0.000001   0.000000   0.000000   0.381114  -0.021015   0.553001
    19  H    0.000000   0.000000   0.000000   0.392654  -0.013412  -0.021983
    20  C    0.000004   0.000001  -0.000001  -0.042754   0.005827  -0.005528
    21  H    0.000000  -0.000000   0.000000  -0.005105  -0.000162   0.005864
    22  H   -0.000000  -0.000000  -0.000000   0.005773  -0.000180  -0.000183
    23  H   -0.000000  -0.000000   0.000000  -0.000389  -0.000159  -0.000425
    24  C   -0.000053   0.000003   0.000039  -0.038840  -0.000001  -0.006163
    25  H   -0.000007  -0.000000  -0.000005   0.005486  -0.000137  -0.000176
    26  H    0.000002   0.000000  -0.000000  -0.006121  -0.000187   0.006211
    27  H    0.000148   0.000002  -0.000011   0.000070   0.001487  -0.000197
    28  H   -0.000009  -0.000027   0.000005   0.000764  -0.000032  -0.000044
    29  H   -0.000032  -0.000044  -0.000025   0.000376  -0.000009  -0.000027
              19         20         21         22         23         24
     1  Pt   0.000000  -0.031046   0.005642  -0.000587  -0.000447  -0.043518
     2  P    0.000012   0.001534  -0.000064  -0.000065  -0.000064   0.000540
     3  P   -0.024253   0.326298  -0.032134  -0.024488  -0.024668   0.341787
     4  C    0.000039  -0.000033   0.000001   0.000000   0.000003   0.000080
     5  H   -0.000005  -0.000000   0.000000   0.000000  -0.000000  -0.000004
     6  H   -0.000000   0.000001  -0.000000  -0.000000  -0.000000  -0.000001
     7  H   -0.000011   0.000003   0.000000  -0.000000  -0.000000  -0.000027
     8  C   -0.000001  -0.000009   0.000000  -0.000000  -0.000001  -0.000033
     9  H    0.000000  -0.000001  -0.000000   0.000000   0.000000   0.000003
    10  H    0.000000   0.000000  -0.000000  -0.000000  -0.000000   0.000001
    11  H   -0.000000  -0.000000  -0.000000   0.000000   0.000000   0.000000
    12  C   -0.000005  -0.000025   0.000000   0.000002   0.000000  -0.000120
    13  H    0.000000   0.000004   0.000000  -0.000000  -0.000000  -0.000053
    14  H    0.000000   0.000001  -0.000000  -0.000000  -0.000000   0.000003
    15  H    0.000000  -0.000001   0.000000  -0.000000   0.000000   0.000039
    16  C    0.392654  -0.042754  -0.005105   0.005773  -0.000389  -0.038840
    17  H   -0.013412   0.005827  -0.000162  -0.000180  -0.000159  -0.000001
    18  H   -0.021983  -0.005528   0.005864  -0.000183  -0.000425  -0.006163
    19  H    0.508883  -0.000178  -0.000235  -0.000147   0.001412   0.005458
    20  C   -0.000178   5.076575   0.380719   0.390583   0.391311  -0.041745
    21  H   -0.000235   0.380719   0.550692  -0.020053  -0.020107  -0.005279
    22  H   -0.000147   0.390583  -0.020053   0.513129  -0.015161  -0.000497
    23  H    0.001412   0.391311  -0.020107  -0.015161   0.512041   0.005682
    24  C    0.005458  -0.041745  -0.005279  -0.000497   0.005682   5.046165
    25  H   -0.000163  -0.000288  -0.000214   0.001462  -0.000148   0.392809
    26  H   -0.000171  -0.005670   0.005949  -0.000420  -0.000167   0.381966
    27  H   -0.000138   0.005766  -0.000161  -0.000157  -0.000174   0.393250
    28  H   -0.000025  -0.007960   0.000300   0.001320   0.001107   0.000656
    29  H    0.000005  -0.000552  -0.000093   0.000152   0.000153   0.000425
              25         26         27         28         29
     1  Pt  -0.000388   0.008521  -0.000023  -0.033218  -0.033321
     2  P   -0.000006  -0.000047   0.000175  -0.016385   0.007325
     3  P   -0.024172  -0.033681  -0.025085   0.007333  -0.016378
     4  C   -0.000004  -0.000001  -0.000027   0.000426   0.000655
     5  H    0.000000   0.000000   0.000000   0.000005  -0.000011
     6  H    0.000000   0.000000   0.000000  -0.000029  -0.000041
     7  H    0.000000   0.000000   0.000007  -0.000009  -0.000030
     8  C   -0.000000   0.000001   0.000003  -0.000549  -0.007952
     9  H   -0.000000  -0.000000  -0.000000   0.000153   0.001105
    10  H    0.000000  -0.000000   0.000000  -0.000093   0.000300
    11  H    0.000000  -0.000000  -0.000000   0.000151   0.001324
    12  C    0.000034   0.000002  -0.000025   0.000375   0.000764
    13  H   -0.000007   0.000002   0.000148  -0.000009  -0.000032
    14  H   -0.000000   0.000000   0.000002  -0.000027  -0.000044
    15  H   -0.000005  -0.000000  -0.000011   0.000005  -0.000025
    16  C    0.005486  -0.006121   0.000070   0.000764   0.000376
    17  H   -0.000137  -0.000187   0.001487  -0.000032  -0.000009
    18  H   -0.000176   0.006211  -0.000197  -0.000044  -0.000027
    19  H   -0.000163  -0.000171  -0.000138  -0.000025   0.000005
    20  C   -0.000288  -0.005670   0.005766  -0.007960  -0.000552
    21  H   -0.000214   0.005949  -0.000161   0.000300  -0.000093
    22  H    0.001462  -0.000420  -0.000157   0.001320   0.000152
    23  H   -0.000148  -0.000167  -0.000174   0.001107   0.000153
    24  C    0.392809   0.381966   0.393250   0.000656   0.000425
    25  H    0.509015  -0.022068  -0.013354  -0.000011   0.000005
    26  H   -0.022068   0.552323  -0.021127  -0.000041  -0.000029
    27  H   -0.013354  -0.021127   0.505829  -0.000030  -0.000009
    28  H   -0.000011  -0.000041  -0.000030   0.637714   0.393435
    29  H    0.000005  -0.000029  -0.000009   0.393435   0.637786
 Mulliken charges:
               1
     1  Pt  -0.330325
     2  P    0.141871
     3  P    0.141865
     4  C   -0.432606
     5  H    0.152317
     6  H    0.134733
     7  H    0.153834
     8  C   -0.442800
     9  H    0.150204
    10  H    0.134414
    11  H    0.149496
    12  C   -0.430904
    13  H    0.153086
    14  H    0.134443
    15  H    0.152313
    16  C   -0.430780
    17  H    0.153050
    18  H    0.134450
    19  H    0.152265
    20  C   -0.442831
    21  H    0.134439
    22  H    0.149517
    23  H    0.150200
    24  C   -0.432583
    25  H    0.152332
    26  H    0.134755
    27  H    0.153781
    28  H    0.014718
    29  H    0.014745
 Sum of Mulliken charges =  -0.00000
 Mulliken charges with hydrogens summed into heavy atoms:
               1
     1  Pt  -0.300862
     2  P    0.141871
     3  P    0.141865
     4  C    0.008279
     8  C   -0.008686
    12  C    0.008938
    16  C    0.008985
    20  C   -0.008676
    24  C    0.008286
 APT charges:
               1
     1  Pt  -0.368102
     2  P    0.094937
     3  P    0.094999
     4  C   -1.208358
     5  H    0.333247
     6  H    0.681588
     7  H    0.227701
     8  C   -1.312610
     9  H    0.333458
    10  H    0.670423
    11  H    0.341285
    12  C   -1.200522
    13  H    0.227039
    14  H    0.681658
    15  H    0.324640
    16  C   -1.202148
    17  H    0.226926
    18  H    0.681627
    19  H    0.326833
    20  C   -1.312882
    21  H    0.670470
    22  H    0.339334
    23  H    0.335568
    24  C   -1.206561
    25  H    0.331102
    26  H    0.681835
    27  H    0.227437
    28  H   -0.010784
    29  H   -0.010139
 Sum of APT charges =  -0.00000
 APT charges with hydrogens summed into heavy atoms:
               1
     1  Pt  -0.389025
     2  P    0.094937
     3  P    0.094999
     4  C    0.034177
     8  C    0.032557
    12  C    0.032814
    16  C    0.033238
    20  C    0.032489
    24  C    0.033813
 Electronic spatial extent (au):  <R**2>=           3184.1353
 Charge=             -0.0000 electrons
 Dipole moment (field-independent basis, Debye):
    X=             -0.0008    Y=              1.0496    Z=             -0.0218  Tot=              1.0498
 Quadrupole moment (field-independent basis, Debye-Ang):
   XX=            -77.5581   YY=            -91.7729   ZZ=            -92.2733
   XY=              0.0018   XZ=              0.0042   YZ=             -0.0012
 Traceless Quadrupole moment (field-independent basis, Debye-Ang):
   XX=              9.6434   YY=             -4.5715   ZZ=             -5.0719
   XY=              0.0018   XZ=              0.0042   YZ=             -0.0012
 Octapole moment (field-independent basis, Debye-Ang**2):
  XXX=              0.0302  YYY=            -38.7703  ZZZ=             -1.2167  XYY=              0.0093
  XXY=             -8.1894  XXZ=             -0.4567  XZZ=              0.0319  YZZ=            -16.8948
  YYZ=             -0.6364  XYZ=             -0.2170
 Hexadecapole moment (field-independent basis, Debye-Ang**3):
 XXXX=          -3086.4990 YYYY=           -672.0736 ZZZZ=           -540.1579 XXXY=             -0.2109
 XXXZ=              4.0164 YYYX=             -0.1465 YYYZ=              0.7662 ZZZX=              1.1979
 ZZZY=              1.2172 XXYY=           -646.8401 XXZZ=           -623.1030 YYZZ=           -206.6555
 XXYZ=              0.4051 YYXZ=              2.6329 ZZXY=             -0.1775
 N-N= 8.262593613378D+02 E-N=-4.082448849703D+03  KE= 9.608642474809D+02
  Exact polarizability:   0.000   0.000   0.000   0.000   0.000   0.000
 Approx polarizability: 287.246   0.004 239.394  -0.144  -0.128 233.392
 No NMR shielding tensors so no spin-rotation constants.
 Leave Link  601 at Sat Nov  9 17:05:34 2019, MaxMem=  5368709120 cpu:               7.6 elap:               0.4
 (Enter /share/home/wli/program/opt/Chem_soft/g16/l701.exe)
 ... and contract with generalized density number  0.
 Compute integral second derivatives.
 R6Disp: Adding Grimme-D3(BJ) dispersion energy 2nd derivatives to the Hessian.
   1 Symmetry operations used in ECPInt.
 ECPInt:  NShTT=   17391 NPrTT=   50365 LenC2=   15924 LenP2D=   34696.
 LDataN:  DoStor=T MaxTD1=10 Len=  848
 D2PCM: PCM CHGder 2nd derivatives, FixD1E=F FixD2E=F DoIter=F DoCFld=F I1PDM=0
 GePol: Maximum number of non-zero 2nd derivatives   =     237
 Leave Link  701 at Sat Nov  9 17:05:51 2019, MaxMem=  5368709120 cpu:             393.9 elap:              16.5
 (Enter /share/home/wli/program/opt/Chem_soft/g16/l702.exe)
 L702 exits ... SP integral derivatives will be done elsewhere.
 Leave Link  702 at Sat Nov  9 17:05:51 2019, MaxMem=  5368709120 cpu:               0.5 elap:               0.0
 (Enter /share/home/wli/program/opt/Chem_soft/g16/l703.exe)
 Integral derivatives from FoFJK, PRISM(SPDF).
 Compute integral second derivatives, UseDBF=F ICtDFT=           0.
 Calling FoFJK, ICntrl=    100147 FMM=F ISym2X=0 I1Cent= 0 IOpClX= 0 NMat=1 NMatS=1 NMatT=0.
 FoFJK:  IHMeth= 1 ICntrl=  100147 DoSepK=F KAlg= 0 I1Cent=           0 FoldK=F
 IRaf=         0 NMat=       1 IRICut=       1 DoRegI=T DoRafI=F ISym2E= 0 IDoP0=0 IntGTp=1.
 FoFCou: FMM=F IPFlag=           0 FMFlag=      100000 FMFlg1=         800
         NFxFlg=           0 DoJE=F BraDBF=F KetDBF=F FulRan=T
         wScrn=  0.000000 ICntrl=    100147 IOpCl=  0 I1Cent=           0 NGrid=           0
         NMat0=    1 NMatS0=      1 NMatT0=    0 NMatD0=    1 NMtDS0=    0 NMtDT0=    0
 Symmetry not used in FoFCou.
 Defaulting to unpruned grid for atomic number  78.
 Defaulting to unpruned grid for atomic number  78.
 Defaulting to unpruned grid for atomic number  78.
 Defaulting to unpruned grid for atomic number  78.
 Defaulting to unpruned grid for atomic number  78.
 Defaulting to unpruned grid for atomic number  78.
 Defaulting to unpruned grid for atomic number  78.
 Defaulting to unpruned grid for atomic number  78.
 Defaulting to unpruned grid for atomic number  78.
 Defaulting to unpruned grid for atomic number  78.
 Defaulting to unpruned grid for atomic number  78.
 Defaulting to unpruned grid for atomic number  78.
 Defaulting to unpruned grid for atomic number  78.
 Defaulting to unpruned grid for atomic number  78.
 Defaulting to unpruned grid for atomic number  78.
 Defaulting to unpruned grid for atomic number  78.
 Defaulting to unpruned grid for atomic number  78.
 Defaulting to unpruned grid for atomic number  78.
 Defaulting to unpruned grid for atomic number  78.
 Defaulting to unpruned grid for atomic number  78.
 Defaulting to unpruned grid for atomic number  78.
 Defaulting to unpruned grid for atomic number  78.
 Defaulting to unpruned grid for atomic number  78.
 Defaulting to unpruned grid for atomic number  78.
 Leave Link  703 at Sat Nov  9 17:08:12 2019, MaxMem=  5368709120 cpu:            3378.0 elap:             141.0
 (Enter /share/home/wli/program/opt/Chem_soft/g16/l716.exe)
 Dipole        =-3.33910776D-04 4.12926845D-01-8.59592534D-03
 Polarizability= 0.00000000D+00 0.00000000D+00 0.00000000D+00
                 0.00000000D+00 0.00000000D+00 0.00000000D+00
 -------------------------------------------------------------------
 Center     Atomic                   Forces (Hartrees/Bohr)
 Number     Number              X              Y              Z
 -------------------------------------------------------------------
      1       78          -0.000001383   -0.000014956   -0.000025593
      2       15          -0.000014328   -0.000016108    0.000012056
      3       15          -0.000007402    0.000004774    0.000017382
      4        6           0.000007055   -0.000005650    0.000003504
      5        1           0.000001510    0.000006423   -0.000001384
      6        1           0.000003473   -0.000000246   -0.000001018
      7        1           0.000000690    0.000003679   -0.000001689
      8        6          -0.000006162    0.000002611   -0.000010325
      9        1          -0.000001526   -0.000002514    0.000000297
     10        1           0.000000548   -0.000000440   -0.000001660
     11        1           0.000000049    0.000001752   -0.000002494
     12        6           0.000013120   -0.000004669    0.000006859
     13        1          -0.000002552    0.000003308    0.000001320
     14        1          -0.000000085    0.000001711   -0.000004565
     15        1          -0.000006159    0.000003974   -0.000003398
     16        6           0.000011126   -0.000004123    0.000001398
     17        1           0.000000542   -0.000004709    0.000003700
     18        1           0.000001769   -0.000001894    0.000001274
     19        1          -0.000002976   -0.000001896   -0.000001504
     20        6          -0.000000882    0.000008015    0.000003758
     21        1           0.000000667   -0.000000138    0.000002743
     22        1          -0.000001202    0.000001267    0.000002168
     23        1          -0.000000869    0.000000586    0.000004519
     24        6           0.000000631    0.000003618   -0.000000120
     25        1          -0.000002506   -0.000004001    0.000002788
     26        1           0.000001220    0.000002332    0.000003681
     27        1           0.000002130    0.000000555   -0.000000832
     28        1           0.000004148    0.000008867   -0.000006580
     29        1          -0.000000648    0.000007872   -0.000006286
 -------------------------------------------------------------------
 Cartesian Forces:  Max     0.000025593 RMS     0.000006056
 Leave Link  716 at Sat Nov  9 17:08:12 2019, MaxMem=  5368709120 cpu:               0.5 elap:               0.0
 (Enter /share/home/wli/program/opt/Chem_soft/g16/l123.exe)
 IRC-IRC-IRC-IRC-IRC-IRC-IRC-IRC-IRC-IRC-IRC-IRC-IRC-IRC-IRC-IRC-IRC-IRC
          ******** Start new reaction path calculation ********
 Current Structure is TS -> form Hessian eigenvectors.
                            Diagonalizing Hessian.
 Supplied step size of   0.1000 bohr.
    Integration on MW PES will use step size of   0.1237 sqrt(amu)*bohr.
 Point Number:   0          Path Number:   1
 Calculating another point on the path.
 Point Number  1 in FORWARD path direction.
 Using LQA Reaction Path Following.
 IRC-IRC-IRC-IRC-IRC-IRC-IRC-IRC-IRC-IRC-IRC-IRC-IRC-IRC-IRC-IRC-IRC-IRC
 Leave Link  123 at Sat Nov  9 17:08:12 2019, MaxMem=  5368709120 cpu:               1.3 elap:               0.1
 (Enter /share/home/wli/program/opt/Chem_soft/g16/l202.exe)
                          Input orientation:                          
 ---------------------------------------------------------------------
 Center     Atomic      Atomic             Coordinates (Angstroms)
 Number     Number       Type             X           Y           Z
 ---------------------------------------------------------------------
      1         78           0        0.000068   -0.321899    0.006566
      2         15           0        2.160980    0.279511   -0.010914
      3         15           0       -2.161083    0.278685   -0.000392
      4          6           0        2.683863    1.262161    1.433069
      5          1           0        2.552444    0.669874    2.340805
      6          1           0        3.730805    1.569678    1.351848
      7          1           0        2.049573    2.146613    1.513086
      8          6           0        3.488925   -0.975761   -0.082870
      9          1           0        3.364157   -1.577834   -0.985825
     10          1           0        4.486224   -0.525530   -0.087774
     11          1           0        3.400821   -1.640628    0.779482
     12          6           0        2.631120    1.365866   -1.397764
     13          1           0        1.996482    2.253602   -1.387785
     14          1           0        3.681398    1.666392   -1.334952
     15          1           0        2.462828    0.841861   -2.340730
     16          6           0       -2.632309    1.418903    1.342134
     17          1           0       -1.998055    2.305835    1.297234
     18          1           0       -3.682696    1.716220    1.267080
     19          1           0       -2.464145    0.932742    2.305182
     20          6           0       -3.488500   -0.973387    0.120644
     21          1           0       -4.486004   -0.523780    0.107335
     22          1           0       -3.399742   -1.671819   -0.714689
     23          1           0       -3.363842   -1.539204    1.046762
     24          6           0       -2.683830    1.203129   -1.482368
     25          1           0       -2.551607    0.575513   -2.365923
     26          1           0       -3.731004    1.512938   -1.413838
     27          1           0       -2.050065    2.084142   -1.596990
     28          1           0       -0.386166   -2.491281    0.053393
     29          1           0        0.387303   -2.492132    0.043180
 ---------------------------------------------------------------------
                    Distance matrix (angstroms):
                    1          2          3          4          5
     1  Pt   0.000000
     2  P    2.243109   0.000000
     3  P    2.243061   4.322076   0.000000
     4  C    3.427377   1.823210   5.147381   0.000000
     5  H    3.598181   2.415824   5.277458   1.091814   0.000000
     6  H    4.393887   2.446630   6.181388   1.094190   1.782194
     7  H    3.544521   2.412686   4.848649   1.091321   1.766000
     8  C    3.550726   1.828749   5.788180   2.820371   3.075599
     9  H    3.725493   2.418226   5.911515   3.792020   4.096038
    10  H    4.491766   2.461861   6.696349   2.959276   3.326634
    11  H    3.728481   2.418443   5.935212   3.060619   2.914771
    12  C    3.426825   1.823336   5.108799   2.833223   3.803615
    13  H    3.544446   2.412441   4.807339   3.068007   4.088969
    14  H    4.393764   2.447077   6.151533   2.969920   3.972250
    15  H    3.595737   2.415657   5.212955   3.803561   4.685550
    16  C    3.426886   5.109263   1.823328   5.319259   5.332921
    17  H    3.544476   4.807787   2.412415   4.798756   4.946964
    18  H    4.393811   6.151906   2.447100   6.384888   6.412854
    19  H    3.595846   5.213711   2.415638   5.231737   5.023597
    20  C    3.550712   5.788236   1.828762   6.694639   6.642471
    21  H    4.491743   6.696391   2.461872   7.506940   7.480170
    22  H    3.728431   5.935033   2.418463   7.087407   7.088588
    23  H    3.725551   5.911857   2.418240   6.676197   6.446473
    24  C    3.427236   5.146886   1.823215   6.108632   6.505350
    25  H    3.597929   5.276567   2.415854   6.504919   6.943596
    26  H    4.393754   6.181020   2.446602   7.022698   7.368162
    27  H    3.544499   4.848220   2.412700   5.680404   6.220086
    28  H    2.203993   3.764223   3.290279   5.041518   4.884729
    29  H    2.204813   3.291027   3.764783   4.615267   4.468243
                    6          7          8          9         10
     6  H    0.000000
     7  H    1.784766   0.000000
     8  C    2.931925   3.790518   0.000000
     9  H    3.937763   4.673777   1.092422   0.000000
    10  H    2.651994   3.954791   1.094229   1.781256   0.000000
    11  H    3.277584   4.087449   1.092457   1.766804   1.781482
    12  C    2.968369   3.069334   2.819219   3.061438   2.955480
    13  H    3.313792   2.903329   3.789324   4.088032   3.951255
    14  H    2.688994   3.317346   2.930141   3.278342   2.647210
    15  H    3.971476   4.089628   3.074827   2.916005   3.322605
    16  C    6.364907   4.741182   6.725664   7.096296   7.516580
    17  H    5.776222   4.056506   6.540681   7.003467   7.209768
    18  H    7.415433   5.753666   7.778256   8.098426   8.578597
    19  H    6.300153   4.740733   6.692101   7.148623   7.494026
    20  C    7.752510   6.507192   6.980392   6.967677   7.990008
    21  H    8.570142   7.198674   7.989991   7.995689   8.974349
    22  H    8.100776   7.017011   6.952512   6.769983   7.993463
    23  H    7.751918   6.565651   6.968066   7.028432   7.996139
    24  C    7.022441   5.680494   6.693957   6.675212   7.506186
    25  H    7.367420   6.219801   6.641295   6.444985   7.478858
[...]
 Alpha virt. eigenvalues --    0.70902   0.72568   0.73356   0.74262   0.75372
 Alpha virt. eigenvalues --    0.75772   0.76671   0.76682   0.77109   0.78662
 Alpha virt. eigenvalues --    0.81346   0.81936   0.84046   0.85532   0.85601
 Alpha virt. eigenvalues --    0.87603   0.91267   0.91593   0.91952   0.92320
 Alpha virt. eigenvalues --    0.93333   0.95468   0.96204   0.99521   1.00384
 Alpha virt. eigenvalues --    1.01439   1.02728   1.04072   1.04368   1.05480
 Alpha virt. eigenvalues --    1.06878   1.06979   1.07276   1.07395   1.07875
 Alpha virt. eigenvalues --    1.08724   1.09685   1.10357   1.11523   1.19870
 Alpha virt. eigenvalues --    1.23358   1.28430   1.30039   1.32590   1.33194
 Alpha virt. eigenvalues --    1.38570   1.39490   1.40211   1.43004   1.43085
 Alpha virt. eigenvalues --    1.43373   1.44453   1.45902   1.48721   1.50881
 Alpha virt. eigenvalues --    1.51474   1.51482   1.51744   1.52232   1.53189
 Alpha virt. eigenvalues --    1.53350   1.53812   1.54144   1.55039   1.55444
 Alpha virt. eigenvalues --    1.55449   1.55905   1.56267   1.56455   1.58382
 Alpha virt. eigenvalues --    1.58543   1.59577   1.59869   1.60341   1.60517
 Alpha virt. eigenvalues --    1.61352   1.61566   1.62057   1.62104   1.62765
 Alpha virt. eigenvalues --    1.63092   1.63911   1.64352   1.64679   1.64946
 Alpha virt. eigenvalues --    1.65269   1.65355   1.66352   1.66583   1.66989
 Alpha virt. eigenvalues --    1.67458   1.67550   1.68693   1.68910   1.75950
 Alpha virt. eigenvalues --    1.79938   1.86172   1.86705   1.87218   1.88766
 Alpha virt. eigenvalues --    1.89239   1.91779   1.92881   1.94814   1.95221
 Alpha virt. eigenvalues --    1.96532   1.97809   2.01762   2.03049   2.03271
 Alpha virt. eigenvalues --    2.03760   2.04513   2.05127   2.07968   2.08169
 Alpha virt. eigenvalues --    2.08336   2.08672   2.09168   2.09348   2.11724
 Alpha virt. eigenvalues --    2.12055   2.15772   2.15824   2.16132   2.18601
 Alpha virt. eigenvalues --    2.19644   2.22279   2.25312   2.27197   2.29679
 Alpha virt. eigenvalues --    2.30787   2.31400   2.31562   2.31838   2.32903
 Alpha virt. eigenvalues --    2.33660   2.33799   2.33972   2.35919   2.37229
 Alpha virt. eigenvalues --    2.37652   2.39957   2.40913   2.41809   2.42100
 Alpha virt. eigenvalues --    2.43807   2.46096   2.49029   2.50730   2.52025
 Alpha virt. eigenvalues --    2.52202   2.53612   2.55357   2.55444   2.55706
 Alpha virt. eigenvalues --    2.56252   2.59492   2.59715   2.60214   2.62294
 Alpha virt. eigenvalues --    2.62311   2.62685   2.62986   2.64457   2.64932
 Alpha virt. eigenvalues --    2.66018   2.66277   2.67240   2.67975   2.71514
 Alpha virt. eigenvalues --    2.73166   2.75017   2.79078   2.79277   2.85165
 Alpha virt. eigenvalues --    2.85398   2.85856   2.86439   2.87708   2.90419
 Alpha virt. eigenvalues --    2.90829   2.94849   2.96574   2.97613   2.98980
 Alpha virt. eigenvalues --    3.04300   3.05056   3.10312   3.10542   3.11482
 Alpha virt. eigenvalues --    3.13824   3.14526   3.14909   3.16943   3.18514
 Alpha virt. eigenvalues --    3.19113   3.20142   3.20975   3.22126   3.23480
 Alpha virt. eigenvalues --    3.23493   3.29664   3.30095   3.30504   3.31477
 Alpha virt. eigenvalues --    3.33135   3.33555   3.36504   3.36521   3.37458
 Alpha virt. eigenvalues --    3.37466   3.37927   3.38034   3.48899   3.49599
 Alpha virt. eigenvalues --    3.49645   3.49823   3.50657   3.50834   3.54559
 Alpha virt. eigenvalues --    3.54606   3.54777   3.54904   3.55700   3.56527
 Alpha virt. eigenvalues --    3.60262   3.60338   3.60995   3.61391   3.62096
 Alpha virt. eigenvalues --    3.63278   3.63449   3.63979   3.64463   3.64950
 Alpha virt. eigenvalues --    3.72455   3.72594   3.72766   3.73057   3.80756
 Alpha virt. eigenvalues --    3.80798   4.25259   4.25761   4.27417   4.27710
 Alpha virt. eigenvalues --    4.28064   4.28231   4.28394   4.28552   4.32912
 Alpha virt. eigenvalues --    4.33462   4.34016   4.35036   4.39892   4.40412
 Alpha virt. eigenvalues --    4.45592   4.46374   4.46396   4.46879   7.77771
 Alpha virt. eigenvalues --    7.79051   7.81909   7.82430   7.84410   7.85146
 Alpha virt. eigenvalues --   15.50635  15.53471  22.36120  22.37302  22.37737
 Alpha virt. eigenvalues --   22.37783  22.38516  22.38792  27.16177  30.62066
 Alpha virt. eigenvalues --   34.27750  52.07534 284.96873
          Condensed to atoms (all electrons):
               1          2          3          4          5          6
     1  Pt  17.583994   0.351146   0.351138  -0.039863  -0.000037   0.007118
     2  P    0.351146  13.845791  -0.042511   0.330609  -0.024062  -0.033275
     3  P    0.351138  -0.042511  13.845938  -0.000550  -0.000007  -0.000024
     4  C   -0.039863   0.330609  -0.000550   5.049354   0.393126   0.382633
     5  H   -0.000037  -0.024062  -0.000007   0.393126   0.507962  -0.021724
     6  H    0.007118  -0.033275  -0.000024   0.382633  -0.021724   0.550775
     7  H    0.000884  -0.024828   0.000364   0.391288  -0.013540  -0.020635
     8  C   -0.035913   0.337901   0.001958  -0.048321  -0.000435  -0.004442
     9  H    0.000106  -0.025132  -0.000070   0.005863  -0.000147  -0.000154
    10  H    0.005692  -0.032768  -0.000091  -0.004893  -0.000144   0.005826
    11  H    0.000110  -0.025047  -0.000078   0.000032   0.001405  -0.000441
    12  C   -0.044230   0.328908  -0.001099  -0.028981   0.005340  -0.007706
    13  H    0.001522  -0.024697   0.000505  -0.000742  -0.000138  -0.000018
    14  H    0.007281  -0.033085  -0.000009  -0.007774  -0.000141   0.006646
    15  H    0.000390  -0.024005   0.000018   0.005323  -0.000160  -0.000140
    16  C   -0.044108  -0.001079   0.329035   0.000213   0.000031  -0.000007
    17  H    0.001503   0.000502  -0.024722  -0.000110  -0.000005   0.000005
    18  H    0.007276  -0.000009  -0.033087  -0.000006  -0.000000   0.000000
    19  H    0.000370   0.000017  -0.024017   0.000035  -0.000003   0.000000
    20  C   -0.035891   0.001956   0.337949  -0.000059   0.000000   0.000001
    21  H    0.005690  -0.000091  -0.032785   0.000001  -0.000000  -0.000000
    22  H    0.000112  -0.000077  -0.025049   0.000001   0.000000  -0.000000
    23  H    0.000099  -0.000070  -0.025125   0.000005  -0.000000  -0.000000
    24  C   -0.040031  -0.000575   0.330449   0.000151  -0.000003  -0.000002
    25  H   -0.000017  -0.000006  -0.024053  -0.000003   0.000000   0.000000
    26  H    0.007122  -0.000023  -0.033284  -0.000002   0.000000   0.000000
    27  H    0.000922   0.000369  -0.024808  -0.000039   0.000000   0.000001
    28  H    0.069521  -0.035446   0.015025   0.000916  -0.000011  -0.000056
    29  H    0.069572   0.015059  -0.035467   0.001313  -0.000038  -0.000054
               7          8          9         10         11         12
     1  Pt   0.000884  -0.035913   0.000106   0.005692   0.000110  -0.044230
     2  P   -0.024828   0.337901  -0.025132  -0.032768  -0.025047   0.328908
     3  P    0.000364   0.001958  -0.000070  -0.000091  -0.000078  -0.001099
     4  C    0.391288  -0.048321   0.005863  -0.004893   0.000032  -0.028981
     5  H   -0.013540  -0.000435  -0.000147  -0.000144   0.001405   0.005340
     6  H   -0.020635  -0.004442  -0.000154   0.005826  -0.000441  -0.007706
     7  H    0.509720   0.006125  -0.000181  -0.000194  -0.000162  -0.000579
     8  C    0.006125   5.084061   0.391803   0.377442   0.390943  -0.050428
     9  H   -0.000181   0.391803   0.511441  -0.020343  -0.015043   0.000119
    10  H   -0.000194   0.377442  -0.020343   0.556615  -0.020121  -0.004542
    11  H   -0.000162   0.390943  -0.015043  -0.020121   0.512353   0.005980
    12  C   -0.000579  -0.050428   0.000119  -0.004542   0.005980   5.056867
    13  H    0.001569   0.006234  -0.000168  -0.000197  -0.000188   0.390522
    14  H   -0.000032  -0.004156  -0.000431   0.005716  -0.000173   0.381339
    15  H   -0.000143  -0.000343   0.001363  -0.000187  -0.000139   0.392642
    16  C   -0.000082  -0.000052   0.000001   0.000001   0.000004   0.000213
    17  H    0.000171   0.000007  -0.000000   0.000000  -0.000000  -0.000065
    18  H    0.000006   0.000001  -0.000000  -0.000000  -0.000000  -0.000005
    19  H   -0.000007  -0.000000   0.000000   0.000000  -0.000000  -0.000005
    20  C    0.000007   0.000008  -0.000002   0.000000  -0.000002  -0.000051
    21  H    0.000000   0.000000  -0.000000  -0.000000  -0.000000   0.000001
    22  H   -0.000000  -0.000002   0.000000  -0.000000   0.000000   0.000004
    23  H   -0.000001  -0.000002   0.000000  -0.000000   0.000000   0.000001
    24  C   -0.000039  -0.000059   0.000005   0.000001   0.000001   0.000218
    25  H    0.000000   0.000000  -0.000000  -0.000000   0.000000   0.000030
    26  H    0.000001   0.000001  -0.000000  -0.000000  -0.000000  -0.000007
    27  H    0.000011   0.000007  -0.000001   0.000000  -0.000000  -0.000083
    28  H   -0.000023  -0.000543   0.000181  -0.000140   0.000160   0.000809
    29  H   -0.000076  -0.012148   0.001131   0.000819   0.001480   0.001605
              13         14         15         16         17         18
     1  Pt   0.001522   0.007281   0.000390  -0.044108   0.001503   0.007276
     2  P   -0.024697  -0.033085  -0.024005  -0.001079   0.000502  -0.000009
     3  P    0.000505  -0.000009   0.000018   0.329035  -0.024722  -0.033087
     4  C   -0.000742  -0.007774   0.005323   0.000213  -0.000110  -0.000006
     5  H   -0.000138  -0.000141  -0.000160   0.000031  -0.000005  -0.000000
     6  H   -0.000018   0.006646  -0.000140  -0.000007   0.000005   0.000000
     7  H    0.001569  -0.000032  -0.000143  -0.000082   0.000171   0.000006
     8  C    0.006234  -0.004156  -0.000343  -0.000052   0.000007   0.000001
     9  H   -0.000168  -0.000431   0.001363   0.000001  -0.000000  -0.000000
    10  H   -0.000197   0.005716  -0.000187   0.000001   0.000000  -0.000000
    11  H   -0.000188  -0.000173  -0.000139   0.000004  -0.000000  -0.000000
    12  C    0.390522   0.381339   0.392642   0.000213  -0.000065  -0.000005
    13  H    0.510522  -0.020384  -0.013655  -0.000065   0.000035   0.000002
    14  H   -0.020384   0.551796  -0.021731  -0.000005   0.000002   0.000000
    15  H   -0.013655  -0.021731   0.508579  -0.000005   0.000000   0.000000
    16  C   -0.000065  -0.000005  -0.000005   5.056433   0.390558   0.381393
    17  H    0.000035   0.000002   0.000000   0.390558   0.510527  -0.020390
    18  H    0.000002   0.000000   0.000000   0.381393  -0.020390   0.551714
    19  H    0.000000   0.000000   0.000000   0.392671  -0.013664  -0.021731
    20  C    0.000007   0.000001  -0.000000  -0.050321   0.006230  -0.004152
    21  H    0.000000  -0.000000   0.000000  -0.004559  -0.000197   0.005718
    22  H   -0.000000  -0.000000  -0.000000   0.005975  -0.000188  -0.000172
    23  H   -0.000000  -0.000000   0.000000   0.000117  -0.000168  -0.000433
    24  C   -0.000111  -0.000006   0.000035  -0.028969  -0.000725  -0.007783
    25  H   -0.000005  -0.000000  -0.000003   0.005337  -0.000138  -0.000140
    26  H    0.000005   0.000000   0.000000  -0.007716  -0.000019   0.006652
    27  H    0.000171   0.000006  -0.000007  -0.000584   0.001565  -0.000031
    28  H   -0.000023  -0.000051  -0.000004   0.001593  -0.000080  -0.000063
    29  H   -0.000080  -0.000063  -0.000062   0.000815  -0.000023  -0.000052
              19         20         21         22         23         24
     1  Pt   0.000370  -0.035891   0.005690   0.000112   0.000099  -0.040031
     2  P    0.000017   0.001956  -0.000091  -0.000077  -0.000070  -0.000575
     3  P   -0.024017   0.337949  -0.032785  -0.025049  -0.025125   0.330449
     4  C    0.000035  -0.000059   0.000001   0.000001   0.000005   0.000151
     5  H   -0.000003   0.000000  -0.000000   0.000000  -0.000000  -0.000003
     6  H    0.000000   0.000001  -0.000000  -0.000000  -0.000000  -0.000002
     7  H   -0.000007   0.000007   0.000000  -0.000000  -0.000001  -0.000039
     8  C   -0.000000   0.000008   0.000000  -0.000002  -0.000002  -0.000059
     9  H    0.000000  -0.000002  -0.000000   0.000000   0.000000   0.000005
    10  H    0.000000   0.000000  -0.000000  -0.000000  -0.000000   0.000001
    11  H   -0.000000  -0.000002  -0.000000   0.000000   0.000000   0.000001
    12  C   -0.000005  -0.000051   0.000001   0.000004   0.000001   0.000218
    13  H    0.000000   0.000007   0.000000  -0.000000  -0.000000  -0.000111
    14  H    0.000000   0.000001  -0.000000  -0.000000  -0.000000  -0.000006
    15  H    0.000000  -0.000000   0.000000  -0.000000   0.000000   0.000035
    16  C    0.392671  -0.050321  -0.004559   0.005975   0.000117  -0.028969
    17  H   -0.013664   0.006230  -0.000197  -0.000188  -0.000168  -0.000725
    18  H   -0.021731  -0.004152   0.005718  -0.000172  -0.000433  -0.007783
    19  H    0.508611  -0.000356  -0.000185  -0.000139   0.001367   0.005324
    20  C   -0.000356   5.083997   0.377467   0.390988   0.391749  -0.048439
    21  H   -0.000185   0.377467   0.556602  -0.020129  -0.020340  -0.004880
    22  H   -0.000139   0.390988  -0.020129   0.512266  -0.015036   0.000035
    23  H    0.001367   0.391749  -0.020340  -0.015036   0.511499   0.005870
    24  C    0.005324  -0.048439  -0.004880   0.000035   0.005870   5.049710
    25  H   -0.000160  -0.000434  -0.000146   0.001405  -0.000146   0.393079
    26  H   -0.000140  -0.004415   0.005820  -0.000440  -0.000156   0.382576
    27  H   -0.000143   0.006131  -0.000194  -0.000163  -0.000182   0.391263
    28  H   -0.000062  -0.012147   0.000819   0.001462   0.001149   0.001334
    29  H   -0.000005  -0.000544  -0.000140   0.000162   0.000180   0.000911
              25         26         27         28         29
     1  Pt  -0.000017   0.007122   0.000922   0.069521   0.069572
     2  P   -0.000006  -0.000023   0.000369  -0.035446   0.015059
     3  P   -0.024053  -0.033284  -0.024808   0.015025  -0.035467
     4  C   -0.000003  -0.000002  -0.000039   0.000916   0.001313
     5  H    0.000000   0.000000   0.000000  -0.000011  -0.000038
     6  H    0.000000   0.000000   0.000001  -0.000056  -0.000054
     7  H    0.000000   0.000001   0.000011  -0.000023  -0.000076
     8  C    0.000000   0.000001   0.000007  -0.000543  -0.012148
     9  H   -0.000000  -0.000000  -0.000001   0.000181   0.001131
    10  H   -0.000000  -0.000000   0.000000  -0.000140   0.000819
    11  H    0.000000  -0.000000  -0.000000   0.000160   0.001480
    12  C    0.000030  -0.000007  -0.000083   0.000809   0.001605
    13  H   -0.000005   0.000005   0.000171  -0.000023  -0.000080
    14  H   -0.000000   0.000000   0.000006  -0.000051  -0.000063
    15  H   -0.000003   0.000000  -0.000007  -0.000004  -0.000062
    16  C    0.005337  -0.007716  -0.000584   0.001593   0.000815
    17  H   -0.000138  -0.000019   0.001565  -0.000080  -0.000023
    18  H   -0.000140   0.006652  -0.000031  -0.000063  -0.000052
    19  H   -0.000160  -0.000140  -0.000143  -0.000062  -0.000005
    20  C   -0.000434  -0.004415   0.006131  -0.012147  -0.000544
    21  H   -0.000146   0.005820  -0.000194   0.000819  -0.000140
    22  H    0.001405  -0.000440  -0.000163   0.001462   0.000162
    23  H   -0.000146  -0.000156  -0.000182   0.001149   0.000180
    24  C    0.393079   0.382576   0.391263   0.001334   0.000911
    25  H    0.508034  -0.021722  -0.013540  -0.000041  -0.000011
    26  H   -0.021722   0.550826  -0.020621  -0.000054  -0.000056
    27  H   -0.013540  -0.020621   0.509710  -0.000076  -0.000023
    28  H   -0.000041  -0.000054  -0.000076   0.690680   0.273699
    29  H   -0.000011  -0.000056  -0.000023   0.273699   0.690681
 Mulliken charges:
               1
     1  Pt  -0.231478
     2  P    0.114527
     3  P    0.114456
     4  C   -0.429520
     5  H    0.152732
     6  H    0.135674
     7  H    0.150374
     8  C   -0.439649
     9  H    0.149659
    10  H    0.131509
    11  H    0.148925
    12  C   -0.426816
    13  H    0.149376
    14  H    0.135256
    15  H    0.152235
    16  C   -0.426839
    17  H    0.149388
    18  H    0.135292
    19  H    0.152222
    20  C   -0.439679
    21  H    0.131528
    22  H    0.148984
    23  H    0.149622
    24  C   -0.429338
    25  H    0.152680
    26  H    0.135652
    27  H    0.150338
    28  H   -0.008527
    29  H   -0.008584
 Sum of Mulliken charges =  -0.00000
 Mulliken charges with hydrogens summed into heavy atoms:
               1
     1  Pt  -0.248589
     2  P    0.114527
     3  P    0.114456
     4  C    0.009261
     8  C   -0.009557
    12  C    0.010050
    16  C    0.010063
    20  C   -0.009544
    24  C    0.009333
 APT charges:
               1
     1  Pt  -0.382465
     2  P    0.049691
     3  P    0.049723
     4  C   -1.221213
     5  H    0.316478
     6  H    0.685078
     7  H    0.254743
     8  C   -1.276406
     9  H    0.317696
    10  H    0.669858
    11  H    0.322820
    12  C   -1.219714
    13  H    0.253908
    14  H    0.684380
    15  H    0.314169
    16  C   -1.219492
    17  H    0.253834
    18  H    0.684430
    19  H    0.314041
    20  C   -1.276497
    21  H    0.669869
    22  H    0.322895
    23  H    0.317695
    24  C   -1.221308
    25  H    0.317091
    26  H    0.684992
    27  H    0.254219
    28  H    0.039871
    29  H    0.039614
 Sum of APT charges =  -0.00000
 APT charges with hydrogens summed into heavy atoms:
               1
     1  Pt  -0.302980
     2  P    0.049691
     3  P    0.049723
     4  C    0.035085
     8  C    0.033969
    12  C    0.032742
    16  C    0.032814
    20  C    0.033962
    24  C    0.034993
 Electronic spatial extent (au):  <R**2>=           3168.7350
 Charge=             -0.0000 electrons
 Dipole moment (field-independent basis, Debye):
    X=             -0.0012    Y=              1.5435    Z=             -0.0280  Tot=              1.5438
 Quadrupole moment (field-independent basis, Debye-Ang):
   XX=            -79.1815   YY=            -92.2032   ZZ=            -92.1944
   XY=              0.0012   XZ=              0.0288   YZ=             -0.0005
 Traceless Quadrupole moment (field-independent basis, Debye-Ang):
   XX=              8.6782   YY=             -4.3435   ZZ=             -4.3347
   XY=              0.0012   XZ=              0.0288   YZ=             -0.0005
 Octapole moment (field-independent basis, Debye-Ang**2):
  XXX=             -0.0101  YYY=            -66.9633  ZZZ=              1.5826  XYY=             -0.0112
  XXY=            -14.7077  XXZ=              0.3007  XZZ=              0.0104  YZZ=            -26.2335
  YYZ=              0.3096  XYZ=             -0.2158
 Hexadecapole moment (field-independent basis, Debye-Ang**3):
 XXXX=          -3038.0910 YYYY=           -711.0628 ZZZZ=           -540.5395 XXXY=             -0.0076
 XXXZ=              5.3056 YYYX=              0.0868 YYYZ=              1.4362 ZZZX=              2.2097
 ZZZY=              2.2518 XXYY=           -645.3951 XXZZ=           -613.6475 YYZZ=           -215.5161
 XXYZ=              0.6871 YYXZ=              2.9785 ZZXY=             -0.0895
 N-N= 8.287476080874D+02 E-N=-4.086890604511D+03  KE= 9.607687070034D+02
  Exact polarizability:   0.000   0.000   0.000   0.000   0.000   0.000
 Approx polarizability: 279.106   0.007 241.247  -0.193  -0.303 227.610
 No NMR shielding tensors so no spin-rotation constants.
 Leave Link  601 at Sat Nov  9 18:17:17 2019, MaxMem=  5368709120 cpu:               7.5 elap:               0.4
 (Enter /share/home/wli/program/opt/Chem_soft/g16/l9999.exe)

 This type of calculation cannot be archived.


 FORGIVE MY NONSENSE AS I ALSO FORGIVE THOSE WHO THINK THEY TALK SENSE

                                                       -- ROBERT FROST
 Job cpu time:       1 days  6 hours 38 minutes 30.1 seconds.
 Elapsed time:       0 days  1 hours 18 minutes 17.1 seconds.
 File lengths (MBytes):  RWF=   1712 Int=      0 D2E=      0 Chk=   1072 Scr=     32
 Normal termination of Gaussian 16 at Sat Nov  9 18:17:17 2019.
