 Entering Gaussian System, Link 0=g16
 Input=Pt_P.gjf
 Output=Pt_P.log
 Initial command:
 /share/home/wli/program/opt/Chem_soft/g16/l1.exe "/scratch/wli/Gau-1671.inp" -scrdir="/scratch/wli/"
 Entering Link 1 = /share/home/wli/program/opt/Chem_soft/g16/l1.exe PID=      1673.
  
 Copyright (c) 1988,1990,1992,1993,1995,1998,2003,2009,2016,
            Gaussian, Inc.  All Rights Reserved.
  
 This is part of the Gaussian(R) 16 program.  It is based on
 the Gaussian(R) 09 system (copyright 2009, Gaussian, Inc.),
 the Gaussian(R) 03 system (copyright 2003, Gaussian, Inc.),
 the Gaussian(R) 98 system (copyright 1998, Gaussian, Inc.),
 the Gaussian(R) 94 system (copyright 1995, Gaussian, Inc.),
 the Gaussian 92(TM) system (copyright 1992, Gaussian, Inc.),
 the Gaussian 90(TM) system (copyright 1990, Gaussian, Inc.),
 the Gaussian 88(TM) system (copyright 1988, Gaussian, Inc.),
 the Gaussian 86(TM) system (copyright 1986, Carnegie Mellon
 University), and the Gaussian 82(TM) system (copyright 1983,
 Carnegie Mellon University). Gaussian is a federally registered
 trademark of Gaussian, Inc.
  
 This software contains proprietary and confidential information,
 including trade secrets, belonging to Gaussian, Inc.
  
 This software is provided under written license and may be
 used, copied, transmitted, or stored only in accord with that
 written license.
  
 The following legend is applicable only to US Government
 contracts under FAR:
  
                    RESTRICTED RIGHTS LEGEND
  
 Use, reproduction and disclosure by the US Government is
 subject to restrictions as set forth in subparagraphs (a)
 and (c) of the Commercial Computer Software - Restricted
 Rights clause in FAR 52.227-19.
  
 Gaussian, Inc.
 340 Quinnipiac St., Bldg. 40, Wallingford CT 06492
  
  
 ---------------------------------------------------------------
 Warning -- This program may not be used in any manner that
 competes with the business of Gaussian, Inc. or will provide
 assistance to any competitor of Gaussian, Inc.  The licensee
 of this program is prohibited from giving any competitor of
 Gaussian, Inc. access to this program.  By using this program,
 the user acknowledges that Gaussian, Inc. is engaged in the
 business of creating and licensing software in the field of
 computational chemistry and represents and warrants to the
 licensee that it is not a competitor of Gaussian, Inc. and that
 it will not use this program in any manner prohibited above.
 ---------------------------------------------------------------
  

 Cite this work as:
 Gaussian 16, Revision A.03,
 M. J. Frisch, G. W. Trucks, H. B. Schlegel, G. E. Scuseria, 
 M. A. Robb, J. R. Cheeseman, G. Scalmani, V. Barone, 
 G. A. Petersson, H. Nakatsuji, X. Li, M. Caricato, A. V. Marenich, 
 J. Bloino, B. G. Janesko, R. Gomperts, B. Mennucci, H. P. Hratchian, 
 J. V. Ortiz, A. F. Izmaylov, J. L. Sonnenberg, D. Williams-Young, 
 F. Ding, F. Lipparini, F. Egidi, J. Goings, B. Peng, A. Petrone, 
 T. Henderson, D. Ranasinghe, V. G. Zakrzewski, J. Gao, N. Rega, 
 G. Zheng, W. Liang, M. Hada, M. Ehara, K. Toyota, R. Fukuda, 
 J. Hasegawa, M. Ishida, T. Nakajima, Y. Honda, O. Kitao, H. Nakai, 
 T. Vreven, K. Throssell, J. A. Montgomery, Jr., J. E. Peralta, 
 F. Ogliaro, M. J. Bearpark, J. J. Heyd, E. N. Brothers, K. N. Kudin, 
 V. N. Staroverov, T. A. Keith, R. Kobayashi, J. Normand, 
 K. Raghavachari, A. P. Rendell, J. C. Burant, S. S. Iyengar, 
 J. Tomasi, M. Cossi, J. M. Millam, M. Klene, C. Adamo, R. Cammi, 
 J. W. Ochterski, R. L. Martin, K. Morokuma, O. Farkas, 
 J. B. Foresman, and D. J. Fox, Gaussian, Inc., Wallingford CT, 2016.
 
 ******************************************
 Gaussian 16:  ES64L-G16RevA.03 25-Dec-2016
                 9-Nov-2019 
 ******************************************
 %chk=Pt_P.chk
 %nprocshared=24
 Will use up to   24 processors via shared memory.
 ----------------------------------------------------------------------
 #p opt freq pbe1pbe/def2tzvp em=gd3bj geom=allcheck scrf=(smd,solvent=
 benzene)
 ----------------------------------------------------------------------
 1/18=20,19=15,26=3,29=7,38=1/1,3;
 2/9=110,12=2,40=1/2;
 3/5=44,7=101,11=2,14=-4,25=1,30=1,70=32201,71=1,72=12,74=-13,124=41/1,2,3;
 4//1;
 5/5=2,38=5,53=12/2;
 6/7=2,8=2,9=2,10=2,28=1/1;
 7//1,2,3,16;
 1/18=20,19=15,26=3/3(2);
 2/9=110/2;
 99//99;
 2/9=110/2;
 3/5=44,7=101,11=2,14=-2,25=1,30=1,70=32205,71=1,72=12,74=-13,124=41/1,2,3;
 4/5=5,16=3,69=1/1;
 5/5=2,38=5,53=12/2;
 7//1,2,3,16;
 1/18=20,19=15,26=3/3(-5);
 2/9=110/2;
 6/7=2,8=2,9=2,10=2,19=2,28=1/1;
 99/9=1/99;
 Leave Link    1 at Sat Nov  9 01:45:58 2019, MaxMem=           0 cpu:               8.8 elap:               0.4
 (Enter /share/home/wli/program/opt/Chem_soft/g16/l101.exe)
 Structure from the checkpoint file:  "Pt_P.chk"
 -------------------
 Title Card Required
 -------------------
 Charge =  0 Multiplicity = 1
 Redundant internal coordinates found in file.  (old form).
 Pt,0,0.0110781566,-0.6620749127,0.3459017573
 P,0,1.831032492,0.6830654771,-0.0549473072
 P,0,-1.8058000817,0.7273921943,0.1040336615
 C,0,2.0731652394,2.0711132541,1.1021216497
 H,0,2.1302942958,1.6824677856,2.1211435103
 H,0,2.9891485426,2.6252390824,0.8789281809
 H,0,1.2224350941,2.7532436628,1.0476087516
 C,0,3.4433830283,-0.1557531437,0.0280969824
 H,0,3.4629531876,-0.9631748901,-0.706640079
 H,0,4.271647174,0.5321345468,-0.1636327968
 H,0,3.5618300751,-0.6028608966,1.0169949257
 C,0,1.925997446,1.5040415097,-1.6802840817
 H,0,1.085603725,2.1897288463,-1.801556152
 H,0,2.8596884323,2.0622813057,-1.7919654331
 H,0,1.8657551652,0.7494659058,-2.4676107243
 C,0,-2.7250294734,0.9675787437,1.6572486536
 H,0,-2.0859908121,1.471514435,2.38568778
 H,0,-3.6294002138,1.5622016026,1.5010389482
 H,0,-2.9962064014,-0.0074385302,2.0658219934
 C,0,-3.0792866936,0.0650136924,-1.0154648435
 H,0,-3.9489390717,0.7256429426,-1.0717596915
 H,0,-2.6570489494,-0.0580685302,-2.0151724806
 H,0,-3.3897828127,-0.9186408895,-0.6592610961
 C,0,-1.6525807251,2.4429783324,-0.503055687
 H,0,-1.2488399966,2.4385767836,-1.5177678915
 H,0,-2.6227162485,2.947691926,-0.5163473569
 H,0,-0.9737328497,3.0087110407,0.1388059587
 H,0,-1.0968819621,-1.7908984325,0.6792623803
 H,0,1.0448732378,-1.8727518439,0.5984644876
 Recover connectivity data from disk.
 ITRead=  0  0  0  0  0  0  0  0  0  0  0  0  0  0  0  0  0  0  0  0
 ITRead=  0  0  0  0  0  0  0  0  0
 MicOpt= -1 -1 -1 -1 -1 -1 -1 -1 -1 -1 -1 -1 -1 -1 -1 -1 -1 -1 -1 -1
 MicOpt= -1 -1 -1 -1 -1 -1 -1 -1 -1
 NAtoms=     29 NQM=       29 NQMF=       0 NMMI=      0 NMMIF=      0
                NMic=       0 NMicF=      0.
                    Isotopes and Nuclear Properties:
 (Nuclear quadrupole moments (NQMom) in fm**2, nuclear magnetic moments (NMagM)
  in nuclear magnetons)

  Atom         1           2           3           4           5           6           7           8           9          10
 IAtWgt=         195          31          31          12           1           1           1          12           1           1
 AtmWgt= 194.9648000  30.9737634  30.9737634  12.0000000   1.0078250   1.0078250   1.0078250  12.0000000   1.0078250   1.0078250
 NucSpn=           1           1           1           0           1           1           1           0           1           1
 AtZEff=1176.2400000  12.9400000  12.9400000   3.6000000   1.0000000   1.0000000   1.0000000   3.6000000   1.0000000   1.0000000
 NQMom=    0.0000000   0.0000000   0.0000000   0.0000000   0.0000000   0.0000000   0.0000000   0.0000000   0.0000000   0.0000000
 NMagM=    0.6095000   1.1316000   1.1316000   0.0000000   2.7928460   2.7928460   2.7928460   0.0000000   2.7928460   2.7928460
 AtZNuc=  78.0000000  15.0000000  15.0000000   6.0000000   1.0000000   1.0000000   1.0000000   6.0000000   1.0000000   1.0000000

  Atom        11          12          13          14          15          16          17          18          19          20
 IAtWgt=           1          12           1           1           1          12           1           1           1          12
 AtmWgt=   1.0078250  12.0000000   1.0078250   1.0078250   1.0078250  12.0000000   1.0078250   1.0078250   1.0078250  12.0000000
 NucSpn=           1           0           1           1           1           0           1           1           1           0
 AtZEff=   1.0000000   3.6000000   1.0000000   1.0000000   1.0000000   3.6000000   1.0000000   1.0000000   1.0000000   3.6000000
 NQMom=    0.0000000   0.0000000   0.0000000   0.0000000   0.0000000   0.0000000   0.0000000   0.0000000   0.0000000   0.0000000
 NMagM=    2.7928460   0.0000000   2.7928460   2.7928460   2.7928460   0.0000000   2.7928460   2.7928460   2.7928460   0.0000000
 AtZNuc=   1.0000000   6.0000000   1.0000000   1.0000000   1.0000000   6.0000000   1.0000000   1.0000000   1.0000000   6.0000000

  Atom        21          22          23          24          25          26          27          28          29
 IAtWgt=           1           1           1          12           1           1           1           1           1
 AtmWgt=   1.0078250   1.0078250   1.0078250  12.0000000   1.0078250   1.0078250   1.0078250   1.0078250   1.0078250
 NucSpn=           1           1           1           0           1           1           1           1           1
 AtZEff=   1.0000000   1.0000000   1.0000000   3.6000000   1.0000000   1.0000000   1.0000000   1.0000000   1.0000000
 NQMom=    0.0000000   0.0000000   0.0000000   0.0000000   0.0000000   0.0000000   0.0000000   0.0000000   0.0000000
 NMagM=    2.7928460   2.7928460   2.7928460   0.0000000   2.7928460   2.7928460   2.7928460   2.7928460   2.7928460
 AtZNuc=   1.0000000   1.0000000   1.0000000   6.0000000   1.0000000   1.0000000   1.0000000   1.0000000   1.0000000
 Leave Link  101 at Sat Nov  9 01:45:58 2019, MaxMem=   104857600 cpu:               3.1 elap:               0.1
 (Enter /share/home/wli/program/opt/Chem_soft/g16/l103.exe)

 GradGradGradGradGradGradGradGradGradGradGradGradGradGradGradGradGradGrad
 Berny optimization.
 Initialization pass.
                           ----------------------------
                           !    Initial Parameters    !
                           ! (Angstroms and Degrees)  !
 --------------------------                            --------------------------
 ! Name  Definition              Value          Derivative Info.                !
 --------------------------------------------------------------------------------
 ! R1    R(1,2)                  2.2983         estimate D2E/DX2                !
 ! R2    R(1,3)                  2.3            estimate D2E/DX2                !
 ! R3    R(1,28)                 1.6165         estimate D2E/DX2                !
 ! R4    R(1,29)                 1.6119         estimate D2E/DX2                !
 ! R5    R(2,4)                  1.8232         estimate D2E/DX2                !
 ! R6    R(2,8)                  1.8194         estimate D2E/DX2                !
 ! R7    R(2,12)                 1.8234         estimate D2E/DX2                !
 ! R8    R(3,16)                 1.8208         estimate D2E/DX2                !
 ! R9    R(3,20)                 1.8204         estimate D2E/DX2                !
 ! R10   R(3,24)                 1.8263         estimate D2E/DX2                !
 ! R11   R(4,5)                  1.0921         estimate D2E/DX2                !
 ! R12   R(4,6)                  1.0936         estimate D2E/DX2                !
 ! R13   R(4,7)                  1.0918         estimate D2E/DX2                !
 ! R14   R(8,9)                  1.0919         estimate D2E/DX2                !
 ! R15   R(8,10)                 1.0936         estimate D2E/DX2                !
 ! R16   R(8,11)                 1.0917         estimate D2E/DX2                !
 ! R17   R(12,13)                1.0914         estimate D2E/DX2                !
 ! R18   R(12,14)                1.0936         estimate D2E/DX2                !
 ! R19   R(12,15)                1.0922         estimate D2E/DX2                !
 ! R20   R(16,17)                1.0922         estimate D2E/DX2                !
 ! R21   R(16,18)                1.0936         estimate D2E/DX2                !
 ! R22   R(16,19)                1.0914         estimate D2E/DX2                !
 ! R23   R(20,21)                1.0936         estimate D2E/DX2                !
 ! R24   R(20,22)                1.0922         estimate D2E/DX2                !
 ! R25   R(20,23)                1.0913         estimate D2E/DX2                !
 ! R26   R(24,25)                1.0921         estimate D2E/DX2                !
 ! R27   R(24,26)                1.0937         estimate D2E/DX2                !
 ! R28   R(24,27)                1.0922         estimate D2E/DX2                !
 ! A1    A(2,1,3)              104.6914         estimate D2E/DX2                !
 ! A2    A(2,1,29)              87.6534         estimate D2E/DX2                !
 ! A3    A(3,1,28)              84.3825         estimate D2E/DX2                !
 ! A4    A(28,1,29)             83.2682         estimate D2E/DX2                !
 ! A5    A(1,2,4)              116.1073         estimate D2E/DX2                !
 ! A6    A(1,2,8)              115.0844         estimate D2E/DX2                !
 ! A7    A(1,2,12)             117.4015         estimate D2E/DX2                !
 ! A8    A(4,2,8)              101.7909         estimate D2E/DX2                !
 ! A9    A(4,2,12)             102.4742         estimate D2E/DX2                !
 ! A10   A(8,2,12)             101.6607         estimate D2E/DX2                !
 ! A11   A(1,3,16)             112.8794         estimate D2E/DX2                !
 ! A12   A(1,3,20)             113.4202         estimate D2E/DX2                !
 ! A13   A(1,3,24)             122.4237         estimate D2E/DX2                !
 ! A14   A(16,3,20)            102.6755         estimate D2E/DX2                !
 ! A15   A(16,3,24)            101.6545         estimate D2E/DX2                !
 ! A16   A(20,3,24)            101.3075         estimate D2E/DX2                !
 ! A17   A(2,4,5)              109.1582         estimate D2E/DX2                !
 ! A18   A(2,4,6)              111.5605         estimate D2E/DX2                !
 ! A19   A(2,4,7)              109.9065         estimate D2E/DX2                !
 ! A20   A(5,4,6)              109.0833         estimate D2E/DX2                !
 ! A21   A(5,4,7)              108.0403         estimate D2E/DX2                !
 ! A22   A(6,4,7)              109.0197         estimate D2E/DX2                !
 ! A23   A(2,8,9)              109.0327         estimate D2E/DX2                !
 ! A24   A(2,8,10)             111.9119         estimate D2E/DX2                !
 ! A25   A(2,8,11)             109.0451         estimate D2E/DX2                !
 ! A26   A(9,8,10)             109.4873         estimate D2E/DX2                !
 ! A27   A(9,8,11)             107.7428         estimate D2E/DX2                !
 ! A28   A(10,8,11)            109.5265         estimate D2E/DX2                !
 ! A29   A(2,12,13)            109.9878         estimate D2E/DX2                !
 ! A30   A(2,12,14)            111.4286         estimate D2E/DX2                !
 ! A31   A(2,12,15)            109.1855         estimate D2E/DX2                !
 ! A32   A(13,12,14)           108.9887         estimate D2E/DX2                !
 ! A33   A(13,12,15)           108.1487         estimate D2E/DX2                !
 ! A34   A(14,12,15)           109.0354         estimate D2E/DX2                !
 ! A35   A(3,16,17)            109.5369         estimate D2E/DX2                !
 ! A36   A(3,16,18)            111.555          estimate D2E/DX2                !
 ! A37   A(3,16,19)            109.0835         estimate D2E/DX2                !
 ! A38   A(17,16,18)           109.1627         estimate D2E/DX2                !
 ! A39   A(17,16,19)           107.9322         estimate D2E/DX2                !
 ! A40   A(18,16,19)           109.4974         estimate D2E/DX2                !
 ! A41   A(3,20,21)            111.6029         estimate D2E/DX2                !
 ! A42   A(3,20,22)            109.4791         estimate D2E/DX2                !
 ! A43   A(3,20,23)            109.0441         estimate D2E/DX2                !
 ! A44   A(21,20,22)           109.1718         estimate D2E/DX2                !
 ! A45   A(21,20,23)           109.5765         estimate D2E/DX2                !
 ! A46   A(22,20,23)           107.8903         estimate D2E/DX2                !
 ! A47   A(3,24,25)            109.6392         estimate D2E/DX2                !
 ! A48   A(3,24,26)            111.2933         estimate D2E/DX2                !
 ! A49   A(3,24,27)            110.0827         estimate D2E/DX2                !
 ! A50   A(25,24,26)           108.5728         estimate D2E/DX2                !
 ! A51   A(25,24,27)           108.5631         estimate D2E/DX2                !
 ! A52   A(26,24,27)           108.6296         estimate D2E/DX2                !
 ! A53   L(2,1,28,29,-1)       170.9216         estimate D2E/DX2                !
 ! A54   L(3,1,29,28,-1)       167.6507         estimate D2E/DX2                !
 ! A55   L(2,1,28,29,-2)       179.5163         estimate D2E/DX2                !
 ! A56   L(3,1,29,28,-2)       180.4419         estimate D2E/DX2                !
 ! D1    D(3,1,2,4)             62.5895         estimate D2E/DX2                !
 ! D2    D(3,1,2,8)           -178.6825         estimate D2E/DX2                !
 ! D3    D(3,1,2,12)           -59.0772         estimate D2E/DX2                !
 ! D4    D(29,1,2,4)          -116.8489         estimate D2E/DX2                !
 ! D5    D(29,1,2,8)             1.8791         estimate D2E/DX2                !
 ! D6    D(29,1,2,12)          121.4844         estimate D2E/DX2                !
 ! D7    D(2,1,3,16)          -114.7246         estimate D2E/DX2                !
 ! D8    D(2,1,3,20)           129.0222         estimate D2E/DX2                !
 ! D9    D(2,1,3,24)             7.1326         estimate D2E/DX2                !
 ! D10   D(28,1,3,16)           64.7037         estimate D2E/DX2                !
 ! D11   D(28,1,3,20)          -51.5494         estimate D2E/DX2                !
 ! D12   D(28,1,3,24)         -173.439          estimate D2E/DX2                !
 ! D13   D(1,2,4,5)             56.0263         estimate D2E/DX2                !
 ! D14   D(1,2,4,6)            176.6519         estimate D2E/DX2                !
 ! D15   D(1,2,4,7)            -62.2995         estimate D2E/DX2                !
 ! D16   D(8,2,4,5)            -69.7482         estimate D2E/DX2                !
 ! D17   D(8,2,4,6)             50.8774         estimate D2E/DX2                !
 ! D18   D(8,2,4,7)            171.926          estimate D2E/DX2                !
 ! D19   D(12,2,4,5)          -174.6785         estimate D2E/DX2                !
 ! D20   D(12,2,4,6)           -54.0529         estimate D2E/DX2                !
 ! D21   D(12,2,4,7)            66.9957         estimate D2E/DX2                !
 ! D22   D(1,2,8,9)             59.114          estimate D2E/DX2                !
 ! D23   D(1,2,8,10)          -179.6123         estimate D2E/DX2                !
 ! D24   D(1,2,8,11)           -58.2809         estimate D2E/DX2                !
 ! D25   D(4,2,8,9)           -174.4398         estimate D2E/DX2                !
 ! D26   D(4,2,8,10)           -53.1661         estimate D2E/DX2                !
 ! D27   D(4,2,8,11)            68.1653         estimate D2E/DX2                !
 ! D28   D(12,2,8,9)           -68.8715         estimate D2E/DX2                !
 ! D29   D(12,2,8,10)           52.4022         estimate D2E/DX2                !
 ! D30   D(12,2,8,11)          173.7336         estimate D2E/DX2                !
 ! D31   D(1,2,12,13)           62.9075         estimate D2E/DX2                !
 ! D32   D(1,2,12,14)         -176.1148         estimate D2E/DX2                !
 ! D33   D(1,2,12,15)          -55.6148         estimate D2E/DX2                !
 ! D34   D(4,2,12,13)          -65.5788         estimate D2E/DX2                !
 ! D35   D(4,2,12,14)           55.3988         estimate D2E/DX2                !
 ! D36   D(4,2,12,15)          175.8988         estimate D2E/DX2                !
 ! D37   D(8,2,12,13)         -170.6101         estimate D2E/DX2                !
 ! D38   D(8,2,12,14)          -49.6325         estimate D2E/DX2                !
 ! D39   D(8,2,12,15)           70.8675         estimate D2E/DX2                !
 ! D40   D(1,3,16,17)           63.7816         estimate D2E/DX2                !
 ! D41   D(1,3,16,18)         -175.2433         estimate D2E/DX2                !
 ! D42   D(1,3,16,19)          -54.1528         estimate D2E/DX2                !
 ! D43   D(20,3,16,17)        -173.732          estimate D2E/DX2                !
 ! D44   D(20,3,16,18)         -52.7569         estimate D2E/DX2                !
 ! D45   D(20,3,16,19)          68.3336         estimate D2E/DX2                !
 ! D46   D(24,3,16,17)         -69.1601         estimate D2E/DX2                !
 ! D47   D(24,3,16,18)          51.815          estimate D2E/DX2                !
 ! D48   D(24,3,16,19)         172.9054         estimate D2E/DX2                !
 ! D49   D(1,3,20,21)          177.2931         estimate D2E/DX2                !
 ! D50   D(1,3,20,22)          -61.7281         estimate D2E/DX2                !
 ! D51   D(1,3,20,23)           56.0992         estimate D2E/DX2                !
 ! D52   D(16,3,20,21)          55.1724         estimate D2E/DX2                !
 ! D53   D(16,3,20,22)         176.1512         estimate D2E/DX2                !
 ! D54   D(16,3,20,23)         -66.0215         estimate D2E/DX2                !
 ! D55   D(24,3,20,21)         -49.668          estimate D2E/DX2                !
 ! D56   D(24,3,20,22)          71.3108         estimate D2E/DX2                !
 ! D57   D(24,3,20,23)        -170.8619         estimate D2E/DX2                !
 ! D58   D(1,3,24,25)           61.6944         estimate D2E/DX2                !
 ! D59   D(1,3,24,26)         -178.1703         estimate D2E/DX2                !
 ! D60   D(1,3,24,27)          -57.6699         estimate D2E/DX2                !
 ! D61   D(16,3,24,25)        -171.3417         estimate D2E/DX2                !
 ! D62   D(16,3,24,26)         -51.2064         estimate D2E/DX2                !
 ! D63   D(16,3,24,27)          69.2939         estimate D2E/DX2                !
 ! D64   D(20,3,24,25)         -65.6937         estimate D2E/DX2                !
 ! D65   D(20,3,24,26)          54.4416         estimate D2E/DX2                !
 ! D66   D(20,3,24,27)         174.9419         estimate D2E/DX2                !
 --------------------------------------------------------------------------------
 Trust Radius=3.00D-01 FncErr=1.00D-07 GrdErr=1.00D-06 EigMax=2.50D+02 EigMin=1.00D-04
 Number of steps in this run=    160 maximum allowed number of steps=    174.
 GradGradGradGradGradGradGradGradGradGradGradGradGradGradGradGradGradGrad

 Leave Link  103 at Sat Nov  9 01:45:58 2019, MaxMem=   104857600 cpu:               0.8 elap:               0.1
 (Enter /share/home/wli/program/opt/Chem_soft/g16/l202.exe)
                          Input orientation:                          
 ---------------------------------------------------------------------
 Center     Atomic      Atomic             Coordinates (Angstroms)
 Number     Number       Type             X           Y           Z
 ---------------------------------------------------------------------
      1         78           0        0.011078   -0.662075    0.345902
      2         15           0        1.831032    0.683065   -0.054947
      3         15           0       -1.805800    0.727392    0.104034
      4          6           0        2.073165    2.071113    1.102122
      5          1           0        2.130294    1.682468    2.121144
      6          1           0        2.989149    2.625239    0.878928
      7          1           0        1.222435    2.753244    1.047609
      8          6           0        3.443383   -0.155753    0.028097
      9          1           0        3.462953   -0.963175   -0.706640
     10          1           0        4.271647    0.532135   -0.163633
     11          1           0        3.561830   -0.602861    1.016995
     12          6           0        1.925997    1.504042   -1.680284
     13          1           0        1.085604    2.189729   -1.801556
     14          1           0        2.859688    2.062281   -1.791965
     15          1           0        1.865755    0.749466   -2.467611
     16          6           0       -2.725029    0.967579    1.657249
     17          1           0       -2.085991    1.471514    2.385688
     18          1           0       -3.629400    1.562202    1.501039
     19          1           0       -2.996206   -0.007439    2.065822
     20          6           0       -3.079287    0.065014   -1.015465
     21          1           0       -3.948939    0.725643   -1.071760
     22          1           0       -2.657049   -0.058069   -2.015172
     23          1           0       -3.389783   -0.918641   -0.659261
     24          6           0       -1.652581    2.442978   -0.503056
     25          1           0       -1.248840    2.438577   -1.517768
     26          1           0       -2.622716    2.947692   -0.516347
     27          1           0       -0.973733    3.008711    0.138806
     28          1           0       -1.096882   -1.790898    0.679262
     29          1           0        1.044873   -1.872752    0.598464
 ---------------------------------------------------------------------
                    Distance matrix (angstroms):
                    1          2          3          4          5
     1  Pt   0.000000
     2  P    2.298329   0.000000
     3  P    2.300036   3.640576   0.000000
     4  C    3.506336   1.823215   4.224706   0.000000
     5  H    3.624837   2.413241   4.524792   1.092115   0.000000
     6  H    4.467600   2.446507   5.214769   1.093570   1.780322
     7  H    3.691095   2.423151   3.763591   1.091795   1.767271
     8  C    3.483975   1.819392   5.323498   2.826652   3.079627
     9  H    3.621318   2.407899   5.592403   3.796055   4.095335
    10  H    4.454011   2.447691   6.086472   2.967139   3.335995
    11  H    3.614099   2.407972   5.604866   3.061618   2.913961
    12  C    3.530496   1.823387   4.208716   2.843415   3.811092
    13  H    3.728132   2.424117   3.758978   3.069315   4.090998
    14  H    4.484102   2.444913   5.209945   2.999073   3.998587
    15  H    3.653509   2.413827   4.482651   3.812186   4.690111
    16  C    3.444080   4.875476   1.820755   4.954657   4.929547
    17  H    3.620860   4.682032   2.416231   4.393818   4.229840
    18  H    4.419822   5.745459   2.444187   5.739110   5.794228
    19  H    3.525682   5.317583   2.409493   5.563059   5.398134
    20  C    3.454321   5.041410   1.820382   5.920842   6.292393
    21  H    4.429138   5.868883   2.444491   6.542308   6.933053
    22  H    3.613640   4.953245   2.415079   6.051931   6.561801
    23  H    3.555564   5.494322   2.408536   6.471854   6.705794
    24  C    3.623513   3.928569   1.826272   4.073826   4.666363
    25  H    3.830757   3.835007   2.422519   4.246713   5.023139
    26  H    4.550908   5.017699   2.445804   5.043722   5.581063
    27  H    3.806233   3.648681   2.428572   3.330263   3.914533
    28  H    1.616461   3.902851   2.678664   5.014294   4.955599
    29  H    1.611912   2.752671   3.889929   4.106717   4.016998
                    6          7          8          9         10
     6  H    0.000000
     7  H    1.779358   0.000000
     8  C    2.943495   3.799247   0.000000
     9  H    3.951611   4.680713   1.091857   0.000000
    10  H    2.666988   3.962086   1.093605   1.784599   0.000000
    11  H    3.281411   4.091105   1.091721   1.763667   1.784919
    12  C    2.989472   3.081705   2.824171   3.065513   2.957517
    13  H    3.316346   2.907578   3.795792   4.097735   3.947314
    14  H    2.732646   3.349807   2.927969   3.270358   2.643188
    15  H    3.997482   4.097042   3.088185   2.930051   3.338243
    16  C    6.000454   4.375241   6.478065   6.899776   7.242838
    17  H    5.418343   3.791961   6.227376   6.803013   6.913829
    18  H    6.732181   5.016422   7.425981   7.845562   8.139946
    19  H    6.645614   5.143448   6.755933   7.093710   7.621240
    20  C    6.853421   5.476099   6.609310   6.629740   7.414853
    21  H    7.453235   5.945250   7.525488   7.610622   8.272858
    22  H    6.888796   5.686343   6.434265   6.323441   7.196066
    23  H    7.457605   6.137483   6.909892   6.853044   7.813316
    24  C    4.846519   3.281241   5.744943   6.149147   6.234020
    25  H    4.872324   3.575944   5.580072   5.867780   5.995330
    26  H    5.791701   4.155594   6.835594   7.236468   7.313793
    27  H    4.049600   2.390469   5.434796   6.014552   5.808521
    28  H    6.019783   5.115089   4.869468   4.837143   5.909997
    29  H    4.908237   4.651139   3.004372   2.894432   4.095893
                   11         12         13         14         15
    11  H    0.000000
    12  C    3.793455   0.000000
    13  H    4.677017   1.091392   0.000000
    14  H    3.935257   1.093564   1.778682   0.000000
    15  H    4.104624   1.092198   1.768226   1.779855   0.000000
    16  C    6.511590   5.749693   5.289415   6.654662   6.175544
    17  H    6.170432   5.712201   5.301684   6.500887   6.300171
    18  H    7.525662   6.402081   5.790698   7.293986   6.826965
    19  H    6.668014   6.367572   6.036997   7.311482   6.690560
    20  C    6.977204   5.250300   4.741167   6.313751   5.199100
    21  H    7.908190   5.957439   5.293654   6.975866   5.979936
    22  H    6.940122   4.853520   4.371004   5.914397   4.616554
    23  H    7.157826   5.930379   5.567395   7.016039   5.802878
    24  C    6.227180   3.882485   3.041035   4.708162   4.371058
    25  H    6.230402   3.313512   2.364760   4.134826   3.668242
    26  H    7.294256   4.912196   3.997237   5.698062   5.365259
    27  H    5.863958   3.739192   2.945608   4.395307   4.467694
    28  H    4.819657   5.055877   5.173306   6.050488   5.013330
    29  H    2.850064   4.167950   4.718634   4.948959   4.117122
                   16         17         18         19         20
    16  C    0.000000
    17  H    1.092220   0.000000
    18  H    1.093556   1.781275   0.000000
    19  H    1.091388   1.765817   1.784288   0.000000
    20  C    2.843153   3.812181   2.979427   3.083258   0.000000
    21  H    3.000662   3.997605   2.724193   3.359989   1.093570
    22  H    3.813561   4.693964   3.991802   4.095376   1.092176
    23  H    3.060382   4.084658   3.298317   2.900219   1.091268
    24  C    2.827342   3.078380   2.949573   3.795920   2.820065
    25  H    3.797855   4.107675   3.943133   4.677435   3.039185
    26  H    2.942080   3.299846   2.646289   3.942067   2.960981
    27  H    3.088516   2.940845   3.316721   4.111076   3.798822
    28  H    3.349107   3.812291   4.281617   2.951391   3.201006
    29  H    4.837424   4.917377   5.870467   4.686455   4.834087
                   21         22         23         24         25
    21  H    0.000000
    22  H    1.781351   0.000000
    23  H    1.785071   1.765214   0.000000
    24  C    2.923342   3.090419   3.787183   0.000000
    25  H    3.228560   2.909244   4.073276   1.092093   0.000000
    26  H    2.646668   3.358906   3.944280   1.093652   1.774705
    27  H    3.940777   4.108322   4.679562   1.092188   1.773407
    28  H    4.187277   3.563257   2.794615   4.430845   4.768490
    29  H    5.871922   4.881434   4.707268   5.207219   5.322322
                   26         27         28         29
    26  H    0.000000
    27  H    1.775414   0.000000
    28  H    5.119755   4.831512   0.000000
    29  H    6.158790   5.302333   2.144841   0.000000
 Stoichiometry    C6H20P2Pt
 Framework group  C1[X(C6H20P2Pt)]
 Deg. of freedom    81
 Full point group                 C1      NOp   1
 RotChk:  IX=0 Diff= 5.86D-16
 Largest Abelian subgroup         C1      NOp   1
 Largest concise Abelian subgroup C1      NOp   1
                         Standard orientation:                         
 ---------------------------------------------------------------------
 Center     Atomic      Atomic             Coordinates (Angstroms)
 Number     Number       Type             X           Y           Z
 ---------------------------------------------------------------------
      1         78           0        0.004285   -0.863446   -0.005169
      2         15           0        1.827509    0.535898   -0.003024
      3         15           0       -1.813052    0.546322   -0.002689
      4          6           0        2.005202    1.619894    1.452137
      5          1           0        2.020833    1.006949    2.355890
      6          1           0        2.924931    2.209543    1.404091
      7          1           0        1.151364    2.297155    1.517655
      8          6           0        3.442395   -0.301227   -0.042431
      9          1           0        3.502013   -0.917751   -0.941595
     10          1           0        4.271849    0.411436   -0.033075
     11          1           0        3.521161   -0.964191    0.821357
     12          6           0        1.986590    1.709026   -1.389820
     13          1           0        1.145997    2.405112   -1.387914
     14          1           0        2.919036    2.276978   -1.327716
     15          1           0        1.968309    1.156125   -2.331554
     16          6           0       -2.802304    0.423325    1.520925
     17          1           0       -2.200866    0.745265    2.373904
     18          1           0       -3.704410    1.038910    1.465020
     19          1           0       -3.082144   -0.619287    1.681477
     20          6           0       -3.029504    0.160943   -1.300963
     21          1           0       -3.901965    0.817711   -1.242981
     22          1           0       -2.562319    0.270954   -2.282026
     23          1           0       -3.346226   -0.877971   -1.195086
     24          6           0       -1.649204    2.355441   -0.191136
     25          1           0       -1.200945    2.584418   -1.160311
     26          1           0       -2.622487    2.850689   -0.131771
     27          1           0       -1.004746    2.757413    0.593700
     28          1           0       -1.106714   -2.037510    0.009045
     29          1           0        1.037191   -2.100854    0.008489
 ---------------------------------------------------------------------
 Rotational constants (GHZ):           1.0264213           0.5248900           0.4288381
 Leave Link  202 at Sat Nov  9 01:45:58 2019, MaxMem=   104857600 cpu:               0.8 elap:               0.1
 (Enter /share/home/wli/program/opt/Chem_soft/g16/l301.exe)
 Standard basis: def2TZVP (5D, 7F)
 Ernie: Thresh=  0.10000D-02 Tol=  0.10000D-05 Strict=F.
 There are   466 symmetry adapted cartesian basis functions of A   symmetry.
 There are   420 symmetry adapted basis functions of A   symmetry.
   420 basis functions,   679 primitive gaussians,   466 cartesian basis functions
    52 alpha electrons       52 beta electrons
       nuclear repulsion energy       855.9266781671 Hartrees.
 IExCor= 1009 DFT=T Ex+Corr=PBE1PBE ExCW=0 ScaHFX=  0.250000
 ScaDFX=  0.750000  0.750000  1.000000  1.000000 ScalE2=  1.000000  1.000000
 IRadAn=      5 IRanWt=     -1 IRanGd=            0 ICorTp=0 IEmpDi=141
 NAtoms=   29 NActive=   29 NUniq=   29 SFac= 1.00D+00 NAtFMM=   60 NAOKFM=F Big=F
 Integral buffers will be    131072 words long.
 Raffenetti 2 integral format.
 Two-electron integral symmetry is turned on.
 R6Disp:  Grimme-D3(BJ) Dispersion energy=       -0.0336306401 Hartrees.
 Nuclear repulsion after empirical dispersion term =      855.8930475270 Hartrees.
 ------------------------------------------------------------------------------
 Polarizable Continuum Model (PCM)
 =================================
 Model                : PCM.
 Atomic radii         : SMD-Coulomb.
 Polarization charges : Total charges.
 Charge compensation  : None.
 Solution method      : On-the-fly selection.
 Cavity type          : VdW (van der Waals Surface) (Alpha=1.000).
 Cavity algorithm     : GePol (No added spheres)
                        Default sphere list used, NSphG=   29.
                        Lebedev-Laikov grids with approx.  5.0 points / Ang**2.
                        Smoothing algorithm: York/Karplus (Gamma=1.0000).
                        Polarization charges: spherical gaussians, with
                                              point-specific exponents (IZeta= 3).
                        Self-potential: point-specific (ISelfS= 7).
                        Self-field    : sphere-specific E.n sum rule (ISelfD= 2).
 1st derivatives      : Analytical E(r).r(x)/FMM algorithm (CHGder, D1EAlg=3).
                        Cavity 1st derivative terms included.
 Solvent              : Benzene, Eps=   2.270600 Eps(inf)=   2.253301
 ------------------------------------------------------------------------------
 GePol: Number of generator spheres                  =      29
 GePol: Total number of spheres                      =      29
 GePol: Number of exposed spheres                    =      29 (100.00%)
 GePol: Number of points                             =    2129
 GePol: Average weight of points                     =       0.12
 GePol: Minimum weight of points                     =   0.12D-09
 GePol: Maximum weight of points                     =    0.22001
 GePol: Number of points with low weight             =     104
 GePol: Fraction of low-weight points (<1% of avg)   =       4.88%
 GePol: Cavity surface area                          =    248.212 Ang**2
 GePol: Cavity volume                                =    205.981 Ang**3
 ------------------------------------------------------------------------------
 Atomic radii for non-electrostatic terms: SMD-CDS.
 ------------------------------------------------------------------------------
 PCM non-electrostatic energy =         0.0003891318 Hartrees.
 Nuclear repulsion after PCM non-electrostatic terms =      855.8934366588 Hartrees.
 Leave Link  301 at Sat Nov  9 01:45:58 2019, MaxMem=   104857600 cpu:               1.9 elap:               0.1
 (Enter /share/home/wli/program/opt/Chem_soft/g16/l302.exe)
 NPDir=0 NMtPBC=     1 NCelOv=     1 NCel=       1 NClECP=     1 NCelD=      1
         NCelK=      1 NCelE2=     1 NClLst=     1 CellRange=     0.0.
 One-electron integrals computed using PRISM.
 One-electron integral symmetry used in STVInt
 PrsmSu:  requested number of processors reduced to:  12 ShMem   1 Linda.
   1 Symmetry operations used in ECPInt.
 ECPInt:  NShTT=   17391 NPrTT=   50365 LenC2=   16401 LenP2D=   36161.
 LDataN:  DoStor=T MaxTD1= 8 Len=  415
 Number of processors reduced to  15 by ecpmxn.
 NBasis=   420 RedAO= T EigKep=  5.53D-04  NBF=   420
 NBsUse=   420 1.00D-06 EigRej= -1.00D+00 NBFU=   420
 Precomputing XC quadrature grid using
 IXCGrd= 4 IRadAn=           5 IRanWt=          -1 IRanGd=           0 AccXCQ= 0.00D+00.
 Defaulting to unpruned grid for atomic number  78.
 Generated NRdTot=       0 NPtTot=           0 NUsed=           0 NTot=          32
 NSgBfM=   464   464   464   464   464 MxSgAt=    29 MxSgA2=    29.
 Leave Link  302 at Sat Nov  9 01:45:59 2019, MaxMem=   104857600 cpu:              14.4 elap:               0.7
 (Enter /share/home/wli/program/opt/Chem_soft/g16/l303.exe)
 DipDrv:  MaxL=1.
 Leave Link  303 at Sat Nov  9 01:45:59 2019, MaxMem=   104857600 cpu:               1.4 elap:               0.1
 (Enter /share/home/wli/program/opt/Chem_soft/g16/l401.exe)
 ExpMin= 4.92D-02 ExpMax= 5.24D+04 ExpMxC= 1.79D+03 IAcc=3 IRadAn=         5 AccDes= 0.00D+00
 Harris functional with IExCor= 1009 and IRadAn=       5 diagonalized for initial guess.
 HarFok:  IExCor= 1009 AccDes= 0.00D+00 IRadAn=         5 IDoV= 1 UseB2=F ITyADJ=14
 ICtDFT=  3500011 ScaDFX=  1.000000  1.000000  1.000000  1.000000
 Defaulting to unpruned grid for atomic number  78.
 FoFCou: FMM=F IPFlag=           0 FMFlag=      100000 FMFlg1=           0
         NFxFlg=           0 DoJE=T BraDBF=F KetDBF=T FulRan=T
         wScrn=  0.000000 ICntrl=       500 IOpCl=  0 I1Cent=   200000004 NGrid=           0
         NMat0=    1 NMatS0=      1 NMatT0=    0 NMatD0=    1 NMtDS0=    0 NMtDT0=    0
 Petite list used in FoFCou.
 Harris En= -1042.54452653835    
 JPrj=0 DoOrth=F DoCkMO=F.
 Leave Link  401 at Sat Nov  9 01:46:01 2019, MaxMem=   104857600 cpu:              47.0 elap:               2.0
 (Enter /share/home/wli/program/opt/Chem_soft/g16/l502.exe)
 Integral symmetry usage will be decided dynamically.
 Closed shell SCF:
 Using DIIS extrapolation, IDIIS=  1040.
 NGot=   104857600 LenX=   104407631 LenY=   104190009
 Requested convergence on RMS density matrix=1.00D-08 within 128 cycles.
 Requested convergence on MAX density matrix=1.00D-06.
 Requested convergence on             energy=1.00D-06.
 No special actions if energy rises.
 Fock matrices will be formed incrementally for  20 cycles.

 Cycle   1  Pass 1  IDiag  1:
 FoFJK:  IHMeth= 1 ICntrl=       0 DoSepK=F KAlg= 0 I1Cent=           0 FoldK=F
 IRaf= 900000000 NMat=       1 IRICut=       1 DoRegI=T DoRafI=F ISym2E= 0 IDoP0=0 IntGTp=1.
 FoFCou: FMM=F IPFlag=           0 FMFlag=      100000 FMFlg1=           0
         NFxFlg=           0 DoJE=F BraDBF=F KetDBF=F FulRan=T
         wScrn=  0.000000 ICntrl=         0 IOpCl=  0 I1Cent=           0 NGrid=           0
         NMat0=    1 NMatS0=      1 NMatT0=    0 NMatD0=    1 NMtDS0=    0 NMtDT0=    0
 Symmetry not used in FoFCou.
 Defaulting to unpruned grid for atomic number  78.
 Defaulting to unpruned grid for atomic number  78.
 Defaulting to unpruned grid for atomic number  78.
 Defaulting to unpruned grid for atomic number  78.
 Defaulting to unpruned grid for atomic number  78.
 Defaulting to unpruned grid for atomic number  78.
 Defaulting to unpruned grid for atomic number  78.
 Defaulting to unpruned grid for atomic number  78.
 Defaulting to unpruned grid for atomic number  78.
 Defaulting to unpruned grid for atomic number  78.
 Defaulting to unpruned grid for atomic number  78.
 Defaulting to unpruned grid for atomic number  78.
 Defaulting to unpruned grid for atomic number  78.
 Defaulting to unpruned grid for atomic number  78.
 Defaulting to unpruned grid for atomic number  78.
 Defaulting to unpruned grid for atomic number  78.
 Defaulting to unpruned grid for atomic number  78.
 Defaulting to unpruned grid for atomic number  78.
 Defaulting to unpruned grid for atomic number  78.
 Defaulting to unpruned grid for atomic number  78.
 Defaulting to unpruned grid for atomic number  78.
 Defaulting to unpruned grid for atomic number  78.
 Defaulting to unpruned grid for atomic number  78.
 Defaulting to unpruned grid for atomic number  78.
 Inv3:  Mode=1 IEnd=    13597923.
 Iteration    1 A*A^-1 deviation from unit magnitude is 4.44D-15 for   2126.
 Iteration    1 A*A^-1 deviation from orthogonality  is 3.22D-15 for   1528    868.
 Iteration    1 A^-1*A deviation from unit magnitude is 4.22D-15 for   2126.
 Iteration    1 A^-1*A deviation from orthogonality  is 1.64D-15 for   1020    767.
 E= -1041.67913751176    
 DIIS: error= 4.81D-02 at cycle   1 NSaved=   1.
 NSaved= 1 IEnMin= 1 EnMin= -1041.67913751176     IErMin= 1 ErrMin= 4.81D-02
 ErrMax= 4.81D-02  0.00D+00 EMaxC= 1.00D-01 BMatC= 9.63D-01 BMatP= 9.63D-01
 IDIUse=3 WtCom= 5.19D-01 WtEn= 4.81D-01
 Coeff-Com:  0.100D+01
 Coeff-En:   0.100D+01
 Coeff:      0.100D+01
 Gap=     0.421 Goal=   None    Shift=    0.000
 GapD=    0.421 DampG=2.000 DampE=0.250 DampFc=0.5000 IDamp=-1.
 Damping current iteration by 5.00D-01
 RMSDP=3.76D-03 MaxDP=3.64D-01              OVMax= 3.15D-01

 Cycle   2  Pass 1  IDiag  1:
 RMSU=  1.88D-03    CP:  1.00D+00
 E= -1041.92938949508     Delta-E=       -0.250251983317 Rises=F Damp=T
 DIIS: error= 1.72D-02 at cycle   2 NSaved=   2.
 NSaved= 2 IEnMin= 2 EnMin= -1041.92938949508     IErMin= 2 ErrMin= 1.72D-02
 ErrMax= 1.72D-02  0.00D+00 EMaxC= 1.00D-01 BMatC= 8.56D-02 BMatP= 9.63D-01
 IDIUse=3 WtCom= 8.28D-01 WtEn= 1.72D-01
 Coeff-Com:  0.173D+00 0.827D+00
 Coeff-En:   0.313D+00 0.687D+00
 Coeff:      0.197D+00 0.803D+00
 Gap=     0.372 Goal=   None    Shift=    0.000
 RMSDP=1.39D-03 MaxDP=2.31D-01 DE=-2.50D-01 OVMax= 2.83D-01

 Cycle   3  Pass 1  IDiag  1:
 RMSU=  1.09D-03    CP:  9.85D-01  5.55D-01
 E= -1042.38659593466     Delta-E=       -0.457206439577 Rises=F Damp=F
 DIIS: error= 1.57D-02 at cycle   3 NSaved=   3.
 NSaved= 3 IEnMin= 3 EnMin= -1042.38659593466     IErMin= 3 ErrMin= 1.57D-02
 ErrMax= 1.57D-02  0.00D+00 EMaxC= 1.00D-01 BMatC= 5.55D-02 BMatP= 8.56D-02
 IDIUse=3 WtCom= 8.43D-01 WtEn= 1.57D-01
 Coeff-Com:  0.460D-01 0.457D+00 0.497D+00
 Coeff-En:   0.000D+00 0.000D+00 0.100D+01
 Coeff:      0.388D-01 0.385D+00 0.576D+00
 Gap=     0.236 Goal=   None    Shift=    0.000
 RMSDP=8.20D-04 MaxDP=7.98D-02 DE=-4.57D-01 OVMax= 6.48D-02

 Cycle   4  Pass 1  IDiag  1:
 RMSU=  5.30D-04    CP:  9.90D-01  7.82D-01  5.82D-01
 E= -1042.42198818402     Delta-E=       -0.035392249366 Rises=F Damp=F
 DIIS: error= 7.21D-03 at cycle   4 NSaved=   4.
 NSaved= 4 IEnMin= 4 EnMin= -1042.42198818402     IErMin= 4 ErrMin= 7.21D-03
 ErrMax= 7.21D-03  0.00D+00 EMaxC= 1.00D-01 BMatC= 1.52D-02 BMatP= 5.55D-02
 IDIUse=3 WtCom= 9.28D-01 WtEn= 7.21D-02
 Coeff-Com:  0.680D-02 0.315D-01 0.340D+00 0.622D+00
 Coeff-En:   0.000D+00 0.000D+00 0.240D+00 0.760D+00
 Coeff:      0.631D-02 0.292D-01 0.333D+00 0.632D+00
 Gap=     0.223 Goal=   None    Shift=    0.000
 RMSDP=2.50D-04 MaxDP=2.89D-02 DE=-3.54D-02 OVMax= 2.64D-02

 Cycle   5  Pass 1  IDiag  1:
 RMSU=  1.03D-04    CP:  9.86D-01  7.15D-01  7.21D-01  7.96D-01
 E= -1042.43362265740     Delta-E=       -0.011634473376 Rises=F Damp=F
 DIIS: error= 7.76D-04 at cycle   5 NSaved=   5.
 NSaved= 5 IEnMin= 5 EnMin= -1042.43362265740     IErMin= 5 ErrMin= 7.76D-04
 ErrMax= 7.76D-04  0.00D+00 EMaxC= 1.00D-01 BMatC= 2.28D-04 BMatP= 1.52D-02
 IDIUse=3 WtCom= 9.92D-01 WtEn= 7.76D-03
 Coeff-Com:  0.196D-02-0.130D-01 0.108D+00 0.248D+00 0.655D+00
 Coeff-En:   0.000D+00 0.000D+00 0.000D+00 0.000D+00 0.100D+01
 Coeff:      0.195D-02-0.129D-01 0.107D+00 0.246D+00 0.657D+00
 Gap=     0.218 Goal=   None    Shift=    0.000
 RMSDP=3.53D-05 MaxDP=1.52D-03 DE=-1.16D-02 OVMax= 2.98D-03

 Cycle   6  Pass 1  IDiag  1:
 RMSU=  2.24D-05    CP:  9.86D-01  7.15D-01  7.28D-01  8.18D-01  7.73D-01
 E= -1042.43384693019     Delta-E=       -0.000224272795 Rises=F Damp=F
 DIIS: error= 1.67D-04 at cycle   6 NSaved=   6.
 NSaved= 6 IEnMin= 6 EnMin= -1042.43384693019     IErMin= 6 ErrMin= 1.67D-04
 ErrMax= 1.67D-04  0.00D+00 EMaxC= 1.00D-01 BMatC= 1.21D-05 BMatP= 2.28D-04
 IDIUse=3 WtCom= 9.98D-01 WtEn= 1.67D-03
 Coeff-Com:  0.107D-02-0.662D-02 0.277D-01 0.652D-01 0.250D+00 0.663D+00
 Coeff-En:   0.000D+00 0.000D+00 0.000D+00 0.000D+00 0.000D+00 0.100D+01
 Coeff:      0.107D-02-0.660D-02 0.277D-01 0.651D-01 0.249D+00 0.663D+00
 Gap=     0.218 Goal=   None    Shift=    0.000
 RMSDP=9.64D-06 MaxDP=9.80D-04 DE=-2.24D-04 OVMax= 9.43D-04

 Cycle   7  Pass 1  IDiag  1:
 RMSU=  7.42D-06    CP:  9.86D-01  7.14D-01  7.31D-01  8.19D-01  7.98D-01
                    CP:  8.35D-01
 E= -1042.43385573356     Delta-E=       -0.000008803363 Rises=F Damp=F
 DIIS: error= 5.44D-05 at cycle   7 NSaved=   7.
 NSaved= 7 IEnMin= 7 EnMin= -1042.43385573356     IErMin= 7 ErrMin= 5.44D-05
 ErrMax= 5.44D-05  0.00D+00 EMaxC= 1.00D-01 BMatC= 1.37D-06 BMatP= 1.21D-05
 IDIUse=1 WtCom= 1.00D+00 WtEn= 0.00D+00
 Coeff-Com:  0.334D-03-0.137D-02 0.717D-03 0.150D-02 0.406D-01 0.307D+00
 Coeff-Com:  0.651D+00
 Coeff:      0.334D-03-0.137D-02 0.717D-03 0.150D-02 0.406D-01 0.307D+00
 Coeff:      0.651D+00
 Gap=     0.218 Goal=   None    Shift=    0.000
 RMSDP=3.11D-06 MaxDP=2.21D-04 DE=-8.80D-06 OVMax= 2.91D-04

 Cycle   8  Pass 1  IDiag  1:
 RMSU=  1.83D-06    CP:  9.86D-01  7.14D-01  7.31D-01  8.21D-01  8.02D-01
                    CP:  8.96D-01  7.74D-01
 E= -1042.43385694384     Delta-E=       -0.000001210286 Rises=F Damp=F
 DIIS: error= 1.06D-05 at cycle   8 NSaved=   8.
 NSaved= 8 IEnMin= 8 EnMin= -1042.43385694384     IErMin= 8 ErrMin= 1.06D-05
 ErrMax= 1.06D-05  0.00D+00 EMaxC= 1.00D-01 BMatC= 5.26D-08 BMatP= 1.37D-06
 IDIUse=1 WtCom= 1.00D+00 WtEn= 0.00D+00
 Coeff-Com:  0.237D-04-0.831D-04-0.128D-02-0.307D-02-0.535D-03 0.643D-01
 Coeff-Com:  0.233D+00 0.708D+00
 Coeff:      0.237D-04-0.831D-04-0.128D-02-0.307D-02-0.535D-03 0.643D-01
 Coeff:      0.233D+00 0.708D+00
 Gap=     0.218 Goal=   None    Shift=    0.000
 RMSDP=8.82D-07 MaxDP=6.77D-05 DE=-1.21D-06 OVMax= 6.63D-05

 Cycle   9  Pass 1  IDiag  1:
 RMSU=  4.31D-07    CP:  9.86D-01  7.14D-01  7.31D-01  8.21D-01  8.05D-01
                    CP:  9.07D-01  8.18D-01  8.21D-01
 E= -1042.43385700438     Delta-E=       -0.000000060539 Rises=F Damp=F
 DIIS: error= 2.58D-06 at cycle   9 NSaved=   9.
 NSaved= 9 IEnMin= 9 EnMin= -1042.43385700438     IErMin= 9 ErrMin= 2.58D-06
 ErrMax= 2.58D-06  0.00D+00 EMaxC= 1.00D-01 BMatC= 4.92D-09 BMatP= 5.26D-08
 IDIUse=1 WtCom= 1.00D+00 WtEn= 0.00D+00
 Coeff-Com: -0.681D-05 0.703D-04-0.615D-03-0.159D-02-0.334D-02 0.480D-02
 Coeff-Com:  0.485D-01 0.282D+00 0.671D+00
 Coeff:     -0.681D-05 0.703D-04-0.615D-03-0.159D-02-0.334D-02 0.480D-02
 Coeff:      0.485D-01 0.282D+00 0.671D+00
 Gap=     0.218 Goal=   None    Shift=    0.000
 RMSDP=1.79D-07 MaxDP=1.16D-05 DE=-6.05D-08 OVMax= 1.44D-05

 Cycle  10  Pass 1  IDiag  1:
 RMSU=  1.13D-07    CP:  9.86D-01  7.14D-01  7.31D-01  8.21D-01  8.05D-01
                    CP:  9.09D-01  8.22D-01  8.77D-01  9.48D-01
 E= -1042.43385700895     Delta-E=       -0.000000004564 Rises=F Damp=F
 DIIS: error= 8.39D-07 at cycle  10 NSaved=  10.
 NSaved=10 IEnMin=10 EnMin= -1042.43385700895     IErMin=10 ErrMin= 8.39D-07
 ErrMax= 8.39D-07  0.00D+00 EMaxC= 1.00D-01 BMatC= 2.56D-10 BMatP= 4.92D-09
 IDIUse=1 WtCom= 1.00D+00 WtEn= 0.00D+00
 Coeff-Com:  0.339D-06 0.119D-04-0.567D-04-0.204D-03-0.646D-03-0.337D-02
 Coeff-Com: -0.275D-02 0.244D-01 0.139D+00 0.844D+00
 Coeff:      0.339D-06 0.119D-04-0.567D-04-0.204D-03-0.646D-03-0.337D-02
 Coeff:     -0.275D-02 0.244D-01 0.139D+00 0.844D+00
 Gap=     0.218 Goal=   None    Shift=    0.000
 RMSDP=5.59D-08 MaxDP=4.24D-06 DE=-4.56D-09 OVMax= 6.18D-06

 Cycle  11  Pass 1  IDiag  1:
 RMSU=  3.04D-08    CP:  9.86D-01  7.14D-01  7.31D-01  8.21D-01  8.06D-01
                    CP:  9.09D-01  8.23D-01  8.92D-01  9.90D-01  1.02D+00
 E= -1042.43385700924     Delta-E=       -0.000000000290 Rises=F Damp=F
 DIIS: error= 2.69D-07 at cycle  11 NSaved=  11.
 NSaved=11 IEnMin=11 EnMin= -1042.43385700924     IErMin=11 ErrMin= 2.69D-07
 ErrMax= 2.69D-07  0.00D+00 EMaxC= 1.00D-01 BMatC= 4.48D-11 BMatP= 2.56D-10
 IDIUse=1 WtCom= 1.00D+00 WtEn= 0.00D+00
 Coeff-Com:  0.526D-06-0.404D-06 0.223D-04 0.296D-04-0.721D-04-0.238D-02
 Coeff-Com: -0.548D-02-0.956D-02 0.160D-01 0.444D+00 0.557D+00
 Coeff:      0.526D-06-0.404D-06 0.223D-04 0.296D-04-0.721D-04-0.238D-02
 Coeff:     -0.548D-02-0.956D-02 0.160D-01 0.444D+00 0.557D+00
 Gap=     0.218 Goal=   None    Shift=    0.000
 RMSDP=1.56D-08 MaxDP=1.38D-06 DE=-2.90D-10 OVMax= 1.15D-06

 Cycle  12  Pass 1  IDiag  1:
 RMSU=  9.37D-09    CP:  9.86D-01  7.14D-01  7.31D-01  8.21D-01  8.06D-01
                    CP:  9.10D-01  8.24D-01  8.93D-01  1.00D+00  1.06D+00
                    CP:  7.53D-01
 E= -1042.43385700931     Delta-E=       -0.000000000070 Rises=F Damp=F
 DIIS: error= 5.67D-08 at cycle  12 NSaved=  12.
 NSaved=12 IEnMin=12 EnMin= -1042.43385700931     IErMin=12 ErrMin= 5.67D-08
 ErrMax= 5.67D-08  0.00D+00 EMaxC= 1.00D-01 BMatC= 7.19D-13 BMatP= 4.48D-11
 IDIUse=1 WtCom= 1.00D+00 WtEn= 0.00D+00
 Coeff-Com: -0.158D-06 0.284D-06 0.280D-05 0.119D-04 0.414D-05-0.755D-04
 Coeff-Com: -0.205D-03-0.152D-02-0.515D-02-0.165D-02 0.447D-01 0.964D+00
 Coeff:     -0.158D-06 0.284D-06 0.280D-05 0.119D-04 0.414D-05-0.755D-04
 Coeff:     -0.205D-03-0.152D-02-0.515D-02-0.165D-02 0.447D-01 0.964D+00
 Gap=     0.218 Goal=   None    Shift=    0.000
 RMSDP=3.56D-09 MaxDP=3.45D-07 DE=-6.96D-11 OVMax= 5.93D-07

 Error on total polarization charges =  0.05135
 SCF Done:  E(RPBE1PBE) =  -1042.43385701     A.U. after   12 cycles
            NFock= 12  Conv=0.36D-08     -V/T= 2.0851
 KE= 9.606376832761D+02 PE=-4.139796799640D+03 EE= 1.280831822696D+03
 SMD-CDS (non-electrostatic) energy       (kcal/mol) =       0.24
 (included in total energy above)
 Leave Link  502 at Sat Nov  9 01:47:21 2019, MaxMem=   104857600 cpu:            1883.2 elap:              79.8
 (Enter /share/home/wli/program/opt/Chem_soft/g16/l601.exe)
 Copying SCF densities to generalized density rwf, IOpCl= 0 IROHF=0.

 **********************************************************************

            Population analysis using the SCF density.

 **********************************************************************

 Orbital symmetries:
       Occupied  (A) (A) (A) (A) (A) (A) (A) (A) (A) (A) (A) (A)
                 (A) (A) (A) (A) (A) (A) (A) (A) (A) (A) (A) (A)
                 (A) (A) (A) (A) (A) (A) (A) (A) (A) (A) (A) (A)
                 (A) (A) (A) (A) (A) (A) (A) (A) (A) (A) (A) (A)
                 (A) (A) (A) (A)
       Virtual   (A) (A) (A) (A) (A) (A) (A) (A) (A) (A) (A) (A)
                 (A) (A) (A) (A) (A) (A) (A) (A) (A) (A) (A) (A)
                 (A) (A) (A) (A) (A) (A) (A) (A) (A) (A) (A) (A)
                 (A) (A) (A) (A) (A) (A) (A) (A) (A) (A) (A) (A)
                 (A) (A) (A) (A) (A) (A) (A) (A) (A) (A) (A) (A)
                 (A) (A) (A) (A) (A) (A) (A) (A) (A) (A) (A) (A)
                 (A) (A) (A) (A) (A) (A) (A) (A) (A) (A) (A) (A)
                 (A) (A) (A) (A) (A) (A) (A) (A) (A) (A) (A) (A)
                 (A) (A) (A) (A) (A) (A) (A) (A) (A) (A) (A) (A)
                 (A) (A) (A) (A) (A) (A) (A) (A) (A) (A) (A) (A)
                 (A) (A) (A) (A) (A) (A) (A) (A) (A) (A) (A) (A)
                 (A) (A) (A) (A) (A) (A) (A) (A) (A) (A) (A) (A)
                 (A) (A) (A) (A) (A) (A) (A) (A) (A) (A) (A) (A)
                 (A) (A) (A) (A) (A) (A) (A) (A) (A) (A) (A) (A)
                 (A) (A) (A) (A) (A) (A) (A) (A) (A) (A) (A) (A)
                 (A) (A) (A) (A) (A) (A) (A) (A) (A) (A) (A) (A)
                 (A) (A) (A) (A) (A) (A) (A) (A) (A) (A) (A) (A)
                 (A) (A) (A) (A) (A) (A) (A) (A) (A) (A) (A) (A)
                 (A) (A) (A) (A) (A) (A) (A) (A) (A) (A) (A) (A)
                 (A) (A) (A) (A) (A) (A) (A) (A) (A) (A) (A) (A)
                 (A) (A) (A) (A) (A) (A) (A) (A) (A) (A) (A) (A)
                 (A) (A) (A) (A) (A) (A) (A) (A) (A) (A) (A) (A)
                 (A) (A) (A) (A) (A) (A) (A) (A) (A) (A) (A) (A)
                 (A) (A) (A) (A) (A) (A) (A) (A) (A) (A) (A) (A)
                 (A) (A) (A) (A) (A) (A) (A) (A) (A) (A) (A) (A)
                 (A) (A) (A) (A) (A) (A) (A) (A) (A) (A) (A) (A)
                 (A) (A) (A) (A) (A) (A) (A) (A) (A) (A) (A) (A)
                 (A) (A) (A) (A) (A) (A) (A) (A) (A) (A) (A) (A)
                 (A) (A) (A) (A) (A) (A) (A) (A) (A) (A) (A) (A)
                 (A) (A) (A) (A) (A) (A) (A) (A) (A) (A) (A) (A)
                 (A) (A) (A) (A) (A) (A) (A) (A)
 The electronic state is 1-A.
 Alpha  occ. eigenvalues --  -77.22276 -77.22256 -10.21963 -10.21819 -10.21785
 Alpha  occ. eigenvalues --  -10.21468 -10.21368 -10.21194  -6.61611  -6.61602
 Alpha  occ. eigenvalues --   -4.75219  -4.75210  -4.75201  -4.75193  -4.74886
 Alpha  occ. eigenvalues --   -4.74874  -3.92861  -2.17206  -2.16810  -2.14156
 Alpha  occ. eigenvalues --   -0.79632  -0.79303  -0.71690  -0.71616  -0.71285
 Alpha  occ. eigenvalues --   -0.71180  -0.56608  -0.55722  -0.46819  -0.45571
 Alpha  occ. eigenvalues --   -0.44785  -0.44511  -0.44209  -0.44089  -0.41759
 Alpha  occ. eigenvalues --   -0.41651  -0.41501  -0.41257  -0.40045  -0.39564
 Alpha  occ. eigenvalues --   -0.38141  -0.37649  -0.35496  -0.35073  -0.35013
 Alpha  occ. eigenvalues --   -0.34430  -0.28478  -0.25519  -0.25250  -0.25045
 Alpha  occ. eigenvalues --   -0.23978  -0.22184
 Alpha virt. eigenvalues --   -0.00377   0.03308   0.03945   0.05902   0.07140
 Alpha virt. eigenvalues --    0.07198   0.07345   0.08145   0.09269   0.09648
 Alpha virt. eigenvalues --    0.09887   0.10144   0.10587   0.11562   0.11848
 Alpha virt. eigenvalues --    0.12117   0.12769   0.13238   0.14041   0.14222
 Alpha virt. eigenvalues --    0.14809   0.15024   0.15493   0.15550   0.16109
 Alpha virt. eigenvalues --    0.16177   0.17158   0.19453   0.20485   0.20929
 Alpha virt. eigenvalues --    0.20977   0.21274   0.21770   0.22221   0.23900
 Alpha virt. eigenvalues --    0.25514   0.26066   0.26543   0.27013   0.28188
 Alpha virt. eigenvalues --    0.29521   0.29934   0.30445   0.31294   0.33663
 Alpha virt. eigenvalues --    0.35499   0.36222   0.36596   0.37304   0.38156
 Alpha virt. eigenvalues --    0.38614   0.39209   0.39850   0.40465   0.41210
 Alpha virt. eigenvalues --    0.41790   0.42206   0.42585   0.42919   0.43669
 Alpha virt. eigenvalues --    0.44425   0.44712   0.45009   0.45891   0.46446
 Alpha virt. eigenvalues --    0.46911   0.47123   0.48003   0.48512   0.48771
 Alpha virt. eigenvalues --    0.49406   0.49872   0.49945   0.50264   0.51337
 Alpha virt. eigenvalues --    0.52096   0.52672   0.54296   0.55787   0.56458
 Alpha virt. eigenvalues --    0.57618   0.59794   0.60738   0.61775   0.62307
 Alpha virt. eigenvalues --    0.64486   0.66152   0.66984   0.67361   0.69388
 Alpha virt. eigenvalues --    0.70721   0.72460   0.72907   0.74970   0.75446
 Alpha virt. eigenvalues --    0.76305   0.76847   0.77739   0.78158   0.78537
 Alpha virt. eigenvalues --    0.79299   0.80961   0.82000   0.84833   0.85884
 Alpha virt. eigenvalues --    0.90217   0.90822   0.91297   0.91997   0.92127
 Alpha virt. eigenvalues --    0.95195   0.95631   0.96428   0.96450   0.97825
 Alpha virt. eigenvalues --    0.98617   1.04005   1.04370   1.04952   1.05286
 Alpha virt. eigenvalues --    1.05797   1.06110   1.07597   1.07814   1.08390
 Alpha virt. eigenvalues --    1.09361   1.10139   1.10666   1.14210   1.16331
 Alpha virt. eigenvalues --    1.25521   1.27776   1.29851   1.30418   1.32151
 Alpha virt. eigenvalues --    1.35488   1.41611   1.41669   1.42089   1.43626
 Alpha virt. eigenvalues --    1.44001   1.45423   1.46721   1.48006   1.49717
 Alpha virt. eigenvalues --    1.50302   1.51237   1.51773   1.52174   1.52851
 Alpha virt. eigenvalues --    1.53579   1.53859   1.54302   1.54861   1.55147
 Alpha virt. eigenvalues --    1.55646   1.56141   1.56811   1.57189   1.57548
 Alpha virt. eigenvalues --    1.58037   1.58351   1.58638   1.60013   1.60273
 Alpha virt. eigenvalues --    1.60956   1.61103   1.61507   1.61956   1.62388
 Alpha virt. eigenvalues --    1.62722   1.63416   1.63563   1.64246   1.64828
 Alpha virt. eigenvalues --    1.65113   1.65647   1.65949   1.66593   1.67359
 Alpha virt. eigenvalues --    1.67925   1.69651   1.71492   1.75157   1.76958
 Alpha virt. eigenvalues --    1.79933   1.81675   1.84830   1.86241   1.86988
 Alpha virt. eigenvalues --    1.89160   1.89751   1.92037   1.92892   1.94469
 Alpha virt. eigenvalues --    1.97687   1.98508   2.02041   2.02227   2.03528
 Alpha virt. eigenvalues --    2.03769   2.04855   2.05693   2.06695   2.07358
 Alpha virt. eigenvalues --    2.07554   2.07830   2.08737   2.10444   2.11138
 Alpha virt. eigenvalues --    2.11680   2.12981   2.14134   2.16333   2.16550
 Alpha virt. eigenvalues --    2.18669   2.19369   2.22212   2.26885   2.27560
 Alpha virt. eigenvalues --    2.30040   2.31586   2.32024   2.32305   2.32975
 Alpha virt. eigenvalues --    2.33849   2.34337   2.34976   2.36764   2.37366
 Alpha virt. eigenvalues --    2.39003   2.39767   2.41445   2.43199   2.44787
 Alpha virt. eigenvalues --    2.45992   2.48214   2.48930   2.49701   2.50793
 Alpha virt. eigenvalues --    2.51872   2.53880   2.54871   2.55550   2.56009
 Alpha virt. eigenvalues --    2.56663   2.57578   2.59235   2.59326   2.61070
 Alpha virt. eigenvalues --    2.61423   2.61817   2.62181   2.63490   2.65144
 Alpha virt. eigenvalues --    2.65908   2.66512   2.66695   2.67407   2.70404
 Alpha virt. eigenvalues --    2.73244   2.74519   2.77075   2.77604   2.80365
 Alpha virt. eigenvalues --    2.84220   2.85190   2.85510   2.85964   2.90317
 Alpha virt. eigenvalues --    2.91265   2.93770   2.97244   2.98021   2.98974
 Alpha virt. eigenvalues --    3.04040   3.08628   3.09904   3.10671   3.11987
 Alpha virt. eigenvalues --    3.12419   3.14098   3.14979   3.17054   3.18448
 Alpha virt. eigenvalues --    3.18855   3.19539   3.19904   3.22640   3.23140
 Alpha virt. eigenvalues --    3.23793   3.28818   3.29392   3.29886   3.31574
 Alpha virt. eigenvalues --    3.33031   3.33498   3.35530   3.35831   3.36537
 Alpha virt. eigenvalues --    3.37111   3.37340   3.37730   3.46750   3.48516
 Alpha virt. eigenvalues --    3.48966   3.49169   3.50568   3.51841   3.53007
 Alpha virt. eigenvalues --    3.54076   3.54802   3.55639   3.55894   3.58456
 Alpha virt. eigenvalues --    3.59200   3.59918   3.60299   3.60956   3.62011
 Alpha virt. eigenvalues --    3.63608   3.63700   3.63944   3.64201   3.65515
 Alpha virt. eigenvalues --    3.71618   3.72536   3.72992   3.73448   3.79712
 Alpha virt. eigenvalues --    3.80041   4.24978   4.25399   4.26941   4.27398
 Alpha virt. eigenvalues --    4.27664   4.27919   4.28784   4.30210   4.31936
 Alpha virt. eigenvalues --    4.33003   4.33931   4.35245   4.39560   4.42373
 Alpha virt. eigenvalues --    4.45120   4.45905   4.46427   4.48090   7.73279
 Alpha virt. eigenvalues --    7.81241   7.81692   7.82513   7.83715   7.86885
 Alpha virt. eigenvalues --   15.52712  15.58224  22.34652  22.36928  22.37019
 Alpha virt. eigenvalues --   22.38029  22.39031  22.42074  27.25415  31.72237
 Alpha virt. eigenvalues --   33.44855  52.02384 284.92496
          Condensed to atoms (all electrons):
               1          2          3          4          5          6
     1  Pt  17.221805   0.213386   0.230713  -0.020274  -0.000605   0.004679
     2  P    0.213386  13.885225   0.024396   0.325307  -0.023956  -0.029940
     3  P    0.230713   0.024396  13.948270  -0.006165  -0.000169   0.000438
     4  C   -0.020274   0.325307  -0.006165   5.024164   0.394566   0.387818
     5  H   -0.000605  -0.023956  -0.000169   0.394566   0.495427  -0.019719
     6  H    0.004679  -0.029940   0.000438   0.387818  -0.019719   0.533635
     7  H   -0.003528  -0.024914   0.000149   0.395733  -0.013269  -0.020895
     8  C   -0.033810   0.361975   0.002627  -0.040610  -0.000684  -0.003516
     9  H   -0.000583  -0.026215  -0.000003   0.005161  -0.000122  -0.000132
    10  H    0.005783  -0.030549  -0.000137  -0.005792  -0.000128   0.004762
    11  H   -0.000566  -0.026240  -0.000008  -0.000229   0.001349  -0.000398
    12  C   -0.019523   0.322982  -0.007578  -0.033621   0.005082  -0.005700
    13  H   -0.002581  -0.025321  -0.000360  -0.000031  -0.000158   0.000097
    14  H    0.004486  -0.030154   0.000501  -0.005870  -0.000146   0.005011
    15  H   -0.000265  -0.024215  -0.000030   0.004905  -0.000138  -0.000125
    16  C   -0.031317   0.002408   0.328023  -0.000325   0.000032   0.000004
    17  H   -0.001908  -0.000093  -0.023426   0.000178   0.000014   0.000004
    18  H    0.006124  -0.000046  -0.029553   0.000007  -0.000003  -0.000000
    19  H   -0.000625  -0.000180  -0.022709   0.000029  -0.000002  -0.000001
    20  C   -0.036427   0.002482   0.329097  -0.000030  -0.000003   0.000005
    21  H    0.006159  -0.000091  -0.030038  -0.000001   0.000000  -0.000000
    22  H   -0.000288   0.000031  -0.022418  -0.000003   0.000000  -0.000000
    23  H   -0.000482  -0.000156  -0.022991   0.000004   0.000000  -0.000000
    24  C   -0.023867  -0.015227   0.301227   0.000930   0.000140  -0.000284
    25  H    0.000423  -0.000634  -0.025659  -0.000063   0.000003   0.000003
    26  H    0.002890   0.000524  -0.026519  -0.000045  -0.000004   0.000005
    27  H   -0.001099   0.000197  -0.026092  -0.000822  -0.000079   0.000084
    28  H    0.320644  -0.031493   0.019773   0.000829  -0.000001  -0.000028
    29  H    0.325168   0.001254  -0.034039   0.001479  -0.000071  -0.000062
               7          8          9         10         11         12
     1  Pt  -0.003528  -0.033810  -0.000583   0.005783  -0.000566  -0.019523
     2  P   -0.024914   0.361975  -0.026215  -0.030549  -0.026240   0.322982
     3  P    0.000149   0.002627  -0.000003  -0.000137  -0.000008  -0.007578
     4  C    0.395733  -0.040610   0.005161  -0.005792  -0.000229  -0.033621
     5  H   -0.013269  -0.000684  -0.000122  -0.000128   0.001349   0.005082
     6  H   -0.020895  -0.003516  -0.000132   0.004762  -0.000398  -0.005700
     7  H    0.518724   0.005267  -0.000151  -0.000132  -0.000080  -0.000514
     8  C    0.005267   5.030051   0.396360   0.386493   0.396348  -0.041669
     9  H   -0.000151   0.396360   0.497127  -0.022014  -0.012242  -0.000178
    10  H   -0.000132   0.386493  -0.022014   0.546675  -0.021926  -0.005896
    11  H   -0.000080   0.396348  -0.012242  -0.021926   0.496428   0.005160
    12  C   -0.000514  -0.041669  -0.000178  -0.005896   0.005160   5.033962
    13  H    0.000833   0.005191  -0.000077  -0.000073  -0.000158   0.394116
    14  H   -0.000058  -0.003105  -0.000396   0.004850  -0.000133   0.387297
    15  H   -0.000149  -0.000339   0.001284  -0.000141  -0.000127   0.394307
    16  C   -0.000071  -0.000041  -0.000001   0.000002  -0.000000   0.000011
    17  H    0.000074   0.000001   0.000000  -0.000000  -0.000001   0.000001
    18  H   -0.000000   0.000001   0.000000  -0.000000  -0.000000  -0.000006
    19  H    0.000001   0.000001   0.000000  -0.000000  -0.000000   0.000004
    20  C    0.000019  -0.000019  -0.000001   0.000001  -0.000001  -0.000297
    21  H   -0.000000   0.000001   0.000000  -0.000000   0.000000   0.000010
    22  H    0.000000  -0.000000  -0.000000   0.000000   0.000000   0.000067
    23  H   -0.000001   0.000000   0.000000  -0.000000   0.000000   0.000016
    24  C   -0.000685  -0.000292   0.000010  -0.000003   0.000008   0.003351
    25  H   -0.000201   0.000017  -0.000001  -0.000001  -0.000001  -0.001677
    26  H    0.000103   0.000008  -0.000000  -0.000000  -0.000000   0.000022
    27  H    0.003876   0.000049  -0.000002  -0.000000  -0.000001  -0.001028
    28  H   -0.000012  -0.000097   0.000048  -0.000025   0.000050   0.000767
    29  H   -0.000061  -0.010778  -0.001099   0.001231  -0.000898   0.001762
              13         14         15         16         17         18
     1  Pt  -0.002581   0.004486  -0.000265  -0.031317  -0.001908   0.006124
     2  P   -0.025321  -0.030154  -0.024215   0.002408  -0.000093  -0.000046
     3  P   -0.000360   0.000501  -0.000030   0.328023  -0.023426  -0.029553
     4  C   -0.000031  -0.005870   0.004905  -0.000325   0.000178   0.000007
     5  H   -0.000158  -0.000146  -0.000138   0.000032   0.000014  -0.000003
     6  H    0.000097   0.005011  -0.000125   0.000004   0.000004  -0.000000
     7  H    0.000833  -0.000058  -0.000149  -0.000071   0.000074  -0.000000
     8  C    0.005191  -0.003105  -0.000339  -0.000041   0.000001   0.000001
     9  H   -0.000077  -0.000396   0.001284  -0.000001   0.000000   0.000000
    10  H   -0.000073   0.004850  -0.000141   0.000002  -0.000000  -0.000000
    11  H   -0.000158  -0.000133  -0.000127  -0.000000  -0.000001  -0.000000
    12  C    0.394116   0.387297   0.394307   0.000011   0.000001  -0.000006
    13  H    0.518121  -0.020067  -0.014268  -0.000002  -0.000001   0.000001
    14  H   -0.020067   0.533676  -0.019569   0.000006  -0.000000  -0.000000
    15  H   -0.014268  -0.019569   0.496892  -0.000005   0.000000   0.000000
    16  C   -0.000002   0.000006  -0.000005   5.030469   0.392217   0.386765
    17  H   -0.000001  -0.000000   0.000000   0.392217   0.509591  -0.022257
    18  H    0.000001  -0.000000   0.000000   0.386765  -0.022257   0.539280
    19  H   -0.000000  -0.000000   0.000000   0.394012  -0.012119  -0.019814
    20  C   -0.000013   0.000002   0.000030  -0.026651   0.005119  -0.005887
    21  H    0.000000  -0.000000  -0.000002  -0.006497  -0.000129   0.004799
    22  H   -0.000030   0.000000   0.000010   0.004931  -0.000158  -0.000135
    23  H   -0.000000  -0.000000  -0.000001  -0.001009  -0.000085  -0.000058
    24  C    0.000971  -0.000414  -0.000112  -0.043164  -0.000090  -0.005117
    25  H    0.001376   0.000161   0.000013   0.005171  -0.000156  -0.000081
    26  H    0.000244   0.000005  -0.000006  -0.004145  -0.000056   0.004964
    27  H   -0.000033   0.000037   0.000042  -0.000229   0.001224  -0.000173
    28  H   -0.000034  -0.000028  -0.000002  -0.010625  -0.000080   0.000264
    29  H   -0.000081  -0.000072  -0.000081   0.000960  -0.000022  -0.000032
              19         20         21         22         23         24
     1  Pt  -0.000625  -0.036427   0.006159  -0.000288  -0.000482  -0.023867
     2  P   -0.000180   0.002482  -0.000091   0.000031  -0.000156  -0.015227
     3  P   -0.022709   0.329097  -0.030038  -0.022418  -0.022991   0.301227
     4  C    0.000029  -0.000030  -0.000001  -0.000003   0.000004   0.000930
     5  H   -0.000002  -0.000003   0.000000   0.000000   0.000000   0.000140
     6  H   -0.000001   0.000005  -0.000000  -0.000000  -0.000000  -0.000284
     7  H    0.000001   0.000019  -0.000000   0.000000  -0.000001  -0.000685
     8  C    0.000001  -0.000019   0.000001  -0.000000   0.000000  -0.000292
     9  H    0.000000  -0.000001   0.000000  -0.000000   0.000000   0.000010
    10  H   -0.000000   0.000001  -0.000000   0.000000  -0.000000  -0.000003
    11  H   -0.000000  -0.000001   0.000000   0.000000   0.000000   0.000008
    12  C    0.000004  -0.000297   0.000010   0.000067   0.000016   0.003351
    13  H   -0.000000  -0.000013   0.000000  -0.000030  -0.000000   0.000971
    14  H   -0.000000   0.000002  -0.000000   0.000000  -0.000000  -0.000414
    15  H    0.000000   0.000030  -0.000002   0.000010  -0.000001  -0.000112
    16  C    0.394012  -0.026651  -0.006497   0.004931  -0.001009  -0.043164
    17  H   -0.012119   0.005119  -0.000129  -0.000158  -0.000085  -0.000090
    18  H   -0.019814  -0.005887   0.004799  -0.000135  -0.000058  -0.005117
    19  H    0.489418  -0.001170  -0.000055  -0.000099   0.001424   0.005581
    20  C   -0.001170   5.037294   0.386364   0.392775   0.393719  -0.042664
    21  H   -0.000055   0.386364   0.541446  -0.022371  -0.019797  -0.004383
    22  H   -0.000099   0.392775  -0.022371   0.504674  -0.011763  -0.001327
    23  H    0.001424   0.393719  -0.019797  -0.011763   0.490579   0.005522
    24  C    0.005581  -0.042664  -0.004383  -0.001327   0.005522   5.082155
    25  H   -0.000152  -0.000416  -0.000264   0.001598  -0.000124   0.393181
    26  H   -0.000128  -0.004687   0.004830   0.000051  -0.000128   0.387599
    27  H   -0.000158   0.005249  -0.000067  -0.000153  -0.000154   0.395214
    28  H    0.002128  -0.012734   0.000482  -0.000256   0.002739   0.003858
    29  H   -0.000014   0.000786  -0.000031  -0.000000  -0.000020   0.000593
              25         26         27         28         29
     1  Pt   0.000423   0.002890  -0.001099   0.320644   0.325168
     2  P   -0.000634   0.000524   0.000197  -0.031493   0.001254
     3  P   -0.025659  -0.026519  -0.026092   0.019773  -0.034039
     4  C   -0.000063  -0.000045  -0.000822   0.000829   0.001479
     5  H    0.000003  -0.000004  -0.000079  -0.000001  -0.000071
     6  H    0.000003   0.000005   0.000084  -0.000028  -0.000062
     7  H   -0.000201   0.000103   0.003876  -0.000012  -0.000061
     8  C    0.000017   0.000008   0.000049  -0.000097  -0.010778
     9  H   -0.000001  -0.000000  -0.000002   0.000048  -0.001099
    10  H   -0.000001  -0.000000  -0.000000  -0.000025   0.001231
    11  H   -0.000001  -0.000000  -0.000001   0.000050  -0.000898
    12  C   -0.001677   0.000022  -0.001028   0.000767   0.001762
    13  H    0.001376   0.000244  -0.000033  -0.000034  -0.000081
    14  H    0.000161   0.000005   0.000037  -0.000028  -0.000072
    15  H    0.000013  -0.000006   0.000042  -0.000002  -0.000081
    16  C    0.005171  -0.004145  -0.000229  -0.010625   0.000960
    17  H   -0.000156  -0.000056   0.001224  -0.000080  -0.000022
    18  H   -0.000081   0.004964  -0.000173   0.000264  -0.000032
    19  H   -0.000152  -0.000128  -0.000158   0.002128  -0.000014
    20  C   -0.000416  -0.004687   0.005249  -0.012734   0.000786
    21  H   -0.000264   0.004830  -0.000067   0.000482  -0.000031
    22  H    0.001598   0.000051  -0.000153  -0.000256  -0.000000
    23  H   -0.000124  -0.000128  -0.000154   0.002739  -0.000020
    24  C    0.393181   0.387599   0.395214   0.003858   0.000593
    25  H    0.510078  -0.017712  -0.017675  -0.000068  -0.000004
    26  H   -0.017712   0.519411  -0.018292  -0.000066  -0.000022
    27  H   -0.017675  -0.018292   0.515272  -0.000054   0.000006
    28  H   -0.000068  -0.000066  -0.000054   0.784962   0.024589
    29  H   -0.000004  -0.000022   0.000006   0.024589   0.791021
 Mulliken charges:
               1
     1  Pt  -0.164514
     2  P    0.149255
     3  P    0.092679
     4  C   -0.427231
     5  H    0.162640
     6  H    0.144256
     7  H    0.139943
     8  C   -0.449431
     9  H    0.163228
    10  H    0.137018
    11  H    0.163664
    12  C   -0.431231
    13  H    0.142336
    14  H    0.143979
    15  H    0.162091
    16  C   -0.420927
    17  H    0.152159
    18  H    0.140958
    19  H    0.164628
    20  C   -0.421943
    21  H    0.139636
    22  H    0.154864
    23  H    0.162763
    24  C   -0.442710
    25  H    0.152865
    26  H    0.151155
    27  H    0.144860
    28  H   -0.105530
    29  H   -0.101462
 Sum of Mulliken charges =  -0.00000
 Mulliken charges with hydrogens summed into heavy atoms:
               1
     1  Pt  -0.371507
     2  P    0.149255
     3  P    0.092679
     4  C    0.019608
     8  C    0.014480
    12  C    0.017175
    16  C    0.036819
    20  C    0.035321
    24  C    0.006171
 Electronic spatial extent (au):  <R**2>=           2770.5533
 Charge=              0.0000 electrons
 Dipole moment (field-independent basis, Debye):
    X=             -0.0194    Y=              6.7752    Z=              0.0254  Tot=              6.7752
 Quadrupole moment (field-independent basis, Debye-Ang):
   XX=            -78.1048   YY=            -98.8126   ZZ=            -90.9303
   XY=              0.0564   XZ=              0.0161   YZ=             -0.0079
 Traceless Quadrupole moment (field-independent basis, Debye-Ang):
   XX=             11.1778   YY=             -9.5300   ZZ=             -1.6477
   XY=              0.0564   XZ=              0.0161   YZ=             -0.0079
 Octapole moment (field-independent basis, Debye-Ang**2):
  XXX=              0.0246  YYY=            -70.0010  ZZZ=             -1.4241  XYY=             -0.9145
  XXY=            -18.7213  XXZ=              0.0986  XZZ=              1.8954  YZZ=            -27.9887
  YYZ=              0.2143  XYZ=              0.2302
 Hexadecapole moment (field-independent basis, Debye-Ang**3):
 XXXX=          -2313.3635 YYYY=           -964.9366 ZZZZ=           -532.9725 XXXY=              3.8219
 XXXZ=             -1.4552 YYYX=              1.3695 YYYZ=              1.9131 ZZZX=              1.3116
 ZZZY=             -0.5000 XXYY=           -535.0116 XXZZ=           -489.7406 YYZZ=           -248.1301
 XXYZ=             -0.5898 YYXZ=             -0.2607 ZZXY=             -4.0015
 N-N= 8.558934366588D+02 E-N=-4.139796804742D+03  KE= 9.606376832761D+02
 No NMR shielding tensors so no spin-rotation constants.
 Leave Link  601 at Sat Nov  9 01:47:22 2019, MaxMem=   104857600 cpu:               6.2 elap:               0.3
 (Enter /share/home/wli/program/opt/Chem_soft/g16/l701.exe)
 ... and contract with generalized density number  0.
 Compute integral first derivatives.
 R6Disp: Adding Grimme-D3(BJ) dispersion energy 1st derivatives to the gradient.
 PrsmSu:  requested number of processors reduced to:  13 ShMem   1 Linda.
   1 Symmetry operations used in ECPInt.
 ECPInt:  NShTT=   17391 NPrTT=   50365 LenC2=   16401 LenP2D=   36161.
 LDataN:  DoStor=T MaxTD1= 9 Len=  602
 Number of processors reduced to  17 by ecpmxn.
 D1PCM: PCM CHGder 1st derivatives, ID1Alg=3 FixD1E=F DoIter=F DoCFld=F I1PDM=0.
 GePol: Maximum number of non-zero 1st derivatives   =     238
 CoulSu:  requested number of processors reduced to:  12 ShMem   1 Linda.
 CoulSu:  requested number of processors reduced to:  13 ShMem   1 Linda.
 Leave Link  701 at Sat Nov  9 01:47:25 2019, MaxMem=   104857600 cpu:              62.4 elap:               3.0
 (Enter /share/home/wli/program/opt/Chem_soft/g16/l702.exe)
 L702 exits ... SP integral derivatives will be done elsewhere.
 Leave Link  702 at Sat Nov  9 01:47:25 2019, MaxMem=   104857600 cpu:               0.4 elap:               0.0
 (Enter /share/home/wli/program/opt/Chem_soft/g16/l703.exe)
 Integral derivatives from FoFJK, PRISM(SPDF).
 Compute integral first derivatives, UseDBF=F ICtDFT=           0.
 Calling FoFJK, ICntrl=      2127 FMM=F ISym2X=0 I1Cent= 0 IOpClX= 0 NMat=1 NMatS=1 NMatT=0.
 FoFJK:  IHMeth= 1 ICntrl=    2127 DoSepK=F KAlg= 0 I1Cent=           0 FoldK=F
 IRaf=         0 NMat=       1 IRICut=       1 DoRegI=T DoRafI=F ISym2E= 0 IDoP0=0 IntGTp=1.
 FoFCou: FMM=F IPFlag=           0 FMFlag=      100000 FMFlg1=         800
         NFxFlg=           0 DoJE=F BraDBF=F KetDBF=F FulRan=T
         wScrn=  0.000000 ICntrl=      2127 IOpCl=  0 I1Cent=           0 NGrid=           0
         NMat0=    1 NMatS0=      1 NMatT0=    0 NMatD0=    1 NMtDS0=    0 NMtDT0=    0
 Symmetry not used in FoFCou.
 Defaulting to unpruned grid for atomic number  78.
 Defaulting to unpruned grid for atomic number  78.
 Defaulting to unpruned grid for atomic number  78.
 Defaulting to unpruned grid for atomic number  78.
 Defaulting to unpruned grid for atomic number  78.
 Defaulting to unpruned grid for atomic number  78.
 Defaulting to unpruned grid for atomic number  78.
 Defaulting to unpruned grid for atomic number  78.
 Defaulting to unpruned grid for atomic number  78.
 Defaulting to unpruned grid for atomic number  78.
 Defaulting to unpruned grid for atomic number  78.
 Defaulting to unpruned grid for atomic number  78.
 Defaulting to unpruned grid for atomic number  78.
 Defaulting to unpruned grid for atomic number  78.
 Defaulting to unpruned grid for atomic number  78.
 Defaulting to unpruned grid for atomic number  78.
 Defaulting to unpruned grid for atomic number  78.
 Defaulting to unpruned grid for atomic number  78.
 Defaulting to unpruned grid for atomic number  78.
 Defaulting to unpruned grid for atomic number  78.
 Defaulting to unpruned grid for atomic number  78.
 Defaulting to unpruned grid for atomic number  78.
 Defaulting to unpruned grid for atomic number  78.
 Defaulting to unpruned grid for atomic number  78.
 Leave Link  703 at Sat Nov  9 01:47:42 2019, MaxMem=   104857600 cpu:             411.9 elap:              17.2
 (Enter /share/home/wli/program/opt/Chem_soft/g16/l716.exe)
 Dipole        =-7.63801479D-03 2.66555034D+00 9.97795293D-03
 ***** Axes restored to original set *****
 -------------------------------------------------------------------
 Center     Atomic                   Forces (Hartrees/Bohr)
 Number     Number              X              Y              Z
 -------------------------------------------------------------------
      1       78          -0.000008123    0.001125200   -0.000245381
      2       15          -0.000718956    0.000072303    0.000007708
[...]
 -0.00001430,-0.00000526,-0.00001314,-0.00000663,-0.00190748,-0.0092696
 5,0.00412634,0.00005029,0.00000026,-0.00002935,-0.00001100,0.00000254,
 -0.00000494,-0.00000509,0.00001820,0.00000935,-0.00000816,0.00001875,0
 .00002088,0.00001452,0.00002501,-0.00000810,0.00000024,0.00000106,0.,0
 .00001346,-0.00000446,0.00000100,-0.00000219,0.00000283,0.00000028,0.0
 0005434,0.00001632,0.00001632,0.00000365,0.00001148,-0.00001986,-0.000
 00508,0.00001742,-0.00001840,-0.00000613,0.00000177,0.00000301,0.00066
 451,0.00041155,0.00020418,-0.00000389,0.00022785,0.00004381,-0.0000250
 4,-0.00011437,-0.00002205,-0.00001320,0.00000417,-0.00050110,-0.070760
 69,-0.25056339,0.10379530,-0.00704300,-0.01429579,0.00672782,0.0028324
 6,0.00639341,-0.00357794,0.07733373,0.26736025,0.00059718,0.00009891,-
 0.00016282,0.00002293,-0.00006415,0.00001561,-0.00395028,-0.01216401,0
 .00472037,0.00004720,0.00001850,-0.00001605,-0.00001366,0.00000685,-0.
 00000310,0.00000260,0.00001407,0.00000942,0.00000876,0.00000278,0.0000
 2732,0.00002101,0.00002554,-0.00000211,-0.00000372,0.00000320,0.000000
 51,0.00001228,-0.00000327,0.00000099,-0.00000309,0.00000180,-0.0000001
 2,0.00002881,0.00001484,0.00001300,0.00001066,-0.00000994,-0.00003126,
 0.00000294,0.00000950,-0.00000613,-0.00001966,0.00001060,0.00000153,0.
 00080524,0.00055269,0.00083629,-0.00009298,0.00020454,0.00027590,0.000
 00997,-0.00003893,-0.00004898,-0.00014002,-0.00019340,-0.00063862,0.03
 556118,0.09879982,-0.08812492,-0.00021128,-0.00105046,-0.00111145,0.00
 885066,0.02615728,-0.01107789,-0.03785467,-0.10963797,0.09687841,0.005
 65031,0.00901117,-0.00522746,0.00155469,0.00246850,-0.00118878,-0.0452
 3696,0.00401572,-0.00313369,-0.00036602,-0.00054588,0.00015696,-0.0000
 3033,0.00005386,0.00006677,0.00002511,-0.00029603,-0.00022110,-0.00064
 721,0.00012085,-0.00035650,-0.00021603,-0.00030500,-0.00005358,0.00013
 332,-0.00000094,-0.00006327,-0.00014918,-0.00005975,0.00001543,0.00008
 851,0.00004745,0.00005214,-0.00057175,-0.00094716,0.00016813,-0.001089
 23,0.00043896,0.00068684,-0.00016664,0.00000072,0.00016823,-0.00005985
 ,0.00010411,-0.00005648,-0.00162204,-0.00903769,0.00556228,0.00021527,
 0.00024496,-0.00030503,0.00053573,-0.00089742,-0.00053272,-0.00081116,
 0.00052434,0.00245185,-0.00473011,-0.01904871,0.00786581,0.00135221,-0
 .00015426,0.00089506,0.00071599,0.00060407,0.00018347,-0.00377333,-0.0
 0215230,-0.00307762,0.54265493,-0.00184455,-0.00291583,0.00297500,-0.0
 0094208,-0.00154040,0.00043615,-0.01459826,-0.14284909,0.04325678,0.00
 043136,0.00024686,0.00000547,0.00008672,-0.00009067,-0.00002342,0.0001
 1030,0.00007440,0.00013340,-0.00013648,-0.00019207,-0.00025152,0.00009
 786,0.00012972,-0.00010628,-0.00004701,-0.00002128,0.00002460,0.000099
 35,0.00002990,0.00000336,-0.00007234,-0.00001358,-0.00000969,0.0002986
 9,0.00016941,-0.00018304,0.00037322,-0.00011433,0.00025313,0.00001152,
 0.00007933,-0.00013127,0.00007187,-0.00006105,0.00002861,0.00182805,0.
 00386837,-0.00178713,0.00009245,0.00012391,0.00035472,-0.00025723,0.00
 043437,-0.00051953,0.00106715,0.00008094,-0.00180442,-0.00200120,-0.01
 226976,0.00556349,0.00090071,0.00121842,0.00060644,0.00076095,0.000273
 19,0.00011991,-0.00175311,-0.00063259,-0.00194631,-0.01141929,0.424220
 84,-0.00022781,-0.00016084,0.00247657,-0.00265407,0.00195895,-0.001990
 65,0.00724975,0.03813991,-0.06507876,-0.00044968,-0.00039018,-0.000141
 14,0.00012875,-0.00008830,0.00004291,0.00003757,0.00000294,0.00000125,
 -0.00035042,-0.00004786,-0.00036439,0.00003622,-0.00002196,-0.00004503
 ,0.00001817,-0.00001842,-0.00000010,0.00000212,0.00000150,0.00000519,0
 .00000907,0.00000383,-0.00000586,-0.00059016,-0.00000625,-0.00049457,0
 .00080217,0.00022196,0.00039374,-0.00005464,0.00003448,-0.00003406,0.0
 0020282,-0.00011284,-0.00001535,0.00437277,0.02381933,-0.01087386,-0.0
 0082743,0.00003902,0.00143511,-0.00078766,0.00012699,0.00180501,0.0024
 9844,-0.00173186,-0.00581754,-0.00345475,-0.01288019,0.00724075,0.0006
 5852,0.00017229,0.00019339,0.00074680,0.00044186,0.00052210,-0.0033291
 9,-0.00173439,-0.00219428,0.00629004,0.05687826,0.52014339,-0.00007062
 ,0.00001422,-0.00011836,0.00010197,0.00011381,-0.00042396,-0.00254243,
 0.00000752,0.00175745,-0.00002019,-0.00007455,0.00007618,0.00000368,0.
 00001384,0.00001324,-0.00005334,0.00003258,-0.00001559,0.00006841,0.00
 007523,0.00000754,-0.00001342,-0.00003666,0.00013486,-0.00001057,0.000
 00670,-0.00000490,-0.00001189,0.00000162,-0.00000723,0.00003981,-0.000
 01923,0.00000038,-0.00028664,0.00011424,0.00003132,-0.00214894,-0.0001
 0880,0.00021422,0.00006314,-0.00005422,0.00004829,0.00001769,-0.000033
 57,0.00003394,0.00014723,-0.00084955,0.00044484,-0.00000302,0.00006324
 ,0.00025158,0.00035327,-0.00006917,-0.00038104,0.00033822,0.00004055,0
 .00032473,-0.00005111,0.00029048,-0.00021384,-0.00007839,0.00002151,0.
 00012702,-0.00012910,-0.00045071,-0.00004903,0.00007303,0.00005127,-0.
 00012142,-0.06892504,0.00903192,0.08101545,0.07387262,0.00034327,0.000
 43077,-0.00129306,0.00027175,0.00001780,-0.00002549,-0.00733548,0.0036
 7812,0.02181847,-0.00010018,-0.00007995,0.00001250,-0.00000936,0.00000
 401,-0.00000091,-0.00003708,-0.00001079,-0.00003745,0.00002756,0.00001
 460,0.00000966,-0.00002534,-0.00002732,0.00002537,0.00000739,-0.000001
 68,-0.00000470,-0.00001923,-0.00000010,-0.00000323,0.00000917,0.000002
 10,-0.00000319,-0.00012580,0.00002185,-0.00001723,0.00024343,0.0007215
 6,-0.00003389,0.00000897,-0.00002570,-0.00004737,0.00006998,-0.0000540
 7,-0.00003334,-0.00094312,-0.00637464,0.00224774,0.00026412,-0.0000095
 6,-0.00021737,-0.00001396,-0.00005239,-0.00036189,-0.00090330,0.000660
 49,0.00194783,0.00050387,0.00144844,-0.00085438,-0.00004617,-0.0000780
 4,-0.00004305,-0.00051753,-0.00056083,-0.00025959,0.00046348,0.0001077
 4,0.00007162,0.00633498,-0.04088988,-0.01863229,-0.00837177,0.04462537
 ,-0.00027603,-0.00008204,0.00093211,-0.00000473,0.00028405,-0.00063712
 ,0.00273376,-0.00301923,-0.00958366,0.00005498,-0.00006163,0.00010526,
 0.00000890,0.00001942,0.00002823,-0.00003393,0.00002641,0.00000082,0.0
 0003025,0.00005589,-0.00003519,-0.00000544,-0.00005380,0.00017041,-0.0
 0001866,0.00001915,-0.00000597,-0.00001346,0.00000439,-0.00001042,0.00
 004717,-0.00003422,0.00001345,0.00014041,0.00031328,0.00003557,0.00026
 642,-0.00043875,0.00037004,0.00019651,-0.00016797,0.00007709,0.0000196
 4,-0.00006229,-0.00000640,0.00004539,0.00290521,-0.00040547,-0.0000974
 4,-0.00006446,0.00029288,-0.00015404,-0.00002389,0.00026041,0.00036311
 ,-0.00036383,-0.00056844,-0.00004354,-0.00027580,0.00051835,0.00000547
 ,0.00004717,-0.00002161,0.00017051,0.00005255,0.00029654,-0.00014327,0
 .00007864,0.00008873,0.08075317,-0.02589426,-0.29374499,-0.08821018,0.
 02623507,0.31388284,0.00014493,0.00002146,0.00017733,0.00013020,-0.000
 16929,0.00016685,0.00130687,-0.00243611,0.00032369,0.00011861,-0.00002
 842,-0.00011080,-0.00006085,0.00003389,-0.00000576,-0.00000803,0.00001
 730,0.00002094,-0.00002225,0.00008008,0.00010581,0.00000355,0.00004730
 ,-0.00004157,-0.00000323,0.00000248,0.00000421,-0.00000316,-0.00000663
 ,0.00000404,-0.00001662,0.00001001,-0.00000401,0.00014180,-0.00013383,
 0.00010367,-0.00008894,0.00017431,-0.00012037,-0.00006006,0.00005400,-
 0.00003218,-0.00006552,0.00004672,-0.00000679,0.00071643,-0.00032524,-
 0.00030852,-0.00007904,0.00006314,0.00001128,0.00007303,0.00011904,-0.
 00030446,0.00014561,-0.00010632,-0.00008048,0.00089614,-0.00030462,0.0
 0005887,0.00013857,0.00016880,0.00017411,-0.00008347,-0.00000711,-0.00
 003311,0.00017301,0.00000313,0.00003809,-0.25049972,0.11398318,0.00362
 128,-0.00735813,0.00350486,-0.00119817,0.27078906,-0.00161210,-0.00232
 564,0.00198889,-0.00150247,-0.00092990,0.00026209,0.01969273,-0.013299
 83,0.00042883,0.00035810,0.00017306,-0.00018038,-0.00005999,0.00000079
 ,-0.00003492,0.00000557,0.00013949,0.00010826,-0.00001391,0.00007341,0
 .00010312,0.00011886,0.00019659,-0.00003641,-0.00006001,0.00000045,0.0
 0003008,0.00009645,0.00002094,-0.00000248,-0.00005774,-0.00000903,-0.0
 0002386,0.00015870,0.00013135,0.00012503,0.00000898,0.00007469,-0.0001
 6424,-0.00004681,0.00011846,-0.00009761,-0.00005035,0.00001624,0.00003
 429,0.00004627,0.00161432,-0.00135075,-0.00005678,0.00000593,-0.000035
 25,-0.00060302,0.00036791,0.00075028,-0.00012014,0.00006896,-0.0005272
 6,0.00083657,0.00166318,-0.00033214,-0.00104212,-0.00019570,-0.0003191
 7,-0.00002107,0.00000214,0.00003223,0.00000554,0.00052315,0.00027265,0
 .12253824,-0.10642995,-0.00525709,0.00073157,-0.00184248,0.00038329,-0
 .12539749,0.11184687,0.00088961,0.00143929,0.00001657,0.00067219,0.000
 32657,-0.00034234,-0.00900440,0.00572103,-0.00156573,-0.00002590,-0.00
 010172,0.00000954,-0.00004198,0.00005116,0.00002263,-0.00001078,-0.000
 03218,-0.00002692,0.00001776,0.00005477,0.00006728,-0.00004216,-0.0000
 8691,0.00009269,0.00000747,0.00001696,-0.00001194,-0.00003996,-0.00000
 809,-0.00000398,0.00003927,-0.00001038,0.00001707,-0.00002990,0.000086
 89,0.00006958,-0.00005289,-0.00024181,-0.00005269,0.00009038,-0.000118
 71,0.00009594,-0.00003881,0.00001574,-0.00001385,-0.00090250,-0.000452
 97,0.00062191,-0.00000734,0.00003690,-0.00008043,0.00050652,0.00003804
 ,-0.00025444,0.00007720,-0.00015349,0.00026283,0.00002484,-0.00096552,
 -0.00007431,0.00015502,-0.00009659,0.00034301,0.00004172,-0.00010310,-
 0.00003130,-0.00012247,-0.00008480,-0.00018943,-0.00008975,-0.00291923
 ,-0.04309708,0.02602003,-0.01476962,0.00139829,-0.00407123,0.00315031,
 0.04309110,0.00015154,0.00011317,0.00026343,0.00061018,-0.00064911,0.0
 0031017,-0.00405894,-0.00010093,-0.00098853,-0.00025833,0.00022960,0.0
 0008313,0.00005249,-0.00001896,-0.00000443,-0.00002963,-0.00000225,0.0
 0001031,-0.00204930,0.00023464,-0.00138516,-0.00000930,-0.00001989,0.0
 0001132,0.00001212,0.00000112,0.00000654,0.00000492,0.00000114,-0.0000
 0243,0.00001408,-0.00000817,-0.00000059,-0.00009318,0.00003900,0.00009
 472,-0.00006393,0.00022432,0.00022637,0.00000840,-0.00002035,0.0000055
 2,0.00000125,-0.00001366,-0.00001941,-0.00004111,0.00022748,0.00007367
 ,0.00001523,-0.00013658,0.00036041,-0.00007528,-0.00006285,-0.00006924
 ,0.00010043,0.00010176,0.00009828,0.00026929,-0.00073214,0.00037498,0.
 00053342,0.00010998,0.00013921,-0.00008237,-0.00006763,-0.00015199,0.0
 0023239,-0.00019625,-0.00028400,-0.16908818,-0.09840958,-0.09521436,0.
 00666057,0.00659831,0.00539717,-0.01655529,-0.01565522,-0.01322631,0.1
 8374761,0.00083112,0.00134552,0.00047108,0.00068500,-0.00079474,-0.000
 39975,-0.01500017,-0.00995471,-0.01391720,0.00017395,-0.00015203,-0.00
 015400,-0.00012357,0.00004304,-0.00001407,-0.00011693,0.00010271,0.000
 01271,0.00025453,0.00008806,0.00040842,0.00002176,0.00008182,0.0000322
 3,-0.00003103,0.00002230,0.00000553,0.00000279,-0.00000331,-0.00000257
 ,-0.00001281,0.00000225,-0.00000374,0.00010976,0.00001088,0.00017378,-
 0.00003968,0.00015439,-0.00027298,-0.00003426,0.00002813,-0.00000390,-
 0.00011136,0.00004195,0.00002230,0.00046898,0.00130017,-0.00038039,-0.
 00019101,0.00008370,0.00066855,0.00001873,-0.00003672,0.00006841,0.000
 35377,-0.00004659,-0.00014306,-0.00052277,-0.00562865,0.00362321,0.000
 18385,0.00026770,0.00020875,0.00036647,0.00022102,0.00010423,-0.001635
 02,-0.00049948,-0.00122376,-0.10400701,-0.12186638,-0.08049453,-0.0005
 1844,-0.00182040,0.00014328,0.01074810,0.00884140,0.00886428,0.1082695
 3,0.12816206,-0.00008519,-0.00048930,-0.00009077,0.00089781,-0.0015561
 1,0.00076355,0.00662686,0.00548023,0.00394609,0.00007223,0.00032917,-0
 .00017532,-0.00008144,0.00003716,-0.00005584,0.00003623,-0.00002367,0.
 00002347,-0.00123801,0.00014942,-0.00063704,0.00000645,0.00007084,-0.0
 0016285,0.00001132,-0.00001029,0.00001381,0.00002277,-0.00000277,0.000
 00840,-0.00004968,0.00002406,-0.00000920,0.00025205,-0.00010849,0.0001
 9972,0.00002772,-0.00013930,-0.00056387,-0.00008842,0.00009159,-0.0000
 3177,-0.00016750,0.00013619,0.00000949,-0.00019446,-0.00082639,0.00057
 282,0.00017827,0.00029473,-0.00047744,0.00003510,0.00002101,-0.0000322
 4,-0.00019709,-0.00001271,0.00020600,0.00070599,0.00293105,-0.00118605
 ,-0.00013746,-0.00009042,-0.00019256,-0.00003441,0.00015184,0.00012333
 ,0.00069349,0.00052032,0.00075874,-0.09202858,-0.07447681,-0.10987702,
 -0.02097363,-0.01604230,-0.01323571,0.00155840,0.00116910,-0.00024786,
 0.10395876,0.08237508,0.12031626,-0.07244652,-0.05429281,0.01086604,-0
 .00613313,-0.01446530,0.00308361,-0.00001721,0.00393720,-0.00065695,-0
 .00280359,-0.00137523,0.00046761,-0.00000205,-0.00000242,-0.00013047,-
 0.00022622,-0.00071770,-0.00085937,0.00000581,0.00016283,0.00015130,-0
 .00006216,-0.00008550,-0.00000431,-0.00012712,0.00006392,0.00004797,-0
 .00014015,0.00011815,-0.00002469,-0.00014447,0.00006370,-0.00007334,-0
 .00318109,-0.00161331,-0.00005912,-0.00001162,0.00013659,-0.00020417,-
 0.00021808,-0.00054626,0.00113842,0.00001464,0.00004757,0.00005616,0.0
 0067576,-0.00068723,0.00024336,-0.00002536,0.00006861,0.00000657,0.000
 11392,-0.00012350,-0.00031722,0.00000622,0.00003156,-0.00001740,0.0003
 7355,-0.00067430,-0.00012491,0.00051814,0.00051395,0.00003005,-0.00004
 315,-0.00013128,-0.00010704,0.00020798,0.00048951,-0.00016565,-0.00047
 576,0.00032667,0.00007823,-0.00004713,-0.00002440,-0.00004101,0.000131
 56,0.00018713,-0.00009230,-0.00001531,0.00012043,0.00007227,0.08541330
 ,-0.05049465,-0.09100478,0.01326743,-0.01420206,-0.00511395,0.00396083
 ,-0.00291766,-0.00340225,0.00055353,-0.00052808,-0.00044217,0.00015933
 ,-0.00000375,-0.00000814,-0.00009878,0.00009015,-0.00018833,-0.0002661
 2,0.00004537,-0.00013257,-0.00008318,-0.00173365,-0.00224554,0.0002354
 7,0.00012810,0.00002613,0.00003476,-0.00083932,0.00050753,-0.00011399,
 0.00004470,0.00008219,-0.00007389,-0.00179199,-0.00133902,-0.00013975,
 0.00002125,-0.00006151,0.00006375,0.00004576,-0.00041375,0.00070781,0.
 00000868,0.00006587,-0.00006442,-0.00004681,0.00040382,0.00022505,-0.0
 0004130,0.00011999,0.00010169,-0.00005571,0.00014015,0.00008547,0.0000
 7620,-0.00012415,-0.00025066,-0.00100034,0.00056913,-0.00021761,-0.000
 32761,0.00020536,-0.00032673,0.00000183,-0.00001930,-0.00001368,0.0005
 5835,0.00015562,0.00013179,0.00045277,-0.00013878,-0.00001834,-0.00002
 569,0.00004037,-0.00005996,0.00002822,-0.00012901,0.00003872,0.0000179
 2,0.00012513,0.00002016,0.07031616,0.09481542,0.00983948,0.01292052,-0
 .02649246,0.00313222,0.00403691,0.01361451,0.00032921,-0.00002657,-0.0
 0113257,0.00352678,0.00231004,-0.00110005,-0.00000891,-0.00025760,-0.0
 0025982,0.00014352,0.00111149,0.00089821,-0.00006176,-0.00010452,-0.00
 013265,0.00027938,0.00029630,-0.00055616,0.00018306,-0.00017776,-0.000
 03144,0.00013231,-0.00012370,-0.00020758,-0.00019958,0.00012370,-0.000
 05018,-0.00289495,-0.00202241,-0.00028573,0.00005005,0.00005528,-0.000
 13224,-0.00012994,-0.00071500,0.00088789,0.00000403,0.00016004,-0.0003
 6977,0.00044324,-0.00030232,0.00027276,-0.00001242,0.00002018,-0.00002
 675,-0.00000398,-0.00018879,-0.00008935,-0.00015802,-0.00009814,0.0001
 5013,-0.00045800,0.00086017,0.00016598,-0.00013179,-0.00004514,-0.0000
 9899,0.00016941,-0.00007171,0.00013403,-0.00002530,0.00009662,0.000000
 02,0.00009689,0.00004034,0.00001544,-0.00003519,0.00000927,-0.00000268
 ,-0.00002453,-0.00005134,-0.00002522,-0.00000076,-0.00003873,0.0000146
 3,-0.01371273,-0.01632240,0.01539320,-0.06964129,0.05612963,-0.0092342
 8,0.00029528,-0.00553347,0.00096213,-0.00450344,0.01466138,-0.00238757
 ,-0.00018905,-0.00014796,0.00009769,0.00001404,0.00006071,-0.00001936,
 -0.00000703,-0.00001765,-0.00009830,0.00000945,-0.00004626,-0.00000674
 ,0.00054485,0.00087653,-0.00017503,-0.00001856,-0.00015248,-0.00024113
 ,0.00054295,-0.00060679,0.00011433,-0.00002268,-0.00013385,0.00032246,
 -0.00020309,-0.00021640,-0.00003629,-0.00001989,-0.00003153,0.00000941
 ,0.00000876,-0.00000578,0.00011409,0.00000514,0.00005070,-0.00002569,-
 0.00113415,0.00037253,-0.00021445,0.00003838,-0.00000993,-0.00008587,-
 0.00028079,0.00000331,0.00041748,-0.00011044,-0.00001414,0.00021324,-0
 .00020320,0.00001318,0.00016317,-0.00014017,-0.00010555,-0.00005499,-0
 .00003267,-0.00001542,-0.00005293,-0.00019698,-0.00010203,-0.00008146,
 -0.00446755,0.00190917,0.00017200,0.00001035,-0.00017839,0.00000704,-0
 .00000507,0.00151451,-0.00074339,0.00000624,-0.00026471,0.00012014,-0.
 00134075,0.00217315,-0.00047173,0.08104134,0.04968954,-0.09628089,0.01
 182336,0.00245552,-0.00271977,0.00043932,0.01400528,-0.00722062,0.0038
 8189,-0.00024830,0.00005660,-0.00008676,0.00003241,-0.00003348,-0.0000
 1826,-0.00003418,-0.00001822,-0.00000896,0.00001224,0.00013352,0.00007
 244,0.00123633,0.00076074,-0.00018577,-0.00033891,0.00001044,0.0002359
 7,0.00049780,0.00021258,-0.00000727,-0.00035653,-0.00011155,-0.0002004
 1,-0.00035890,-0.00000916,0.00002863,0.00004902,0.00010083,-0.00011025
 ,-0.00004195,-0.00002990,0.00007087,0.00002678,-0.00000491,0.00005144,
 0.00090981,-0.00074981,0.00018204,-0.00002325,-0.00007838,-0.00013060,
 0.00012454,-0.00006586,-0.00047126,0.00000990,0.00008355,-0.00003216,0
 .00210365,-0.00204683,-0.00024899,0.00078542,0.00048368,0.00049957,-0.
 00011282,-0.00003896,0.00003010,-0.00004363,0.00007907,-0.00006479,0.0
 0191074,-0.00092400,-0.00024597,0.00000206,0.00005462,0.00003434,-0.00
 019095,-0.00071779,0.00030450,-0.00007440,-0.00011919,-0.00002339,-0.0
 0184475,0.00750654,-0.00149471,-0.07018248,0.10168715,-0.00794481,0.01
 145096,-0.02634289,-0.00051430,0.00058114,0.00010301,-0.00203282,0.003
 63750,0.01398758,0.00022698,0.00015620,-0.00010558,0.00000810,0.000034
 70,0.00004891,0.00003030,0.00004723,0.00012708,-0.00000803,-0.00006648
 ,-0.00002545,-0.00024908,-0.00021815,-0.00037067,0.00002086,0.00019712
 ,-0.00002171,-0.00009138,0.00000347,0.00025605,0.00008793,-0.00017223,
 0.00012302,-0.00011922,-0.00016931,-0.00007435,0.00000362,0.00001383,0
 .00000464,-0.00000289,-0.00001453,0.00010335,-0.00000814,-0.00000908,0
 .00003212,-0.00372488,0.00246350,-0.00090517,0.00013826,-0.00002895,-0
 .00032966,-0.00071793,0.00027305,0.00128998,0.00004185,-0.00007003,-0.
 00019535,0.00190108,-0.00150491,-0.00043331,0.00069609,0.00031917,0.00
 023317,-0.00023786,-0.00019634,-0.00024879,0.00004978,0.00001597,-0.00
 001969,0.00092147,-0.00062676,-0.00050015,0.00005329,0.00030280,-0.000
 21337,-0.00002660,-0.00042553,-0.00009090,-0.00006681,-0.00013314,0.00
 001923,0.00034911,-0.00153626,-0.00055317,0.01121601,-0.01432492,0.014
 10210\\-0.00000200,0.00003472,0.00002964,-0.00002703,-0.00001100,-0.00
 001886,0.00002146,-0.00001270,-0.00002120,0.00000603,-0.00000788,0.000
 00100,0.00000403,-0.00000269,0.00000162,0.00000297,-0.00000223,0.00000
 130,0.00000032,0.00000068,0.00000307,0.00000330,-0.00000694,-0.0000019
 0,-0.00000353,-0.00000009,-0.00000731,0.00000483,-0.00000531,-0.000002
 62,-0.00000111,-0.00000574,-0.00000570,0.00000030,-0.00000011,-0.00000
 450,0.00000753,0.00000028,0.00000733,-0.00000034,0.00000353,-0.0000018
 7,-0.00000154,0.00000637,-0.00000180,0.00000128,-0.00000611,0.00000927
 ,0.00000244,-0.00000365,-0.00000026,0.00000279,-0.00000200,0.00000861,
 0.00000013,-0.00000091,0.00000914,-0.00001096,-0.00000635,0.00000863,-
 0.00000803,0.00000509,-0.00000216,-0.00000114,0.00000679,0.00000260,-0
 .00000535,0.00000660,-0.00000524,0.00000751,0.00001172,0.00000740,-0.0
 0000119,0.00001158,-0.00000601,-0.00000063,0.00000644,0.00000612,0.000
 00246,0.00000858,0.00000471,-0.00000724,-0.00001394,-0.00000805,0.0000
 0267,-0.00001472,-0.00001295\\\@


 ACTORS ARE SO FORTUNATE.  THEY CAN CHOOSE WHETHER
 THEY WILL APPEAR IN A TRAGEDY OR IN COMEDY,
 WHETHER THEY WILL SUFFER OF MAKE MERRY,
 LAUGH OR SHED TEARS.  BUT IN REAL LIFE IT IS DIFFERENT.
 MOST MEN AND WOMEN ARE FORCED TO PERFORM
 PARTS FOR WHICH THEY HAVE NO QUALIFICATIONS.
 THE WORLD IS A STAGE, BUT THE PLAY IS BADLY CAST.

                                   -- OSCAR WILDE
 Job cpu time:       0 days 10 hours 23 minutes 58.0 seconds.
 Elapsed time:       0 days  0 hours 27 minutes 10.0 seconds.
 File lengths (MBytes):  RWF=   1648 Int=      0 D2E=      0 Chk=     48 Scr=     32
 Normal termination of Gaussian 16 at Sat Nov  9 03:27:19 2019.
