 Entering Gaussian System, Link 0=g16
 Input=Pt_preR.gjf
 Output=Pt_preR.log
 Initial command:
 /share/home/wli/program/opt/Chem_soft/g16/l1.exe "/scratch/wli/Gau-14494.inp" -scrdir="/scratch/wli/"
 Entering Link 1 = /share/home/wli/program/opt/Chem_soft/g16/l1.exe PID=     14495.
  
 Copyright (c) 1988,1990,1992,1993,1995,1998,2003,2009,2016,
            Gaussian, Inc.  All Rights Reserved.
  
 This is part of the Gaussian(R) 16 program.  It is based on
 the Gaussian(R) 09 system (copyright 2009, Gaussian, Inc.),
 the Gaussian(R) 03 system (copyright 2003, Gaussian, Inc.),
 the Gaussian(R) 98 system (copyright 1998, Gaussian, Inc.),
 the Gaussian(R) 94 system (copyright 1995, Gaussian, Inc.),
 the Gaussian 92(TM) system (copyright 1992, Gaussian, Inc.),
 the Gaussian 90(TM) system (copyright 1990, Gaussian, Inc.),
 the Gaussian 88(TM) system (copyright 1988, Gaussian, Inc.),
 the Gaussian 86(TM) system (copyright 1986, Carnegie Mellon
 University), and the Gaussian 82(TM) system (copyright 1983,
 Carnegie Mellon University). Gaussian is a federally registered
 trademark of Gaussian, Inc.
  
 This software contains proprietary and confidential information,
 including trade secrets, belonging to Gaussian, Inc.
  
 This software is provided under written license and may be
 used, copied, transmitted, or stored only in accord with that
 written license.
  
 The following legend is applicable only to US Government
 contracts under FAR:
  
                    RESTRICTED RIGHTS LEGEND
  
 Use, reproduction and disclosure by the US Government is
 subject to restrictions as set forth in subparagraphs (a)
 and (c) of the Commercial Computer Software - Restricted
 Rights clause in FAR 52.227-19.
  
 Gaussian, Inc.
 340 Quinnipiac St., Bldg. 40, Wallingford CT 06492
  
  
 ---------------------------------------------------------------
 Warning -- This program may not be used in any manner that
 competes with the business of Gaussian, Inc. or will provide
 assistance to any competitor of Gaussian, Inc.  The licensee
 of this program is prohibited from giving any competitor of
 Gaussian, Inc. access to this program.  By using this program,
 the user acknowledges that Gaussian, Inc. is engaged in the
 business of creating and licensing software in the field of
 computational chemistry and represents and warrants to the
 licensee that it is not a competitor of Gaussian, Inc. and that
 it will not use this program in any manner prohibited above.
 ---------------------------------------------------------------
  

 Cite this work as:
 Gaussian 16, Revision A.03,
 M. J. Frisch, G. W. Trucks, H. B. Schlegel, G. E. Scuseria, 
 M. A. Robb, J. R. Cheeseman, G. Scalmani, V. Barone, 
 G. A. Petersson, H. Nakatsuji, X. Li, M. Caricato, A. V. Marenich, 
 J. Bloino, B. G. Janesko, R. Gomperts, B. Mennucci, H. P. Hratchian, 
 J. V. Ortiz, A. F. Izmaylov, J. L. Sonnenberg, D. Williams-Young, 
 F. Ding, F. Lipparini, F. Egidi, J. Goings, B. Peng, A. Petrone, 
 T. Henderson, D. Ranasinghe, V. G. Zakrzewski, J. Gao, N. Rega, 
 G. Zheng, W. Liang, M. Hada, M. Ehara, K. Toyota, R. Fukuda, 
 J. Hasegawa, M. Ishida, T. Nakajima, Y. Honda, O. Kitao, H. Nakai, 
 T. Vreven, K. Throssell, J. A. Montgomery, Jr., J. E. Peralta, 
 F. Ogliaro, M. J. Bearpark, J. J. Heyd, E. N. Brothers, K. N. Kudin, 
 V. N. Staroverov, T. A. Keith, R. Kobayashi, J. Normand, 
 K. Raghavachari, A. P. Rendell, J. C. Burant, S. S. Iyengar, 
 J. Tomasi, M. Cossi, J. M. Millam, M. Klene, C. Adamo, R. Cammi, 
 J. W. Ochterski, R. L. Martin, K. Morokuma, O. Farkas, 
 J. B. Foresman, and D. J. Fox, Gaussian, Inc., Wallingford CT, 2016.
 
 ******************************************
 Gaussian 16:  ES64L-G16RevA.03 25-Dec-2016
                13-Nov-2019 
 ******************************************
 %oldchk=Pt_preR.chk
 %chk=Pt_preR2.chk
 %nproc=24
 Will use up to   24 processors via shared memory.
 Copying data from "Pt_preR.chk" to current chk file "Pt_preR2.chk"
 IOpt=  2 FromEx=T IUOpen= 4 IOptOp= 5 NList=   0 IFRang= 0 IUIn= 4 IUOut= 2.
 ----------------------------------------------------------------------
 #p pbe1pbe/def2tzvp opt freq em=gd3bj geom=allcheck scrf=(smd,solvent=
 benzene)
 ----------------------------------------------------------------------
 1/18=20,19=15,26=3,29=7,38=1/1,3;
 2/9=110,12=2,40=1/2;
 3/5=44,7=101,11=2,14=-4,25=1,30=1,70=32201,71=1,72=12,74=-13,124=41/1,2,3;
 4//1;
 5/5=2,38=5,53=12/2;
 6/7=2,8=2,9=2,10=2,28=1/1;
 7//1,2,3,16;
 1/18=20,19=15,26=3/3(2);
 2/9=110/2;
 99//99;
 2/9=110/2;
 3/5=44,7=101,11=2,14=-2,25=1,30=1,70=32205,71=1,72=12,74=-13,124=41/1,2,3;
 4/5=5,16=3,69=1/1;
 5/5=2,38=5,53=12/2;
 7//1,2,3,16;
 1/18=20,19=15,26=3/3(-5);
 2/9=110/2;
 6/7=2,8=2,9=2,10=2,19=2,28=1/1;
 99/9=1/99;
 Leave Link    1 at Wed Nov 13 13:30:29 2019, MaxMem=   104857600 cpu:              10.8 elap:               0.5
 (Enter /share/home/wli/program/opt/Chem_soft/g16/l101.exe)
 Structure from the checkpoint file:  "Pt_preR2.chk"
 -------------------
 Title Card Required
 -------------------
 Charge =  0 Multiplicity = 1
 Redundant internal coordinates found in file.  (old form).
 Pt,0,-0.0000082944,-0.0016245021,0.0003560085
 P,0,2.246924388,0.0005780698,-0.0000544275
 P,0,-2.2468890386,0.0005607581,-0.0001205139
 C,0,3.0470201597,1.6365375205,0.0662121136
 H,0,2.7283689816,2.1566724409,0.9716517094
 H,0,4.13758587,1.5519254491,0.0621818008
 H,0,2.7275135571,2.2290558103,-0.7932567752
 C,0,3.0526703093,-0.8729771395,1.3815348365
 H,0,2.7366230882,-1.9179709939,1.3801731938
 H,0,4.142919168,-0.8246198198,1.3075554044
 H,0,2.7344129967,-0.425658052,2.3251937141
 C,0,3.0510584717,-0.7574847015,-1.4492113018
 H,0,2.7319843277,-0.2347479609,-2.3529837459
 H,0,4.1413981776,-0.7151517862,-1.3726433484
 H,0,2.7349714411,-1.7990996743,-1.5328672947
 C,0,-3.0508971208,-0.7023663791,-1.4767503868
 H,0,-2.7339177656,-1.739759482,-1.6001213807
 H,0,-4.1412387565,-0.6638946223,-1.3982236898
 H,0,-2.732607015,-0.1451955127,-2.3599958352
 C,0,-3.0475553407,1.6327389374,0.1279659129
 H,0,-4.1381017077,1.5479464231,0.1212704123
 H,0,-2.7286633812,2.1188666771,1.0520097009
 H,0,-2.7287692459,2.2571441983,-0.7089223563
 C,0,-3.0522778283,-0.9247437427,1.3475800197
 H,0,-2.7339300007,-0.5134539287,2.3074596735
 H,0,-4.1425497498,-0.8737914776,1.2756725973
 H,0,-2.7359951662,-1.9688659149,1.3067145099
 Recover connectivity data from disk.
 ITRead=  0  0  0  0  0  0  0  0  0  0  0  0  0  0  0  0  0  0  0  0
 ITRead=  0  0  0  0  0  0  0
 MicOpt= -1 -1 -1 -1 -1 -1 -1 -1 -1 -1 -1 -1 -1 -1 -1 -1 -1 -1 -1 -1
 MicOpt= -1 -1 -1 -1 -1 -1 -1
 NAtoms=     27 NQM=       27 NQMF=       0 NMMI=      0 NMMIF=      0
                NMic=       0 NMicF=      0.
                    Isotopes and Nuclear Properties:
 (Nuclear quadrupole moments (NQMom) in fm**2, nuclear magnetic moments (NMagM)
  in nuclear magnetons)

  Atom         1           2           3           4           5           6           7           8           9          10
 IAtWgt=         195          31          31          12           1           1           1          12           1           1
 AtmWgt= 194.9648000  30.9737634  30.9737634  12.0000000   1.0078250   1.0078250   1.0078250  12.0000000   1.0078250   1.0078250
 NucSpn=           1           1           1           0           1           1           1           0           1           1
 AtZEff=1176.2400000  12.9400000  12.9400000   3.6000000   1.0000000   1.0000000   1.0000000   3.6000000   1.0000000   1.0000000
 NQMom=    0.0000000   0.0000000   0.0000000   0.0000000   0.0000000   0.0000000   0.0000000   0.0000000   0.0000000   0.0000000
 NMagM=    0.6095000   1.1316000   1.1316000   0.0000000   2.7928460   2.7928460   2.7928460   0.0000000   2.7928460   2.7928460
 AtZNuc=  78.0000000  15.0000000  15.0000000   6.0000000   1.0000000   1.0000000   1.0000000   6.0000000   1.0000000   1.0000000

  Atom        11          12          13          14          15          16          17          18          19          20
 IAtWgt=           1          12           1           1           1          12           1           1           1          12
 AtmWgt=   1.0078250  12.0000000   1.0078250   1.0078250   1.0078250  12.0000000   1.0078250   1.0078250   1.0078250  12.0000000
 NucSpn=           1           0           1           1           1           0           1           1           1           0
 AtZEff=   1.0000000   3.6000000   1.0000000   1.0000000   1.0000000   3.6000000   1.0000000   1.0000000   1.0000000   3.6000000
 NQMom=    0.0000000   0.0000000   0.0000000   0.0000000   0.0000000   0.0000000   0.0000000   0.0000000   0.0000000   0.0000000
 NMagM=    2.7928460   0.0000000   2.7928460   2.7928460   2.7928460   0.0000000   2.7928460   2.7928460   2.7928460   0.0000000
 AtZNuc=   1.0000000   6.0000000   1.0000000   1.0000000   1.0000000   6.0000000   1.0000000   1.0000000   1.0000000   6.0000000

  Atom        21          22          23          24          25          26          27
 IAtWgt=           1           1           1          12           1           1           1
 AtmWgt=   1.0078250   1.0078250   1.0078250  12.0000000   1.0078250   1.0078250   1.0078250
 NucSpn=           1           1           1           0           1           1           1
 AtZEff=   1.0000000   1.0000000   1.0000000   3.6000000   1.0000000   1.0000000   1.0000000
 NQMom=    0.0000000   0.0000000   0.0000000   0.0000000   0.0000000   0.0000000   0.0000000
 NMagM=    2.7928460   2.7928460   2.7928460   0.0000000   2.7928460   2.7928460   2.7928460
 AtZNuc=   1.0000000   1.0000000   1.0000000   6.0000000   1.0000000   1.0000000   1.0000000
 Leave Link  101 at Wed Nov 13 13:30:29 2019, MaxMem=   104857600 cpu:               2.8 elap:               0.1
 (Enter /share/home/wli/program/opt/Chem_soft/g16/l103.exe)

 GradGradGradGradGradGradGradGradGradGradGradGradGradGradGradGradGradGrad
 Berny optimization.
 Initialization pass.
                           ----------------------------
                           !    Initial Parameters    !
                           ! (Angstroms and Degrees)  !
 --------------------------                            --------------------------
 ! Name  Definition              Value          Derivative Info.                !
 --------------------------------------------------------------------------------
 ! R1    R(1,2)                  2.2469         estimate D2E/DX2                !
 ! R2    R(1,3)                  2.2469         estimate D2E/DX2                !
 ! R3    R(2,4)                  1.8223         estimate D2E/DX2                !
 ! R4    R(2,8)                  1.8224         estimate D2E/DX2                !
 ! R5    R(2,12)                 1.8225         estimate D2E/DX2                !
 ! R6    R(3,16)                 1.8224         estimate D2E/DX2                !
 ! R7    R(3,20)                 1.8225         estimate D2E/DX2                !
 ! R8    R(3,24)                 1.8224         estimate D2E/DX2                !
 ! R9    R(4,5)                  1.0917         estimate D2E/DX2                !
 ! R10   R(4,6)                  1.0939         estimate D2E/DX2                !
 ! R11   R(4,7)                  1.0917         estimate D2E/DX2                !
 ! R12   R(8,9)                  1.0917         estimate D2E/DX2                !
 ! R13   R(8,10)                 1.0938         estimate D2E/DX2                !
 ! R14   R(8,11)                 1.0917         estimate D2E/DX2                !
 ! R15   R(12,13)                1.0917         estimate D2E/DX2                !
 ! R16   R(12,14)                1.0938         estimate D2E/DX2                !
 ! R17   R(12,15)                1.0917         estimate D2E/DX2                !
 ! R18   R(16,17)                1.0917         estimate D2E/DX2                !
 ! R19   R(16,18)                1.0938         estimate D2E/DX2                !
 ! R20   R(16,19)                1.0917         estimate D2E/DX2                !
 ! R21   R(20,21)                1.0939         estimate D2E/DX2                !
 ! R22   R(20,22)                1.0917         estimate D2E/DX2                !
 ! R23   R(20,23)                1.0917         estimate D2E/DX2                !
 ! R24   R(24,25)                1.0917         estimate D2E/DX2                !
 ! R25   R(24,26)                1.0938         estimate D2E/DX2                !
 ! R26   R(24,27)                1.0917         estimate D2E/DX2                !
 ! A1    A(1,2,4)              116.099          estimate D2E/DX2                !
 ! A2    A(1,2,8)              116.2014         estimate D2E/DX2                !
 ! A3    A(1,2,12)             116.166          estimate D2E/DX2                !
 ! A4    A(4,2,8)              102.0423         estimate D2E/DX2                !
 ! A5    A(4,2,12)             102.0407         estimate D2E/DX2                !
 ! A6    A(8,2,12)             102.0261         estimate D2E/DX2                !
 ! A7    A(1,3,16)             116.167          estimate D2E/DX2                !
 ! A8    A(1,3,20)             116.1154         estimate D2E/DX2                !
 ! A9    A(1,3,24)             116.1861         estimate D2E/DX2                !
 ! A10   A(16,3,20)            102.0384         estimate D2E/DX2                !
 ! A11   A(16,3,24)            102.0284         estimate D2E/DX2                !
 ! A12   A(20,3,24)            102.0397         estimate D2E/DX2                !
 ! A13   A(2,4,5)              109.2513         estimate D2E/DX2                !
 ! A14   A(2,4,6)              111.6019         estimate D2E/DX2                !
 ! A15   A(2,4,7)              109.2754         estimate D2E/DX2                !
 ! A16   A(5,4,6)              109.3238         estimate D2E/DX2                !
 ! A17   A(5,4,7)              107.9943         estimate D2E/DX2                !
 ! A18   A(6,4,7)              109.3214         estimate D2E/DX2                !
 ! A19   A(2,8,9)              109.2615         estimate D2E/DX2                !
 ! A20   A(2,8,10)             111.6062         estimate D2E/DX2                !
 ! A21   A(2,8,11)             109.2688         estimate D2E/DX2                !
 ! A22   A(9,8,10)             109.3158         estimate D2E/DX2                !
 ! A23   A(9,8,11)             107.9916         estimate D2E/DX2                !
 ! A24   A(10,8,11)            109.324          estimate D2E/DX2                !
 ! A25   A(2,12,13)            109.2775         estimate D2E/DX2                !
 ! A26   A(2,12,14)            111.5963         estimate D2E/DX2                !
 ! A27   A(2,12,15)            109.2714         estimate D2E/DX2                !
 ! A28   A(13,12,14)           109.3141         estimate D2E/DX2                !
 ! A29   A(13,12,15)           107.9859         estimate D2E/DX2                !
 ! A30   A(14,12,15)           109.3228         estimate D2E/DX2                !
 ! A31   A(3,16,17)            109.2684         estimate D2E/DX2                !
 ! A32   A(3,16,18)            111.595          estimate D2E/DX2                !
 ! A33   A(3,16,19)            109.2727         estimate D2E/DX2                !
 ! A34   A(17,16,18)           109.3264         estimate D2E/DX2                !
 ! A35   A(17,16,19)           107.9918         estimate D2E/DX2                !
 ! A36   A(18,16,19)           109.314          estimate D2E/DX2                !
 ! A37   A(3,20,21)            111.6011         estimate D2E/DX2                !
 ! A38   A(3,20,22)            109.2654         estimate D2E/DX2                !
 ! A39   A(3,20,23)            109.2721         estimate D2E/DX2                !
 ! A40   A(21,20,22)           109.3241         estimate D2E/DX2                !
 ! A41   A(21,20,23)           109.3148         estimate D2E/DX2                !
 ! A42   A(22,20,23)           107.9905         estimate D2E/DX2                !
 ! A43   A(3,24,25)            109.2722         estimate D2E/DX2                !
 ! A44   A(3,24,26)            111.6068         estimate D2E/DX2                !
 ! A45   A(3,24,27)            109.2615         estimate D2E/DX2                !
 ! A46   A(25,24,26)           109.3236         estimate D2E/DX2                !
 ! A47   A(25,24,27)           107.9829         estimate D2E/DX2                !
 ! A48   A(26,24,27)           109.3205         estimate D2E/DX2                !
 ! A49   L(2,1,3,9,-1)         180.104          estimate D2E/DX2                !
 ! A50   L(2,1,3,9,-2)         179.928          estimate D2E/DX2                !
 ! D1    D(4,2,3,16)           117.7753         estimate D2E/DX2                !
 ! D2    D(4,2,3,20)            -2.1684         estimate D2E/DX2                !
 ! D3    D(4,2,3,24)          -122.1532         estimate D2E/DX2                !
 ! D4    D(8,2,3,16)          -122.2391         estimate D2E/DX2                !
 ! D5    D(8,2,3,20)           117.8172         estimate D2E/DX2                !
 ! D6    D(8,2,3,24)            -2.1676         estimate D2E/DX2                !
 ! D7    D(12,2,3,16)           -2.1581         estimate D2E/DX2                !
 ! D8    D(12,2,3,20)         -122.1018         estimate D2E/DX2                !
 ! D9    D(12,2,3,24)          117.9134         estimate D2E/DX2                !
 ! D10   D(1,2,4,5)             59.0042         estimate D2E/DX2                !
 ! D11   D(1,2,4,6)           -179.9802         estimate D2E/DX2                !
 ! D12   D(1,2,4,7)            -58.9514         estimate D2E/DX2                !
 ! D13   D(8,2,4,5)            -68.385          estimate D2E/DX2                !
 ! D14   D(8,2,4,6)             52.6306         estimate D2E/DX2                !
 ! D15   D(8,2,4,7)            173.6594         estimate D2E/DX2                !
 ! D16   D(12,2,4,5)          -173.6534         estimate D2E/DX2                !
 ! D17   D(12,2,4,6)           -52.6378         estimate D2E/DX2                !
 ! D18   D(12,2,4,7)            68.391          estimate D2E/DX2                !
 ! D19   D(1,2,8,9)             59.0134         estimate D2E/DX2                !
 ! D20   D(1,2,8,10)          -179.9714         estimate D2E/DX2                !
 ! D21   D(1,2,8,11)           -58.941          estimate D2E/DX2                !
 ! D22   D(4,2,8,9)           -173.6633         estimate D2E/DX2                !
 ! D23   D(4,2,8,10)           -52.6481         estimate D2E/DX2                !
 ! D24   D(4,2,8,11)            68.3823         estimate D2E/DX2                !
 ! D25   D(12,2,8,9)           -68.3836         estimate D2E/DX2                !
 ! D26   D(12,2,8,10)           52.6317         estimate D2E/DX2                !
 ! D27   D(12,2,8,11)          173.6621         estimate D2E/DX2                !
 ! D28   D(1,2,12,13)           58.9297         estimate D2E/DX2                !
 ! D29   D(1,2,12,14)          179.9471         estimate D2E/DX2                !
 ! D30   D(1,2,12,15)          -59.0287         estimate D2E/DX2                !
 ! D31   D(4,2,12,13)          -68.3696         estimate D2E/DX2                !
 ! D32   D(4,2,12,14)           52.6478         estimate D2E/DX2                !
 ! D33   D(4,2,12,15)          173.672          estimate D2E/DX2                !
 ! D34   D(8,2,12,13)         -173.6506         estimate D2E/DX2                !
 ! D35   D(8,2,12,14)          -52.6332         estimate D2E/DX2                !
 ! D36   D(8,2,12,15)           68.391          estimate D2E/DX2                !
 ! D37   D(1,3,16,17)           58.9677         estimate D2E/DX2                !
 ! D38   D(1,3,16,18)          179.9936         estimate D2E/DX2                !
 ! D39   D(1,3,16,19)          -58.9932         estimate D2E/DX2                !
 ! D40   D(20,3,16,17)        -173.713          estimate D2E/DX2                !
 ! D41   D(20,3,16,18)         -52.6871         estimate D2E/DX2                !
 ! D42   D(20,3,16,19)          68.3261         estimate D2E/DX2                !
 ! D43   D(24,3,16,17)         -68.4347         estimate D2E/DX2                !
 ! D44   D(24,3,16,18)          52.5912         estimate D2E/DX2                !
 ! D45   D(24,3,16,19)         173.6044         estimate D2E/DX2                !
 ! D46   D(1,3,20,21)         -179.984          estimate D2E/DX2                !
 ! D47   D(1,3,20,22)          -58.959          estimate D2E/DX2                !
 ! D48   D(1,3,20,23)           58.9982         estimate D2E/DX2                !
 ! D49   D(16,3,20,21)          52.6636         estimate D2E/DX2                !
 ! D50   D(16,3,20,22)         173.6885         estimate D2E/DX2                !
 ! D51   D(16,3,20,23)         -68.3542         estimate D2E/DX2                !
 ! D52   D(24,3,20,21)         -52.6059         estimate D2E/DX2                !
 ! D53   D(24,3,20,22)          68.4191         estimate D2E/DX2                !
 ! D54   D(24,3,20,23)        -173.6236         estimate D2E/DX2                !
 ! D55   D(1,3,24,25)           58.9375         estimate D2E/DX2                !
 ! D56   D(1,3,24,26)          179.97           estimate D2E/DX2                !
 ! D57   D(1,3,24,27)          -59.0084         estimate D2E/DX2                !
 ! D58   D(16,3,24,25)        -173.6724         estimate D2E/DX2                !
 ! D59   D(16,3,24,26)         -52.6398         estimate D2E/DX2                !
 ! D60   D(16,3,24,27)          68.3817         estimate D2E/DX2                !
 ! D61   D(20,3,24,25)         -68.3951         estimate D2E/DX2                !
 ! D62   D(20,3,24,26)          52.6374         estimate D2E/DX2                !
 ! D63   D(20,3,24,27)         173.659          estimate D2E/DX2                !
 --------------------------------------------------------------------------------
 Trust Radius=3.00D-01 FncErr=1.00D-07 GrdErr=1.00D-06 EigMax=2.50D+02 EigMin=1.00D-04
 Number of steps in this run=    149 maximum allowed number of steps=    162.
 GradGradGradGradGradGradGradGradGradGradGradGradGradGradGradGradGradGrad

 Leave Link  103 at Wed Nov 13 13:30:29 2019, MaxMem=   104857600 cpu:               0.3 elap:               0.0
 (Enter /share/home/wli/program/opt/Chem_soft/g16/l202.exe)
                          Input orientation:                          
 ---------------------------------------------------------------------
 Center     Atomic      Atomic             Coordinates (Angstroms)
 Number     Number       Type             X           Y           Z
 ---------------------------------------------------------------------
      1         78           0       -0.000008   -0.001625    0.000356
      2         15           0        2.246924    0.000578   -0.000054
      3         15           0       -2.246889    0.000561   -0.000121
      4          6           0        3.047020    1.636538    0.066212
      5          1           0        2.728369    2.156672    0.971652
      6          1           0        4.137586    1.551925    0.062182
      7          1           0        2.727514    2.229056   -0.793257
      8          6           0        3.052670   -0.872977    1.381535
      9          1           0        2.736623   -1.917971    1.380173
     10          1           0        4.142919   -0.824620    1.307555
     11          1           0        2.734413   -0.425658    2.325194
     12          6           0        3.051058   -0.757485   -1.449211
     13          1           0        2.731984   -0.234748   -2.352984
     14          1           0        4.141398   -0.715152   -1.372643
     15          1           0        2.734971   -1.799100   -1.532867
     16          6           0       -3.050897   -0.702366   -1.476750
     17          1           0       -2.733918   -1.739759   -1.600121
     18          1           0       -4.141239   -0.663895   -1.398224
     19          1           0       -2.732607   -0.145196   -2.359996
     20          6           0       -3.047555    1.632739    0.127966
     21          1           0       -4.138102    1.547946    0.121270
     22          1           0       -2.728663    2.118867    1.052010
     23          1           0       -2.728769    2.257144   -0.708922
     24          6           0       -3.052278   -0.924744    1.347580
     25          1           0       -2.733930   -0.513454    2.307460
     26          1           0       -4.142550   -0.873791    1.275673
     27          1           0       -2.735995   -1.968866    1.306715
 ---------------------------------------------------------------------
                    Distance matrix (angstroms):
                    1          2          3          4          5
     1  Pt   0.000000
     2  P    2.246934   0.000000
     3  P    2.246882   4.493813   0.000000
     4  C    3.460100   1.822336   5.541326   0.000000
     5  H    3.611884   2.413451   5.508752   1.091742   0.000000
     6  H    4.420071   2.446457   6.570550   1.093851   1.782904
     7  H    3.611804   2.413762   5.508170   1.091718   1.766392
     8  C    3.462045   1.822392   5.545933   2.833332   3.074403
     9  H    3.614613   2.413641   5.515557   3.802285   4.095080
    10  H    4.421531   2.446547   6.574237   2.966348   3.316909
    11  H    3.614102   2.413732   5.513812   3.074634   2.915569
    12  C    3.461442   1.822456   5.544614   2.833349   3.802239
    13  H    3.613356   2.413905   5.511852   3.074649   4.095376
    14  H    4.421029   2.446487   6.573148   2.966212   3.967335
    15  H    3.614112   2.413824   5.514256   3.802372   4.681965
    16  C    3.461330   5.544518   1.822353   6.710872   6.897006
    17  H    3.613434   5.513418   2.413693   6.898934   7.185595
    18  H    4.420907   6.573053   2.446376   7.688148   7.795089
    19  H    3.613720   5.512378   2.413748   6.516529   6.798583
    20  C    3.460487   5.541828   1.822492   6.094890   5.860684
    21  H    4.420363   6.570968   2.446594   7.185879   6.945654
    22  H    3.612204   5.509125   2.413774   5.879027   5.457755
    23  H    3.612651   5.509275   2.413872   5.860523   5.710935
    24  C    3.461721   5.545618   1.822398   6.738212   6.561427
    25  H    3.613727   5.513416   2.413783   6.562396   6.225003
    26  H    4.421285   6.573993   2.446563   7.710672   7.515695
    27  H    3.614171   5.515056   2.413645   6.926835   6.855043
                    6          7          8          9         10
     6  H    0.000000
     7  H    1.782859   0.000000
     8  C    2.966123   3.802375   0.000000
     9  H    3.967364   4.682063   1.091742   0.000000
    10  H    2.683086   3.967584   1.093825   1.782795   0.000000
    11  H    3.316769   4.095398   1.091730   1.766371   1.782876
    12  C    2.966180   3.074798   2.833102   3.074250   2.965878
    13  H    3.316767   2.916007   3.802211   4.095085   3.967144
    14  H    2.682979   3.317095   2.965760   3.316348   2.682434
    15  H    3.967478   4.095499   3.074472   2.915465   3.316614
    16  C    7.689241   6.515399   6.741842   6.567732   7.714810
    17  H    7.798462   6.799247   6.567053   6.232233   7.522164
    18  H    8.693767   7.477627   7.715122   7.523110   8.716326
    19  H    7.479754   6.156676   6.928070   6.858868   7.822110
    20  C    7.185897   5.878407   6.712883   6.901615   7.689796
    21  H    8.275899   6.959665   7.691316   7.801235   8.695496
    22  H    6.960356   5.760817   6.517940   6.802434   7.479844
    23  H    6.945413   5.457007   6.898747   7.187936   7.796381
    24  C    7.712346   6.923556   6.105262   5.873580   7.196005
    25  H    7.518297   6.852968   5.871230   5.723590   6.956126
    26  H    8.713054   7.817026   7.195999   6.958753   8.285676
    27  H    7.822464   7.202941   5.891962   5.473348   6.973433
                   11         12         13         14         15
    11  H    0.000000
    12  C    3.802171   0.000000
    13  H    4.682072   1.091726   0.000000
    14  H    3.967041   1.093844   1.782779   0.000000
    15  H    4.095238   1.091728   1.766294   1.782877   0.000000
    16  C    6.928287   6.102267   5.867552   7.193060   5.889164
    17  H    6.858396   5.869718   5.719086   6.954965   5.469625
    18  H    7.822735   7.193087   6.952476   8.282835   6.970587
    19  H    7.205412   5.886868   5.465330   6.967902   5.771824
    20  C    6.518893   6.737488   6.560922   7.710089   6.926290
    21  H    7.482236   7.711384   7.516516   8.712262   7.821638
    22  H    6.159611   6.923488   6.852164   7.817183   7.203010
    23  H    6.800709   6.560672   6.223527   7.514936   6.854521
    24  C    5.889873   6.715708   6.901301   7.693667   6.523322
    25  H    5.469076   6.902045   7.188437   7.800896   6.805136
    26  H    6.971007   7.693278   7.799663   8.698422   7.486280
    27  H    5.774440   6.523232   6.804363   7.486608   6.166322
                   16         17         18         19         20
    16  C    0.000000
    17  H    1.091733   0.000000
    18  H    1.093842   1.782919   0.000000
    19  H    1.091728   1.766365   1.782778   0.000000
    20  C    2.833345   3.802420   2.966467   3.074117   0.000000
    21  H    2.966411   3.967862   2.683489   3.316448   1.093858
    22  H    3.802344   4.682181   3.967716   4.094847   1.091728
    23  H    3.074415   4.095058   3.317028   2.915012   1.091736
    24  C    2.833072   3.074825   2.965353   3.802105   2.833408
    25  H    3.802158   4.095487   3.966767   4.681961   3.074849
    26  H    2.965961   3.317278   2.682122   3.966973   2.966300
    27  H    3.074225   2.915851   3.315773   4.095186   3.802378
                   21         22         23         24         25
    21  H    0.000000
    22  H    1.782903   0.000000
    23  H    1.782807   1.766353   0.000000
    24  C    2.965981   3.075004   3.802403   0.000000
    25  H    3.316699   2.916384   4.095705   1.091730   0.000000
    26  H    2.682812   3.317394   3.967386   1.093828   1.782873
    27  H    3.967260   4.095667   4.682094   1.091740   1.766273
                   26         27
    26  H    0.000000
    27  H    1.782848   0.000000
 Stoichiometry    C6H18P2Pt
 Framework group  C1[X(C6H18P2Pt)]
 Deg. of freedom    75
 Full point group                 C1      NOp   1
 RotChk:  IX=2 Diff= 8.60D-01
 Largest Abelian subgroup         C1      NOp   1
 Largest concise Abelian subgroup C1      NOp   1
                         Standard orientation:                         
 ---------------------------------------------------------------------
 Center     Atomic      Atomic             Coordinates (Angstroms)
 Number     Number       Type             X           Y           Z
 ---------------------------------------------------------------------
      1         78           0       -0.000008   -0.001625    0.000356
      2         15           0        2.246924    0.000578   -0.000054
      3         15           0       -2.246889    0.000561   -0.000121
      4          6           0        3.047020    1.636538    0.066212
      5          1           0        2.728369    2.156672    0.971652
      6          1           0        4.137586    1.551925    0.062182
      7          1           0        2.727514    2.229056   -0.793257
      8          6           0        3.052670   -0.872977    1.381535
      9          1           0        2.736623   -1.917971    1.380173
     10          1           0        4.142919   -0.824620    1.307555
     11          1           0        2.734413   -0.425658    2.325194
     12          6           0        3.051058   -0.757485   -1.449211
     13          1           0        2.731984   -0.234748   -2.352984
     14          1           0        4.141398   -0.715152   -1.372643
     15          1           0        2.734971   -1.799100   -1.532867
     16          6           0       -3.050897   -0.702366   -1.476750
     17          1           0       -2.733918   -1.739759   -1.600121
     18          1           0       -4.141239   -0.663895   -1.398224
     19          1           0       -2.732607   -0.145196   -2.359996
     20          6           0       -3.047555    1.632739    0.127966
     21          1           0       -4.138102    1.547946    0.121270
     22          1           0       -2.728663    2.118867    1.052010
     23          1           0       -2.728769    2.257144   -0.708922
     24          6           0       -3.052278   -0.924744    1.347580
     25          1           0       -2.733930   -0.513454    2.307460
     26          1           0       -4.142550   -0.873791    1.275673
     27          1           0       -2.735995   -1.968866    1.306715
 ---------------------------------------------------------------------
 Rotational constants (GHZ):           1.8392343           0.3846199           0.3846104
 Leave Link  202 at Wed Nov 13 13:30:29 2019, MaxMem=   104857600 cpu:               0.3 elap:               0.0
 (Enter /share/home/wli/program/opt/Chem_soft/g16/l301.exe)
 Standard basis: def2TZVP (5D, 7F)
 Ernie: Thresh=  0.10000D-02 Tol=  0.10000D-05 Strict=F.
 There are   454 symmetry adapted cartesian basis functions of A   symmetry.
 There are   408 symmetry adapted basis functions of A   symmetry.
   408 basis functions,   663 primitive gaussians,   454 cartesian basis functions
    51 alpha electrons       51 beta electrons
       nuclear repulsion energy       788.3225819783 Hartrees.
 IExCor= 1009 DFT=T Ex+Corr=PBE1PBE ExCW=0 ScaHFX=  0.250000
 ScaDFX=  0.750000  0.750000  1.000000  1.000000 ScalE2=  1.000000  1.000000
 IRadAn=      5 IRanWt=     -1 IRanGd=            0 ICorTp=0 IEmpDi=141
 NAtoms=   27 NActive=   27 NUniq=   27 SFac= 1.00D+00 NAtFMM=   60 NAOKFM=F Big=F
 Integral buffers will be    131072 words long.
 Raffenetti 2 integral format.
 Two-electron integral symmetry is turned on.
 R6Disp:  Grimme-D3(BJ) Dispersion energy=       -0.0282747107 Hartrees.
 Nuclear repulsion after empirical dispersion term =      788.2943072676 Hartrees.
 ------------------------------------------------------------------------------
 Polarizable Continuum Model (PCM)
 =================================
 Model                : PCM.
 Atomic radii         : SMD-Coulomb.
 Polarization charges : Total charges.
 Charge compensation  : None.
 Solution method      : On-the-fly selection.
 Cavity type          : VdW (van der Waals Surface) (Alpha=1.000).
 Cavity algorithm     : GePol (No added spheres)
                        Default sphere list used, NSphG=   27.
                        Lebedev-Laikov grids with approx.  5.0 points / Ang**2.
                        Smoothing algorithm: York/Karplus (Gamma=1.0000).
                        Polarization charges: spherical gaussians, with
                                              point-specific exponents (IZeta= 3).
                        Self-potential: point-specific (ISelfS= 7).
                        Self-field    : sphere-specific E.n sum rule (ISelfD= 2).
 1st derivatives      : Analytical E(r).r(x)/FMM algorithm (CHGder, D1EAlg=3).
                        Cavity 1st derivative terms included.
 Solvent              : Benzene, Eps=   2.270600 Eps(inf)=   2.253301
 ------------------------------------------------------------------------------
 GePol: Number of generator spheres                  =      27
 GePol: Total number of spheres                      =      27
 GePol: Number of exposed spheres                    =      27 (100.00%)
 GePol: Number of points                             =    2018
 GePol: Average weight of points                     =       0.12
 GePol: Minimum weight of points                     =   0.20D-11
 GePol: Maximum weight of points                     =    0.22001
 GePol: Number of points with low weight             =     110
 GePol: Fraction of low-weight points (<1% of avg)   =       5.45%
 GePol: Cavity surface area                          =    239.890 Ang**2
 GePol: Cavity volume                                =    198.644 Ang**3
 ------------------------------------------------------------------------------
 Atomic radii for non-electrostatic terms: SMD-CDS.
 ------------------------------------------------------------------------------
 PCM non-electrostatic energy =         0.0000976363 Hartrees.
 Nuclear repulsion after PCM non-electrostatic terms =      788.2944049040 Hartrees.
 Leave Link  301 at Wed Nov 13 13:30:30 2019, MaxMem=   104857600 cpu:               2.0 elap:               0.1
 (Enter /share/home/wli/program/opt/Chem_soft/g16/l302.exe)
 NPDir=0 NMtPBC=     1 NCelOv=     1 NCel=       1 NClECP=     1 NCelD=      1
         NCelK=      1 NCelE2=     1 NClLst=     1 CellRange=     0.0.
 One-electron integrals computed using PRISM.
 One-electron integral symmetry used in STVInt
 PrsmSu:  requested number of processors reduced to:  12 ShMem   1 Linda.
   1 Symmetry operations used in ECPInt.
 ECPInt:  NShTT=   15931 NPrTT=   46633 LenC2=   14372 LenP2D=   31614.
 LDataN:  DoStor=T MaxTD1= 8 Len=  415
 Number of processors reduced to  15 by ecpmxn.
 NBasis=   408 RedAO= T EigKep=  7.23D-04  NBF=   408
 NBsUse=   408 1.00D-06 EigRej= -1.00D+00 NBFU=   408
 Precomputing XC quadrature grid using
 IXCGrd= 4 IRadAn=           5 IRanWt=          -1 IRanGd=           0 AccXCQ= 0.00D+00.
 Defaulting to unpruned grid for atomic number  78.
 Generated NRdTot=       0 NPtTot=           0 NUsed=           0 NTot=          32
 NSgBfM=   452   452   452   452   452 MxSgAt=    27 MxSgA2=    27.
 Leave Link  302 at Wed Nov 13 13:30:30 2019, MaxMem=   104857600 cpu:              13.6 elap:               0.7
 (Enter /share/home/wli/program/opt/Chem_soft/g16/l303.exe)
 DipDrv:  MaxL=1.
 Leave Link  303 at Wed Nov 13 13:30:30 2019, MaxMem=   104857600 cpu:               1.8 elap:               0.1
 (Enter /share/home/wli/program/opt/Chem_soft/g16/l401.exe)
 ExpMin= 4.92D-02 ExpMax= 5.24D+04 ExpMxC= 1.79D+03 IAcc=3 IRadAn=         5 AccDes= 0.00D+00
 Harris functional with IExCor= 1009 and IRadAn=       5 diagonalized for initial guess.
 HarFok:  IExCor= 1009 AccDes= 0.00D+00 IRadAn=         5 IDoV= 1 UseB2=F ITyADJ=14
 ICtDFT=  3500011 ScaDFX=  1.000000  1.000000  1.000000  1.000000
 Defaulting to unpruned grid for atomic number  78.
 FoFCou: FMM=F IPFlag=           0 FMFlag=      100000 FMFlg1=           0
         NFxFlg=           0 DoJE=T BraDBF=F KetDBF=T FulRan=T
         wScrn=  0.000000 ICntrl=       500 IOpCl=  0 I1Cent=   200000004 NGrid=           0
         NMat0=    1 NMatS0=      1 NMatT0=    0 NMatD0=    1 NMtDS0=    0 NMtDT0=    0
 Petite list used in FoFCou.
 Harris En= -1041.31023924957    
 JPrj=0 DoOrth=F DoCkMO=F.
 Leave Link  401 at Wed Nov 13 13:30:32 2019, MaxMem=   104857600 cpu:              38.0 elap:               1.6
 (Enter /share/home/wli/program/opt/Chem_soft/g16/l502.exe)
 Integral symmetry usage will be decided dynamically.
 Closed shell SCF:
 Using DIIS extrapolation, IDIIS=  1040.
 NGot=   104857600 LenX=   104430153 LenY=   104223583
 Requested convergence on RMS density matrix=1.00D-08 within 128 cycles.
 Requested convergence on MAX density matrix=1.00D-06.
 Requested convergence on             energy=1.00D-06.
 No special actions if energy rises.
 Fock matrices will be formed incrementally for  20 cycles.

 Cycle   1  Pass 1  IDiag  1:
 FoFJK:  IHMeth= 1 ICntrl=       0 DoSepK=F KAlg= 0 I1Cent=           0 FoldK=F
 IRaf= 840000000 NMat=       1 IRICut=       1 DoRegI=T DoRafI=F ISym2E= 0 IDoP0=0 IntGTp=1.
 FoFCou: FMM=F IPFlag=           0 FMFlag=      100000 FMFlg1=           0
         NFxFlg=           0 DoJE=F BraDBF=F KetDBF=F FulRan=T
         wScrn=  0.000000 ICntrl=         0 IOpCl=  0 I1Cent=           0 NGrid=           0
         NMat0=    1 NMatS0=      1 NMatT0=    0 NMatD0=    1 NMtDS0=    0 NMtDT0=    0
 Symmetry not used in FoFCou.
 Defaulting to unpruned grid for atomic number  78.
 Defaulting to unpruned grid for atomic number  78.
 Defaulting to unpruned grid for atomic number  78.
 Defaulting to unpruned grid for atomic number  78.
 Defaulting to unpruned grid for atomic number  78.
 Defaulting to unpruned grid for atomic number  78.
 Defaulting to unpruned grid for atomic number  78.
 Defaulting to unpruned grid for atomic number  78.
 Defaulting to unpruned grid for atomic number  78.
 Defaulting to unpruned grid for atomic number  78.
 Defaulting to unpruned grid for atomic number  78.
 Defaulting to unpruned grid for atomic number  78.
 Defaulting to unpruned grid for atomic number  78.
 Defaulting to unpruned grid for atomic number  78.
 Defaulting to unpruned grid for atomic number  78.
 Defaulting to unpruned grid for atomic number  78.
 Defaulting to unpruned grid for atomic number  78.
 Defaulting to unpruned grid for atomic number  78.
 Defaulting to unpruned grid for atomic number  78.
 Defaulting to unpruned grid for atomic number  78.
 Defaulting to unpruned grid for atomic number  78.
 Defaulting to unpruned grid for atomic number  78.
 Defaulting to unpruned grid for atomic number  78.
 Defaulting to unpruned grid for atomic number  78.
 Inv3:  Mode=1 IEnd=    12216972.
 Iteration    1 A*A^-1 deviation from unit magnitude is 4.66D-15 for   2006.
 Iteration    1 A*A^-1 deviation from orthogonality  is 1.62D-15 for   1452    847.
 Iteration    1 A^-1*A deviation from unit magnitude is 4.66D-15 for   2006.
 Iteration    1 A^-1*A deviation from orthogonality  is 1.75D-15 for   1857    894.
 E= -1040.61034439424    
 DIIS: error= 4.80D-02 at cycle   1 NSaved=   1.
 NSaved= 1 IEnMin= 1 EnMin= -1040.61034439424     IErMin= 1 ErrMin= 4.80D-02
 ErrMax= 4.80D-02  0.00D+00 EMaxC= 1.00D-01 BMatC= 7.69D-01 BMatP= 7.69D-01
 IDIUse=3 WtCom= 5.20D-01 WtEn= 4.80D-01
 Coeff-Com:  0.100D+01
 Coeff-En:   0.100D+01
 Coeff:      0.100D+01
 Gap=     0.377 Goal=   None    Shift=    0.000
 GapD=    0.377 DampG=1.000 DampE=0.250 DampFc=0.2500 IDamp=-1.
 Damping current iteration by 2.50D-01
 RMSDP=3.29D-03 MaxDP=2.42D-01              OVMax= 2.38D-01

 Cycle   2  Pass 1  IDiag  1:
 RMSU=  8.21D-04    CP:  9.98D-01
 E= -1040.84734417855     Delta-E=       -0.236999784312 Rises=F Damp=T
 DIIS: error= 2.23D-02 at cycle   2 NSaved=   2.
 NSaved= 2 IEnMin= 2 EnMin= -1040.84734417855     IErMin= 2 ErrMin= 2.23D-02
 ErrMax= 2.23D-02  0.00D+00 EMaxC= 1.00D-01 BMatC= 1.64D-01 BMatP= 7.69D-01
 IDIUse=3 WtCom= 7.77D-01 WtEn= 2.23D-01
 Coeff-Com: -0.723D+00 0.172D+01
 Coeff-En:   0.000D+00 0.100D+01
 Coeff:     -0.562D+00 0.156D+01
 Gap=     0.328 Goal=   None    Shift=    0.000
 RMSDP=1.29D-03 MaxDP=1.91D-01 DE=-2.37D-01 OVMax= 2.07D-01

 Cycle   3  Pass 1  IDiag  1:
 RMSU=  1.23D-03    CP:  9.80D-01  1.39D+00
 E= -1041.20436049859     Delta-E=       -0.357016320035 Rises=F Damp=F
 DIIS: error= 1.08D-02 at cycle   3 NSaved=   3.
 NSaved= 3 IEnMin= 3 EnMin= -1041.20436049859     IErMin= 3 ErrMin= 1.08D-02
 ErrMax= 1.08D-02  0.00D+00 EMaxC= 1.00D-01 BMatC= 3.37D-02 BMatP= 1.64D-01
 IDIUse=3 WtCom= 8.92D-01 WtEn= 1.08D-01
 Coeff-Com: -0.352D+00 0.849D+00 0.503D+00
 Coeff-En:   0.000D+00 0.000D+00 0.100D+01
 Coeff:     -0.314D+00 0.757D+00 0.557D+00
 Gap=     0.208 Goal=   None    Shift=    0.000
 RMSDP=6.98D-04 MaxDP=9.16D-02 DE=-3.57D-01 OVMax= 5.12D-02

 Cycle   4  Pass 1  IDiag  1:
 RMSU=  4.81D-04    CP:  9.82D-01  1.66D+00  6.30D-01
 E= -1041.22864501262     Delta-E=       -0.024284514037 Rises=F Damp=F
 DIIS: error= 5.39D-03 at cycle   4 NSaved=   4.
 NSaved= 4 IEnMin= 4 EnMin= -1041.22864501262     IErMin= 4 ErrMin= 5.39D-03
 ErrMax= 5.39D-03  0.00D+00 EMaxC= 1.00D-01 BMatC= 6.92D-03 BMatP= 3.37D-02
 IDIUse=3 WtCom= 9.46D-01 WtEn= 5.39D-02
 Coeff-Com: -0.691D-02 0.464D-01 0.309D+00 0.652D+00
 Coeff-En:   0.000D+00 0.000D+00 0.159D+00 0.841D+00
 Coeff:     -0.654D-02 0.439D-01 0.301D+00 0.662D+00
 Gap=     0.192 Goal=   None    Shift=    0.000
 RMSDP=1.97D-04 MaxDP=2.46D-02 DE=-2.43D-02 OVMax= 1.63D-02

 Cycle   5  Pass 1  IDiag  1:
 RMSU=  8.50D-05    CP:  9.79D-01  1.58D+00  7.41D-01  8.09D-01
 E= -1041.23393055023     Delta-E=       -0.005285537604 Rises=F Damp=F
 DIIS: error= 6.02D-04 at cycle   5 NSaved=   5.
 NSaved= 5 IEnMin= 5 EnMin= -1041.23393055023     IErMin= 5 ErrMin= 6.02D-04
 ErrMax= 6.02D-04  0.00D+00 EMaxC= 1.00D-01 BMatC= 1.15D-04 BMatP= 6.92D-03
 IDIUse=3 WtCom= 9.94D-01 WtEn= 6.02D-03
 Coeff-Com:  0.141D-01-0.195D-01 0.933D-01 0.244D+00 0.668D+00
 Coeff-En:   0.000D+00 0.000D+00 0.000D+00 0.000D+00 0.100D+01
 Coeff:      0.140D-01-0.194D-01 0.927D-01 0.243D+00 0.670D+00
 Gap=     0.192 Goal=   None    Shift=    0.000
 RMSDP=2.51D-05 MaxDP=1.00D-03 DE=-5.29D-03 OVMax= 2.47D-03

 Cycle   6  Pass 1  IDiag  1:
 RMSU=  1.51D-05    CP:  9.79D-01  1.58D+00  7.46D-01  8.24D-01  7.94D-01
 E= -1041.23405243291     Delta-E=       -0.000121882688 Rises=F Damp=F
 DIIS: error= 9.01D-05 at cycle   6 NSaved=   6.
 NSaved= 6 IEnMin= 6 EnMin= -1041.23405243291     IErMin= 6 ErrMin= 9.01D-05
 ErrMax= 9.01D-05  0.00D+00 EMaxC= 1.00D-01 BMatC= 1.82D-06 BMatP= 1.15D-04
 IDIUse=1 WtCom= 1.00D+00 WtEn= 0.00D+00
 Coeff-Com:  0.337D-02-0.524D-02 0.767D-02 0.159D-01 0.108D+00 0.871D+00
 Coeff:      0.337D-02-0.524D-02 0.767D-02 0.159D-01 0.108D+00 0.871D+00
 Gap=     0.192 Goal=   None    Shift=    0.000
 RMSDP=5.77D-06 MaxDP=8.75D-04 DE=-1.22D-04 OVMax= 5.28D-04

 Cycle   7  Pass 1  IDiag  1:
 RMSU=  3.12D-06    CP:  9.79D-01  1.58D+00  7.49D-01  8.25D-01  8.09D-01
                    CP:  1.00D+00
 E= -1041.23405413986     Delta-E=       -0.000001706951 Rises=F Damp=F
 DIIS: error= 1.51D-05 at cycle   7 NSaved=   7.
 NSaved= 7 IEnMin= 7 EnMin= -1041.23405413986     IErMin= 7 ErrMin= 1.51D-05
 ErrMax= 1.51D-05  0.00D+00 EMaxC= 1.00D-01 BMatC= 9.62D-08 BMatP= 1.82D-06
 IDIUse=1 WtCom= 1.00D+00 WtEn= 0.00D+00
 Coeff-Com:  0.462D-03-0.854D-03-0.752D-04-0.118D-02 0.134D-01 0.269D+00
 Coeff-Com:  0.720D+00
 Coeff:      0.462D-03-0.854D-03-0.752D-04-0.118D-02 0.134D-01 0.269D+00
 Coeff:      0.720D+00
 Gap=     0.192 Goal=   None    Shift=    0.000
 RMSDP=1.52D-06 MaxDP=1.12D-04 DE=-1.71D-06 OVMax= 9.35D-05

 Cycle   8  Pass 1  IDiag  1:
 RMSU=  8.13D-07    CP:  9.79D-01  1.58D+00  7.49D-01  8.26D-01  8.15D-01
                    CP:  1.04D+00  8.58D-01
 E= -1041.23405424838     Delta-E=       -0.000000108515 Rises=F Damp=F
 DIIS: error= 5.56D-06 at cycle   8 NSaved=   8.
 NSaved= 8 IEnMin= 8 EnMin= -1041.23405424838     IErMin= 8 ErrMin= 5.56D-06
 ErrMax= 5.56D-06  0.00D+00 EMaxC= 1.00D-01 BMatC= 1.20D-08 BMatP= 9.62D-08
 IDIUse=1 WtCom= 1.00D+00 WtEn= 0.00D+00
 Coeff-Com: -0.158D-03 0.215D-03-0.881D-03-0.252D-02-0.423D-02 0.490D-01
 Coeff-Com:  0.306D+00 0.652D+00
 Coeff:     -0.158D-03 0.215D-03-0.881D-03-0.252D-02-0.423D-02 0.490D-01
 Coeff:      0.306D+00 0.652D+00
 Gap=     0.192 Goal=   None    Shift=    0.000
 RMSDP=3.71D-07 MaxDP=4.42D-05 DE=-1.09D-07 OVMax= 2.35D-05

 Cycle   9  Pass 1  IDiag  1:
 RMSU=  2.09D-07    CP:  9.79D-01  1.58D+00  7.49D-01  8.26D-01  8.14D-01
                    CP:  1.05D+00  9.28D-01  8.66D-01
 E= -1041.23405426135     Delta-E=       -0.000000012973 Rises=F Damp=F
 DIIS: error= 9.96D-07 at cycle   9 NSaved=   9.
 NSaved= 9 IEnMin= 9 EnMin= -1041.23405426135     IErMin= 9 ErrMin= 9.96D-07
 ErrMax= 9.96D-07  0.00D+00 EMaxC= 1.00D-01 BMatC= 1.43D-10 BMatP= 1.20D-08
 IDIUse=1 WtCom= 1.00D+00 WtEn= 0.00D+00
 Coeff-Com: -0.352D-05 0.832D-05-0.346D-04-0.889D-04-0.462D-03-0.973D-02
 Coeff-Com: -0.190D-01 0.143D-01 0.102D+01
 Coeff:     -0.352D-05 0.832D-05-0.346D-04-0.889D-04-0.462D-03-0.973D-02
 Coeff:     -0.190D-01 0.143D-01 0.102D+01
 Gap=     0.192 Goal=   None    Shift=    0.000
 RMSDP=1.12D-07 MaxDP=1.57D-05 DE=-1.30D-08 OVMax= 1.06D-05

 Cycle  10  Pass 1  IDiag  1:
 RMSU=  4.12D-08    CP:  9.79D-01  1.58D+00  7.49D-01  8.26D-01  8.15D-01
                    CP:  1.05D+00  9.46D-01  9.21D-01  1.19D+00
 E= -1041.23405426157     Delta-E=       -0.000000000212 Rises=F Damp=F
 DIIS: error= 3.36D-07 at cycle  10 NSaved=  10.
 NSaved=10 IEnMin=10 EnMin= -1041.23405426157     IErMin=10 ErrMin= 3.36D-07
 ErrMax= 3.36D-07  0.00D+00 EMaxC= 1.00D-01 BMatC= 3.75D-11 BMatP= 1.43D-10
 IDIUse=1 WtCom= 1.00D+00 WtEn= 0.00D+00
 Coeff-Com:  0.549D-05-0.590D-05 0.135D-04 0.379D-04-0.100D-03-0.657D-02
 Coeff-Com: -0.199D-01-0.139D-01 0.518D+00 0.522D+00
 Coeff:      0.549D-05-0.590D-05 0.135D-04 0.379D-04-0.100D-03-0.657D-02
 Coeff:     -0.199D-01-0.139D-01 0.518D+00 0.522D+00
 Gap=     0.192 Goal=   None    Shift=    0.000
 RMSDP=2.09D-08 MaxDP=2.11D-06 DE=-2.12D-10 OVMax= 2.01D-06

 Cycle  11  Pass 1  IDiag  1:
 RMSU=  1.57D-08    CP:  9.79D-01  1.58D+00  7.49D-01  8.26D-01  8.15D-01
                    CP:  1.05D+00  9.48D-01  9.28D-01  1.23D+00  8.98D-01
 E= -1041.23405426163     Delta-E=       -0.000000000069 Rises=F Damp=F
 DIIS: error= 9.44D-08 at cycle  11 NSaved=  11.
 NSaved=11 IEnMin=11 EnMin= -1041.23405426163     IErMin=11 ErrMin= 9.44D-08
 ErrMax= 9.44D-08  0.00D+00 EMaxC= 1.00D-01 BMatC= 2.62D-12 BMatP= 3.75D-11
 IDIUse=1 WtCom= 1.00D+00 WtEn= 0.00D+00
 Coeff-Com:  0.356D-05-0.491D-05 0.142D-04 0.354D-04 0.519D-04-0.362D-03
 Coeff-Com: -0.365D-02-0.811D-02-0.212D-01 0.189D+00 0.844D+00
 Coeff:      0.356D-05-0.491D-05 0.142D-04 0.354D-04 0.519D-04-0.362D-03
 Coeff:     -0.365D-02-0.811D-02-0.212D-01 0.189D+00 0.844D+00
 Gap=     0.192 Goal=   None    Shift=    0.000
 RMSDP=1.23D-08 MaxDP=1.56D-06 DE=-6.91D-11 OVMax= 1.70D-06

 Cycle  12  Pass 1  IDiag  1:
 RMSU=  4.00D-09    CP:  9.79D-01  1.58D+00  7.49D-01  8.26D-01  8.15D-01
                    CP:  1.05D+00  9.50D-01  9.34D-01  1.25D+00  1.05D+00
                    CP:  1.05D+00
 E= -1041.23405426165     Delta-E=       -0.000000000016 Rises=F Damp=F
 DIIS: error= 3.24D-08 at cycle  12 NSaved=  12.
 NSaved=12 IEnMin=12 EnMin= -1041.23405426165     IErMin=12 ErrMin= 3.24D-08
 ErrMax= 3.24D-08  0.00D+00 EMaxC= 1.00D-01 BMatC= 3.76D-13 BMatP= 2.62D-12
 IDIUse=1 WtCom= 1.00D+00 WtEn= 0.00D+00
 Coeff-Com:  0.238D-06-0.357D-06 0.386D-05 0.116D-04 0.210D-04 0.227D-03
 Coeff-Com: -0.258D-03-0.196D-02-0.345D-01 0.318D-01 0.273D+00 0.731D+00
 Coeff:      0.238D-06-0.357D-06 0.386D-05 0.116D-04 0.210D-04 0.227D-03
 Coeff:     -0.258D-03-0.196D-02-0.345D-01 0.318D-01 0.273D+00 0.731D+00
 Gap=     0.192 Goal=   None    Shift=    0.000
 RMSDP=2.91D-09 MaxDP=1.97D-07 DE=-1.64D-11 OVMax= 4.70D-07

 Error on total polarization charges =  0.04707
 SCF Done:  E(RPBE1PBE) =  -1041.23405426     A.U. after   12 cycles
            NFock= 12  Conv=0.29D-08     -V/T= 2.0849
 KE= 9.597859942896D+02 PE=-4.004538752100D+03 EE= 1.215224298645D+03
 SMD-CDS (non-electrostatic) energy       (kcal/mol) =       0.06
 (included in total energy above)
 Leave Link  502 at Wed Nov 13 13:31:36 2019, MaxMem=   104857600 cpu:            1501.5 elap:              63.7
 (Enter /share/home/wli/program/opt/Chem_soft/g16/l601.exe)
 Copying SCF densities to generalized density rwf, IOpCl= 0 IROHF=0.

 **********************************************************************

            Population analysis using the SCF density.

 **********************************************************************

 Orbital symmetries:
       Occupied  (A) (A) (A) (A) (A) (A) (A) (A) (A) (A) (A) (A)
                 (A) (A) (A) (A) (A) (A) (A) (A) (A) (A) (A) (A)
                 (A) (A) (A) (A) (A) (A) (A) (A) (A) (A) (A) (A)
                 (A) (A) (A) (A) (A) (A) (A) (A) (A) (A) (A) (A)
                 (A) (A) (A)
       Virtual   (A) (A) (A) (A) (A) (A) (A) (A) (A) (A) (A) (A)
                 (A) (A) (A) (A) (A) (A) (A) (A) (A) (A) (A) (A)
                 (A) (A) (A) (A) (A) (A) (A) (A) (A) (A) (A) (A)
                 (A) (A) (A) (A) (A) (A) (A) (A) (A) (A) (A) (A)
                 (A) (A) (A) (A) (A) (A) (A) (A) (A) (A) (A) (A)
                 (A) (A) (A) (A) (A) (A) (A) (A) (A) (A) (A) (A)
                 (A) (A) (A) (A) (A) (A) (A) (A) (A) (A) (A) (A)
                 (A) (A) (A) (A) (A) (A) (A) (A) (A) (A) (A) (A)
                 (A) (A) (A) (A) (A) (A) (A) (A) (A) (A) (A) (A)
                 (A) (A) (A) (A) (A) (A) (A) (A) (A) (A) (A) (A)
                 (A) (A) (A) (A) (A) (A) (A) (A) (A) (A) (A) (A)
                 (A) (A) (A) (A) (A) (A) (A) (A) (A) (A) (A) (A)
                 (A) (A) (A) (A) (A) (A) (A) (A) (A) (A) (A) (A)
                 (A) (A) (A) (A) (A) (A) (A) (A) (A) (A) (A) (A)
                 (A) (A) (A) (A) (A) (A) (A) (A) (A) (A) (A) (A)
                 (A) (A) (A) (A) (A) (A) (A) (A) (A) (A) (A) (A)
                 (A) (A) (A) (A) (A) (A) (A) (A) (A) (A) (A) (A)
                 (A) (A) (A) (A) (A) (A) (A) (A) (A) (A) (A) (A)
                 (A) (A) (A) (A) (A) (A) (A) (A) (A) (A) (A) (A)
                 (A) (A) (A) (A) (A) (A) (A) (A) (A) (A) (A) (A)
                 (A) (A) (A) (A) (A) (A) (A) (A) (A) (A) (A) (A)
                 (A) (A) (A) (A) (A) (A) (A) (A) (A) (A) (A) (A)
                 (A) (A) (A) (A) (A) (A) (A) (A) (A) (A) (A) (A)
                 (A) (A) (A) (A) (A) (A) (A) (A) (A) (A) (A) (A)
                 (A) (A) (A) (A) (A) (A) (A) (A) (A) (A) (A) (A)
                 (A) (A) (A) (A) (A) (A) (A) (A) (A) (A) (A) (A)
                 (A) (A) (A) (A) (A) (A) (A) (A) (A) (A) (A) (A)
                 (A) (A) (A) (A) (A) (A) (A) (A) (A) (A) (A) (A)
                 (A) (A) (A) (A) (A) (A) (A) (A) (A) (A) (A) (A)
                 (A) (A) (A) (A) (A) (A) (A) (A) (A)
 The electronic state is 1-A.
 Alpha  occ. eigenvalues --  -77.21175 -77.21173 -10.21022 -10.21019 -10.21018
 Alpha  occ. eigenvalues --  -10.21018 -10.21018 -10.21017  -6.60572  -6.60570
 Alpha  occ. eigenvalues --   -4.74173  -4.74173  -4.74172  -4.74172  -4.73829
 Alpha  occ. eigenvalues --   -4.73828  -3.86923  -2.12432  -2.09411  -2.09411
 Alpha  occ. eigenvalues --   -0.78883  -0.78683  -0.70838  -0.70837  -0.70831
 Alpha  occ. eigenvalues --   -0.70830  -0.56181  -0.54610  -0.45706  -0.44991
 Alpha  occ. eigenvalues --   -0.43735  -0.43733  -0.43653  -0.43651  -0.41031
 Alpha  occ. eigenvalues --   -0.41030  -0.40956  -0.40955  -0.39256  -0.39252
 Alpha  occ. eigenvalues --   -0.35878  -0.34485  -0.34484  -0.34117  -0.34116
 Alpha  occ. eigenvalues --   -0.25086  -0.22805  -0.22804  -0.19463  -0.19461
 Alpha  occ. eigenvalues --   -0.19063
 Alpha virt. eigenvalues --    0.00128   0.00130   0.04414   0.05225   0.07258
 Alpha virt. eigenvalues --    0.08850   0.08851   0.09578   0.09653   0.09656
 Alpha virt. eigenvalues --    0.10852   0.11487   0.11490   0.11692   0.11697
 Alpha virt. eigenvalues --    0.12778   0.14495   0.14497   0.14609   0.15069
 Alpha virt. eigenvalues --    0.15071   0.15300   0.15304   0.15515   0.15521
 Alpha virt. eigenvalues --    0.16894   0.17686   0.17952   0.20866   0.21192
 Alpha virt. eigenvalues --    0.21195   0.21405   0.21406   0.23969   0.23983
 Alpha virt. eigenvalues --    0.25827   0.28454   0.28463   0.28939   0.29259
 Alpha virt. eigenvalues --    0.29261   0.29404   0.29407   0.34444   0.35948
 Alpha virt. eigenvalues --    0.35957   0.36712   0.38019   0.38260   0.39249
 Alpha virt. eigenvalues --    0.39317   0.39470   0.39476   0.41981   0.42004
 Alpha virt. eigenvalues --    0.42872   0.43342   0.43431   0.43442   0.44067
 Alpha virt. eigenvalues --    0.44078   0.46244   0.46249   0.46431   0.46437
 Alpha virt. eigenvalues --    0.47226   0.47689   0.48639   0.48648   0.48907
 Alpha virt. eigenvalues --    0.49319   0.51021   0.51032   0.51701   0.51706
 Alpha virt. eigenvalues --    0.55847   0.55856   0.57802   0.59746   0.63000
 Alpha virt. eigenvalues --    0.64137   0.64149   0.66611   0.67925   0.67969
 Alpha virt. eigenvalues --    0.69012   0.69017   0.70499   0.70503   0.70524
 Alpha virt. eigenvalues --    0.73344   0.74942   0.74974   0.75277   0.75297
 Alpha virt. eigenvalues --    0.75908   0.76288   0.76370   0.82274   0.82279
 Alpha virt. eigenvalues --    0.83322   0.90845   0.90851   0.91167   0.91435
 Alpha virt. eigenvalues --    0.91437   0.93550   0.93568   0.96794   0.96801
 Alpha virt. eigenvalues --    0.99106   0.99990   1.00008   1.04086   1.04094
 Alpha virt. eigenvalues --    1.04478   1.05186   1.05188   1.06443   1.06879
 Alpha virt. eigenvalues --    1.07016   1.07458   1.09479   1.09493   1.09722
 Alpha virt. eigenvalues --    1.09728   1.23776   1.31696   1.31697   1.33069
 Alpha virt. eigenvalues --    1.33086   1.38486   1.38488   1.39148   1.44577
 Alpha virt. eigenvalues --    1.45042   1.46279   1.47342   1.47368   1.51242
 Alpha virt. eigenvalues --    1.51254   1.51400   1.51815   1.52780   1.52785
 Alpha virt. eigenvalues --    1.53049   1.53052   1.54695   1.54901   1.54905
 Alpha virt. eigenvalues --    1.55262   1.55797   1.55813   1.56317   1.56379
 Alpha virt. eigenvalues --    1.57064   1.57073   1.59247   1.59256   1.59766
 Alpha virt. eigenvalues --    1.59769   1.61446   1.61449   1.62439   1.63176
 Alpha virt. eigenvalues --    1.63179   1.63477   1.63548   1.63556   1.64609
 Alpha virt. eigenvalues --    1.64716   1.64756   1.65191   1.65349   1.66555
 Alpha virt. eigenvalues --    1.66848   1.66862   1.71086   1.71111   1.78041
 Alpha virt. eigenvalues --    1.83884   1.86305   1.86310   1.89282   1.89327
 Alpha virt. eigenvalues --    1.91426   1.91446   1.94525   1.96210   1.96232
 Alpha virt. eigenvalues --    1.96674   2.01283   2.03954   2.03961   2.04329
 Alpha virt. eigenvalues --    2.04811   2.04820   2.07269   2.07870   2.07883
 Alpha virt. eigenvalues --    2.08393   2.08406   2.09278   2.11025   2.11156
 Alpha virt. eigenvalues --    2.15780   2.15813   2.15894   2.21000   2.21043
 Alpha virt. eigenvalues --    2.23261   2.28395   2.29026   2.29078   2.31807
 Alpha virt. eigenvalues --    2.31811   2.32363   2.33713   2.33717   2.34288
 Alpha virt. eigenvalues --    2.34298   2.36916   2.37111   2.39824   2.39833
 Alpha virt. eigenvalues --    2.41307   2.41319   2.41522   2.45287   2.49391
 Alpha virt. eigenvalues --    2.50319   2.50338   2.51270   2.51280   2.55389
 Alpha virt. eigenvalues --    2.55393   2.55544   2.55547   2.59146   2.59397
 Alpha virt. eigenvalues --    2.61961   2.62079   2.62086   2.62196   2.62200
 Alpha virt. eigenvalues --    2.64451   2.64655   2.67733   2.67755   2.67859
 Alpha virt. eigenvalues --    2.67862   2.73211   2.73249   2.79305   2.79519
 Alpha virt. eigenvalues --    2.85042   2.85044   2.86317   2.86319   2.89844
 Alpha virt. eigenvalues --    2.91263   2.95224   2.95239   2.98289   2.98294
 Alpha virt. eigenvalues --    3.08015   3.10179   3.10191   3.12033   3.12046
 Alpha virt. eigenvalues --    3.13275   3.13277   3.18795   3.19828   3.19832
 Alpha virt. eigenvalues --    3.20050   3.20055   3.23363   3.23368   3.29179
 Alpha virt. eigenvalues --    3.29475   3.29483   3.30380   3.30387   3.33372
 Alpha virt. eigenvalues --    3.34023   3.36328   3.36330   3.37260   3.37266
 Alpha virt. eigenvalues --    3.37501   3.37503   3.48070   3.48079   3.48194
 Alpha virt. eigenvalues --    3.49100   3.49107   3.50130   3.54153   3.54298
 Alpha virt. eigenvalues --    3.54307   3.54981   3.55512   3.55518   3.60053
 Alpha virt. eigenvalues --    3.60065   3.60605   3.61204   3.62660   3.62670
 Alpha virt. eigenvalues --    3.63702   3.63706   3.63774   3.63786   3.72400
 Alpha virt. eigenvalues --    3.72407   3.72725   3.72737   3.80020   3.80094
 Alpha virt. eigenvalues --    4.26096   4.26291   4.27406   4.27411   4.27625
 Alpha virt. eigenvalues --    4.27799   4.27802   4.28102   4.32876   4.32884
 Alpha virt. eigenvalues --    4.34181   4.34185   4.39967   4.40314   4.45225
 Alpha virt. eigenvalues --    4.45230   4.46412   4.46413   7.75268   7.82273
 Alpha virt. eigenvalues --    7.82289   7.82895   7.82904   7.94228  15.55619
 Alpha virt. eigenvalues --   15.55645  22.35175  22.35192  22.36973  22.38115
 Alpha virt. eigenvalues --   22.38131  22.38363  27.23442  27.23458  34.31022
 Alpha virt. eigenvalues --   52.29758 285.10514
          Condensed to atoms (all electrons):
               1          2          3          4          5          6
     1  Pt  17.957227   0.361809   0.361865  -0.040226  -0.001193   0.008126
     2  P    0.361809  13.703311  -0.047477   0.337117  -0.023933  -0.031097
     3  P    0.361865  -0.047477  13.703052   0.000988   0.000003  -0.000048
     4  C   -0.040226   0.337117   0.000988   5.044370   0.393634   0.384621
     5  H   -0.001193  -0.023933   0.000003   0.393634   0.504926  -0.021632
     6  H    0.008126  -0.031097  -0.000048   0.384621  -0.021632   0.546550
     7  H   -0.001182  -0.023942   0.000005   0.393676  -0.013455  -0.021628
     8  C   -0.040164   0.336968   0.000985  -0.037258  -0.000314  -0.005844
     9  H   -0.001166  -0.023894   0.000002   0.005385  -0.000136  -0.000146
    10  H    0.008108  -0.031080  -0.000048  -0.005860  -0.000279   0.005413
    11  H   -0.001157  -0.023913   0.000004  -0.000326   0.001466  -0.000278
    12  C   -0.040192   0.337010   0.000986  -0.037255   0.005387  -0.005849
    13  H   -0.001168  -0.023898   0.000003  -0.000322  -0.000135  -0.000278
    14  H    0.008116  -0.031087  -0.000048  -0.005854  -0.000147   0.005414
    15  H   -0.001168  -0.023919   0.000004   0.005383  -0.000155  -0.000145
    16  C   -0.040196   0.000986   0.337030  -0.000006  -0.000001   0.000000
    17  H   -0.001169   0.000003  -0.023901  -0.000001   0.000000   0.000000
    18  H    0.008114  -0.000048  -0.031106   0.000000   0.000000  -0.000000
    19  H   -0.001165   0.000004  -0.023930  -0.000002  -0.000000   0.000000
    20  C   -0.040205   0.000988   0.337104  -0.000074   0.000004   0.000003
    21  H    0.008118  -0.000048  -0.031101   0.000003  -0.000000  -0.000000
    22  H   -0.001183   0.000005  -0.023940   0.000003   0.000000  -0.000000
    23  H   -0.001183   0.000003  -0.023912   0.000004  -0.000001  -0.000000
    24  C   -0.040164   0.000986   0.336942  -0.000003  -0.000002   0.000000
    25  H   -0.001158   0.000003  -0.023895  -0.000002  -0.000000   0.000000
    26  H    0.008105  -0.000048  -0.031089   0.000000   0.000000  -0.000000
    27  H   -0.001158   0.000004  -0.023917  -0.000001  -0.000000   0.000000
               7          8          9         10         11         12
     1  Pt  -0.001182  -0.040164  -0.001166   0.008108  -0.001157  -0.040192
     2  P   -0.023942   0.336968  -0.023894  -0.031080  -0.023913   0.337010
     3  P    0.000005   0.000985   0.000002  -0.000048   0.000004   0.000986
     4  C    0.393676  -0.037258   0.005385  -0.005860  -0.000326  -0.037255
     5  H   -0.013455  -0.000314  -0.000136  -0.000279   0.001466   0.005387
     6  H   -0.021628  -0.005844  -0.000146   0.005413  -0.000278  -0.005849
     7  H    0.504913   0.005384  -0.000155  -0.000146  -0.000135  -0.000317
     8  C    0.005384   5.044391   0.393621   0.384680   0.393619  -0.037207
     9  H   -0.000155   0.393621   0.504926  -0.021651  -0.013438  -0.000328
    10  H   -0.000146   0.384680  -0.021651   0.546496  -0.021621  -0.005855
    11  H   -0.000135   0.393619  -0.013438  -0.021621   0.504975   0.005386
    12  C   -0.000317  -0.037207  -0.000328  -0.005855   0.005386   5.044450
    13  H    0.001464   0.005385  -0.000135  -0.000146  -0.000155   0.393624
    14  H   -0.000280  -0.005861  -0.000278   0.005417  -0.000145   0.384650
    15  H   -0.000135  -0.000325   0.001464  -0.000279  -0.000135   0.393645
    16  C   -0.000002  -0.000003  -0.000002   0.000000  -0.000001  -0.000074
    17  H   -0.000000  -0.000002  -0.000000   0.000000  -0.000000   0.000004
    18  H    0.000000   0.000000   0.000000  -0.000000   0.000000   0.000003
    19  H   -0.000000  -0.000001  -0.000000   0.000000   0.000000   0.000002
    20  C    0.000002  -0.000006  -0.000001   0.000000  -0.000002  -0.000003
    21  H   -0.000000   0.000000   0.000000  -0.000000   0.000000   0.000000
    22  H   -0.000001  -0.000002  -0.000000   0.000000  -0.000000  -0.000001
    23  H    0.000000  -0.000001   0.000000   0.000000  -0.000000  -0.000002
    24  C   -0.000001  -0.000074   0.000004   0.000003   0.000002  -0.000006
    25  H   -0.000000   0.000004  -0.000001  -0.000000   0.000000  -0.000001
    26  H    0.000000   0.000003  -0.000000  -0.000000  -0.000000   0.000000
    27  H    0.000000   0.000003   0.000000  -0.000000  -0.000001  -0.000002
              13         14         15         16         17         18
     1  Pt  -0.001168   0.008116  -0.001168  -0.040196  -0.001169   0.008114
     2  P   -0.023898  -0.031087  -0.023919   0.000986   0.000003  -0.000048
     3  P    0.000003  -0.000048   0.000004   0.337030  -0.023901  -0.031106
     4  C   -0.000322  -0.005854   0.005383  -0.000006  -0.000001   0.000000
     5  H   -0.000135  -0.000147  -0.000155  -0.000001   0.000000   0.000000
     6  H   -0.000278   0.005414  -0.000145   0.000000   0.000000  -0.000000
     7  H    0.001464  -0.000280  -0.000135  -0.000002  -0.000000   0.000000
     8  C    0.005385  -0.005861  -0.000325  -0.000003  -0.000002   0.000000
     9  H   -0.000135  -0.000278   0.001464  -0.000002  -0.000000   0.000000
    10  H   -0.000146   0.005417  -0.000279   0.000000   0.000000  -0.000000
    11  H   -0.000155  -0.000145  -0.000135  -0.000001  -0.000000   0.000000
    12  C    0.393624   0.384650   0.393645  -0.000074   0.000004   0.000003
    13  H    0.504939  -0.021633  -0.013456   0.000004  -0.000001  -0.000000
    14  H   -0.021633   0.546542  -0.021633   0.000003  -0.000000  -0.000000
    15  H   -0.013456  -0.021633   0.504939   0.000003   0.000000  -0.000000
    16  C    0.000004   0.000003   0.000003   5.044333   0.393629   0.384661
    17  H   -0.000001  -0.000000   0.000000   0.393629   0.504916  -0.021628
    18  H   -0.000000  -0.000000  -0.000000   0.384661  -0.021628   0.546557
    19  H    0.000000  -0.000000  -0.000001   0.393644  -0.013455  -0.021636
    20  C   -0.000002   0.000000  -0.000001  -0.037235   0.005385  -0.005850
    21  H    0.000000  -0.000000   0.000000  -0.005828  -0.000146   0.005408
    22  H   -0.000000   0.000000   0.000000   0.005382  -0.000155  -0.000146
    23  H   -0.000000   0.000000  -0.000000  -0.000323  -0.000135  -0.000278
    24  C   -0.000001   0.000000  -0.000002  -0.037197  -0.000328  -0.005855
    25  H    0.000000   0.000000  -0.000000   0.005384  -0.000136  -0.000145
    26  H    0.000000  -0.000000   0.000000  -0.005860  -0.000277   0.005418
    27  H   -0.000000   0.000000  -0.000000  -0.000325   0.001464  -0.000279
              19         20         21         22         23         24
     1  Pt  -0.001165  -0.040205   0.008118  -0.001183  -0.001183  -0.040164
     2  P    0.000004   0.000988  -0.000048   0.000005   0.000003   0.000986
     3  P   -0.023930   0.337104  -0.031101  -0.023940  -0.023912   0.336942
     4  C   -0.000002  -0.000074   0.000003   0.000003   0.000004  -0.000003
     5  H   -0.000000   0.000004  -0.000000   0.000000  -0.000001  -0.000002
     6  H    0.000000   0.000003  -0.000000  -0.000000  -0.000000   0.000000
     7  H   -0.000000   0.000002  -0.000000  -0.000001   0.000000  -0.000001
     8  C   -0.000001  -0.000006   0.000000  -0.000002  -0.000001  -0.000074
     9  H   -0.000000  -0.000001   0.000000  -0.000000   0.000000   0.000004
    10  H    0.000000   0.000000  -0.000000   0.000000   0.000000   0.000003
    11  H    0.000000  -0.000002   0.000000  -0.000000  -0.000000   0.000002
    12  C    0.000002  -0.000003   0.000000  -0.000001  -0.000002  -0.000006
    13  H    0.000000  -0.000002   0.000000  -0.000000  -0.000000  -0.000001
    14  H   -0.000000   0.000000  -0.000000   0.000000   0.000000   0.000000
    15  H   -0.000001  -0.000001   0.000000   0.000000  -0.000000  -0.000002
    16  C    0.393644  -0.037235  -0.005828   0.005382  -0.000323  -0.037197
    17  H   -0.013455   0.005385  -0.000146  -0.000155  -0.000135  -0.000328
    18  H   -0.021636  -0.005850   0.005408  -0.000146  -0.000278  -0.005855
    19  H    0.504990  -0.000327  -0.000278  -0.000135   0.001467   0.005386
    20  C   -0.000327   5.044410   0.384639   0.393673   0.393636  -0.037254
    21  H   -0.000278   0.384639   0.546558  -0.021627  -0.021641  -0.005852
    22  H   -0.000135   0.393673  -0.021627   0.504887  -0.013465  -0.000310
    23  H    0.001467   0.393636  -0.021641  -0.013465   0.505002   0.005384
    24  C    0.005386  -0.037254  -0.005852  -0.000310   0.005384   5.044365
    25  H   -0.000155  -0.000324  -0.000277   0.001463  -0.000135   0.393614
    26  H   -0.000145  -0.005849   0.005412  -0.000279  -0.000146   0.384678
    27  H   -0.000135   0.005383  -0.000145  -0.000136  -0.000155   0.393635
              25         26         27
     1  Pt  -0.001158   0.008105  -0.001158
     2  P    0.000003  -0.000048   0.000004
     3  P   -0.023895  -0.031089  -0.023917
     4  C   -0.000002   0.000000  -0.000001
     5  H   -0.000000   0.000000  -0.000000
     6  H    0.000000  -0.000000   0.000000
     7  H   -0.000000   0.000000   0.000000
     8  C    0.000004   0.000003   0.000003
     9  H   -0.000001  -0.000000   0.000000
    10  H   -0.000000  -0.000000  -0.000000
    11  H    0.000000  -0.000000  -0.000001
    12  C   -0.000001   0.000000  -0.000002
    13  H    0.000000   0.000000  -0.000000
    14  H    0.000000  -0.000000   0.000000
    15  H   -0.000000   0.000000  -0.000000
    16  C    0.005384  -0.005860  -0.000325
    17  H   -0.000136  -0.000277   0.001464
    18  H   -0.000145   0.005418  -0.000279
    19  H   -0.000155  -0.000145  -0.000135
    20  C   -0.000324  -0.005849   0.005383
    21  H   -0.000277   0.005412  -0.000145
    22  H    0.001463  -0.000279  -0.000136
    23  H   -0.000135  -0.000146  -0.000155
    24  C    0.393614   0.384678   0.393635
    25  H    0.504979  -0.021631  -0.013457
    26  H   -0.021631   0.546537  -0.021640
    27  H   -0.013457  -0.021640   0.504975
 Mulliken charges:
               1
     1  Pt  -0.474391
     2  P    0.205188
     3  P    0.205439
     4  C   -0.437995
     5  H    0.155963
     6  H    0.136819
     7  H    0.155935
     8  C   -0.437982
     9  H    0.155928
    10  H    0.136849
    11  H    0.155855
    12  C   -0.438057
    13  H    0.155913
    14  H    0.136825
    15  H    0.155916
    16  C   -0.438006
    17  H    0.155934
    18  H    0.136811
    19  H    0.155873
    20  C   -0.438095
    21  H    0.136807
    22  H    0.155969
    23  H    0.155883
    24  C   -0.437950
    25  H    0.155870
    26  H    0.136811
    27  H    0.155886
 Sum of Mulliken charges =  -0.00000
 Mulliken charges with hydrogens summed into heavy atoms:
               1
     1  Pt  -0.474391
     2  P    0.205188
     3  P    0.205439
     4  C    0.010722
     8  C    0.010651
    12  C    0.010598
    16  C    0.010613
    20  C    0.010564
    24  C    0.010617
 Electronic spatial extent (au):  <R**2>=           3245.2968
 Charge=             -0.0000 electrons
 Dipole moment (field-independent basis, Debye):
    X=             -0.0007    Y=              0.0079    Z=             -0.0009  Tot=              0.0080
 Quadrupole moment (field-independent basis, Debye-Ang):
   XX=            -70.6460   YY=            -89.8204   ZZ=            -89.8197
   XY=              0.0015   XZ=             -0.0003   YZ=             -0.0001
 Traceless Quadrupole moment (field-independent basis, Debye-Ang):
   XX=             12.7827   YY=             -6.3917   ZZ=             -6.3910
   XY=              0.0015   XZ=             -0.0003   YZ=             -0.0001
 Octapole moment (field-independent basis, Debye-Ang**2):
  XXX=             -0.0090  YYY=             -3.5054  ZZZ=              0.6401  XYY=              0.0037
  XXY=             -0.0504  XXZ=              0.0133  XZZ=              0.0032  YZZ=              3.2563
  YYZ=             -0.5886  XYZ=             -0.0015
 Hexadecapole moment (field-independent basis, Debye-Ang**3):
 XXXX=          -3186.9294 YYYY=           -535.9229 ZZZZ=           -535.7788 XXXY=              0.0264
 XXXZ=             -0.0111 YYYX=             -0.1095 YYYZ=             -0.0022 ZZZX=             -0.5653
 ZZZY=             -0.0051 XXYY=           -655.3729 XXZZ=           -655.3945 YYZZ=           -178.5950
 XXYZ=             -0.0024 YYXZ=              0.5736 ZZXY=              0.0982
 N-N= 7.882944049040D+02 E-N=-4.004538755873D+03  KE= 9.597859942896D+02
 No NMR shielding tensors so no spin-rotation constants.
 Leave Link  601 at Wed Nov 13 13:31:36 2019, MaxMem=   104857600 cpu:               6.3 elap:               0.3
 (Enter /share/home/wli/program/opt/Chem_soft/g16/l701.exe)
 ... and contract with generalized density number  0.
 Compute integral first derivatives.
 R6Disp: Adding Grimme-D3(BJ) dispersion energy 1st derivatives to the gradient.
 PrsmSu:  requested number of processors reduced to:  13 ShMem   1 Linda.
   1 Symmetry operations used in ECPInt.
 ECPInt:  NShTT=   15931 NPrTT=   46633 LenC2=   14372 LenP2D=   31614.
 LDataN:  DoStor=T MaxTD1= 9 Len=  602
 Number of processors reduced to  18 by ecpmxn.
 D1PCM: PCM CHGder 1st derivatives, ID1Alg=3 FixD1E=F DoIter=F DoCFld=F I1PDM=0.
 GePol: Maximum number of non-zero 1st derivatives   =     232
 CoulSu:  requested number of processors reduced to:  12 ShMem   1 Linda.
 CoulSu:  requested number of processors reduced to:  13 ShMem   1 Linda.
 Leave Link  701 at Wed Nov 13 13:31:39 2019, MaxMem=   104857600 cpu:              57.1 elap:               2.7
 (Enter /share/home/wli/program/opt/Chem_soft/g16/l702.exe)
 L702 exits ... SP integral derivatives will be done elsewhere.
 Leave Link  702 at Wed Nov 13 13:31:39 2019, MaxMem=   104857600 cpu:               0.4 elap:               0.0
 (Enter /share/home/wli/program/opt/Chem_soft/g16/l703.exe)
 Integral derivatives from FoFJK, PRISM(SPDF).
 Compute integral first derivatives, UseDBF=F ICtDFT=           0.
 Calling FoFJK, ICntrl=      2127 FMM=F ISym2X=0 I1Cent= 0 IOpClX= 0 NMat=1 NMatS=1 NMatT=0.
 FoFJK:  IHMeth= 1 ICntrl=    2127 DoSepK=F KAlg= 0 I1Cent=           0 FoldK=F
 IRaf=         0 NMat=       1 IRICut=       1 DoRegI=T DoRafI=F ISym2E= 0 IDoP0=0 IntGTp=1.
 FoFCou: FMM=F IPFlag=           0 FMFlag=      100000 FMFlg1=         800
         NFxFlg=           0 DoJE=F BraDBF=F KetDBF=F FulRan=T
         wScrn=  0.000000 ICntrl=      2127 IOpCl=  0 I1Cent=           0 NGrid=           0
         NMat0=    1 NMatS0=      1 NMatT0=    0 NMatD0=    1 NMtDS0=    0 NMtDT0=    0
 Symmetry not used in FoFCou.
 Defaulting to unpruned grid for atomic number  78.
 Defaulting to unpruned grid for atomic number  78.
 Defaulting to unpruned grid for atomic number  78.
 Defaulting to unpruned grid for atomic number  78.
 Defaulting to unpruned grid for atomic number  78.
 Defaulting to unpruned grid for atomic number  78.
 Defaulting to unpruned grid for atomic number  78.
 Defaulting to unpruned grid for atomic number  78.
 Defaulting to unpruned grid for atomic number  78.
 Defaulting to unpruned grid for atomic number  78.
 Defaulting to unpruned grid for atomic number  78.
 Defaulting to unpruned grid for atomic number  78.
 Defaulting to unpruned grid for atomic number  78.
 Defaulting to unpruned grid for atomic number  78.
 Defaulting to unpruned grid for atomic number  78.
 Defaulting to unpruned grid for atomic number  78.
 Defaulting to unpruned grid for atomic number  78.
 Defaulting to unpruned grid for atomic number  78.
 Defaulting to unpruned grid for atomic number  78.
 Defaulting to unpruned grid for atomic number  78.
 Defaulting to unpruned grid for atomic number  78.
 Defaulting to unpruned grid for atomic number  78.
 Defaulting to unpruned grid for atomic number  78.
 Defaulting to unpruned grid for atomic number  78.
 Leave Link  703 at Wed Nov 13 13:31:53 2019, MaxMem=   104857600 cpu:             323.7 elap:              13.6
 (Enter /share/home/wli/program/opt/Chem_soft/g16/l716.exe)
 Dipole        =-2.94266080D-04 3.10333797D-03-3.44167396D-04
 ***** Axes restored to original set *****
 -------------------------------------------------------------------
 Center     Atomic                   Forces (Hartrees/Bohr)
 Number     Number              X              Y              Z
 -------------------------------------------------------------------
      1       78           0.000013546    0.000001959    0.000002029
      2       15          -0.000025828   -0.000031886   -0.000049407
      3       15          -0.000009421    0.000041257    0.000032573
      4        6          -0.000008946   -0.000006338    0.000052747
      5        1           0.000010926    0.000016868   -0.000010668
      6        1          -0.000006864    0.000004794    0.000001220
      7        1           0.000000147   -0.000006897   -0.000005815
      8        6           0.000004571   -0.000021684   -0.000023640
      9        1          -0.000010816    0.000013887    0.000011010
     10        1           0.000006115    0.000003852    0.000007072
     11        1           0.000009607   -0.000010015    0.000007153
     12        6           0.000001925    0.000031991   -0.000006412
     13        1           0.000001247    0.000011903    0.000000881
     14        1           0.000009804   -0.000000233    0.000001364
     15        1          -0.000005418   -0.000003039    0.000008345
     16        6          -0.000004200    0.000012082   -0.000017836
     17        1          -0.000001648   -0.000003322   -0.000001518
     18        1          -0.000008058   -0.000003340    0.000001197
     19        1          -0.000003889   -0.000006103   -0.000005119
     20        6           0.000011590   -0.000034527   -0.000010955
     21        1           0.000013439   -0.000002298    0.000001754
     22        1           0.000000795   -0.000004353   -0.000002093
     23        1           0.000003194   -0.000000306    0.000006022
     24        6          -0.000002343   -0.000016273   -0.000000429
     25        1          -0.000004630    0.000003751    0.000003103
     26        1           0.000001530    0.000000843    0.000001776
     27        1           0.000003628    0.000007428   -0.000004352
 -------------------------------------------------------------------
 Cartesian Forces:  Max     0.000052747 RMS     0.000014383
 Leave Link  716 at Wed Nov 13 13:31:53 2019, MaxMem=   104857600 cpu:               0.8 elap:               0.1
 (Enter /share/home/wli/program/opt/Chem_soft/g16/l103.exe)

 GradGradGradGradGradGradGradGradGradGradGradGradGradGradGradGradGradGrad
 Berny optimization.
 FormGI is forming the generalized inverse of G from B-inverse, IUseBI=4.
 Internal  Forces:  Max     0.000049588 RMS     0.000009153
 Search for a local minimum.
 Step number   1 out of a maximum of  149
 All quantities printed in internal units (Hartrees-Bohrs-Radians)
 RMS Force = .91527D-05 SwitMx=.10000D-02 MixMth= 2
 Mixed Optimization -- En-DIIS/RFO-DIIS
 Second derivative matrix not updated -- first step.
 ITU=  0
     Eigenvalues ---    0.00230   0.00230   0.00230   0.00867   0.00867
     Eigenvalues ---    0.00868   0.00868   0.00869   0.00869   0.03977
     Eigenvalues ---    0.03989   0.04255   0.04526   0.05868   0.05868
     Eigenvalues ---    0.05868   0.05868   0.05869   0.05870   0.06179
     Eigenvalues ---    0.06179   0.06180   0.06180   0.06181   0.06181
     Eigenvalues ---    0.08092   0.08093   0.14349   0.14363   0.14502
     Eigenvalues ---    0.14658   0.16000   0.16000   0.16000   0.16000
     Eigenvalues ---    0.16000   0.16000   0.16000   0.16000   0.16000
     Eigenvalues ---    0.16000   0.16000   0.16000   0.16000   0.16000
     Eigenvalues ---    0.16000   0.16000   0.16000   0.16000   0.24211
     Eigenvalues ---    0.24214   0.24422   0.24425   0.24429   0.24429
     Eigenvalues ---    0.24432   0.24433   0.34371   0.34371   0.34372
     Eigenvalues ---    0.34372   0.34374   0.34374   0.34612   0.34612
     Eigenvalues ---    0.34612   0.34613   0.34613   0.34613   0.34614
     Eigenvalues ---    0.34614   0.34614   0.34614   0.34614   0.34615
 RFO step:  Lambda=-6.71890819D-07 EMin= 2.30000000D-03
 Linear search not attempted -- first point.
 Iteration  1 RMS(Cart)=  0.00540421 RMS(Int)=  0.00000704
[...]
 001773,-0.00000592,-0.00001146,-0.00000089,-0.00001297,0.00000081,0.00
 001061,-0.00000091,0.00000667,0.00000267,0.00536181,-0.01080589,-0.001
 45345,-0.00088528,-0.00046322,-0.00211550,0.00040325,0.00057148,0.0012
 8490,0.00030482,0.00058070,0.00031685,0.05895276,0.42148151,0.00000377
 ,0.00001588,0.00196000,0.00005118,-0.00002208,-0.00035475,0.00259331,-
 0.00584570,-0.04762285,-0.00003255,0.00000399,0.00002309,-0.00000305,0
 .00000274,-0.00000533,-0.00000875,-0.00000905,-0.00000929,0.00000716,-
 0.00000256,-0.00000426,-0.00011632,-0.00000542,0.00003931,0.00001013,-
 0.00000302,-0.00000894,-0.00001675,0.00001645,-0.00002470,0.00001030,0
 .00000251,0.00000437,0.00010671,0.00000299,0.00003367,-0.00001066,-0.0
 0000617,0.00000506,0.00001295,-0.00001341,-0.00002193,-0.00000927,0.00
 000679,-0.00000862,0.00865019,-0.02228805,-0.00117594,-0.00278976,-0.0
 0231584,-0.00510723,0.00057331,0.00084637,0.00122014,0.00063652,0.0007
 9229,0.00125631,0.00427595,-0.00856703,0.54385913,-0.00150219,0.002167
 55,0.00014878,0.00102343,-0.00055864,-0.00003523,-0.01099872,-0.000647
 49,-0.00003235,-0.00039012,0.00009689,0.00000518,0.00001670,0.00001441
 ,-0.00000433,-0.00007886,-0.00013353,-0.00000636,0.00001592,0.00001339
 ,0.00000594,-0.00012982,0.00000664,0.00001787,0.00001084,-0.00000647,0
 .00000497,-0.00005273,0.00002363,-0.00003746,0.00001122,-0.00000696,0.
 00000808,-0.00012748,0.00000911,-0.00001854,0.00001122,-0.00000556,-0.
 00000879,-0.00005318,0.00001864,0.00003887,0.00001205,-0.00000589,-0.0
 0000560,0.00120507,-0.00068410,-0.00014349,0.00025401,-0.00013613,-0.0
 0019528,0.00035362,0.00038583,0.00061041,-0.00005417,0.00001130,-0.000
 02549,-0.31372012,-0.02685103,-0.00174681,0.33645137,0.00120471,-0.003
 51320,-0.00028750,-0.00079011,0.00130292,0.00009489,0.02354412,-0.0022
 3072,-0.00007162,0.00070326,-0.00015112,-0.00000773,-0.00001211,-0.000
 03606,0.00001418,0.00013202,0.00023732,0.00001129,-0.00001076,-0.00003
 299,-0.00001794,0.00008711,-0.00001871,-0.00002149,-0.00000306,-0.0000
 0845,0.00000645,0.00004420,-0.00002859,0.00002925,-0.00000406,0.000005
 17,-0.00000889,0.00007979,-0.00002286,0.00002074,-0.00000547,0.0000050
 3,0.00000476,0.00004413,-0.00002314,-0.00003003,-0.00000397,-0.0000064
 6,-0.00000690,-0.00012924,0.00189210,0.00073796,-0.00011777,0.00026633
 ,0.00050707,-0.00071901,-0.00021104,-0.00040557,-0.00008179,-0.0000296
 2,-0.00003122,-0.01737169,-0.04043601,0.00037430,0.02621536,0.04458410
 ,0.00008225,-0.00029427,0.00068257,-0.00005561,0.00009872,-0.00010334,
 0.00165318,-0.00007210,-0.00119608,0.00005111,-0.00001065,-0.00000898,
 0.00000361,-0.00000004,0.00000209,0.00000941,0.00001711,0.00000733,-0.
 00000558,-0.00000390,-0.00000061,-0.00001458,0.00000096,-0.00000380,-0
 .00000455,0.00000455,0.00000158,0.00000314,0.00000565,-0.00000237,-0.0
 0000249,-0.00000417,0.00000122,0.00002391,-0.00000409,-0.00000138,0.00
 000277,0.00000450,0.00000199,0.00000211,-0.00000871,-0.00000697,0.0000
 0408,-0.00000530,0.00000028,0.00058055,0.00032344,-0.00010451,-0.00014
 859,0.00009736,0.00002004,-0.00012699,-0.00029044,0.00006205,0.0000579
 0,-0.00004204,-0.00008109,-0.00104114,0.00038011,-0.04493082,0.0016293
 6,0.00000664,0.04336660,-0.00018089,-0.00020994,-0.00022684,-0.0001620
 3,0.00005561,0.00000359,0.00257069,0.00320139,0.01027976,0.00006062,-0
 .00001520,0.00000443,-0.00001957,-0.00000330,-0.00000825,0.00001679,0.
 00001184,-0.00000399,-0.00000838,0.00000103,0.00000560,0.00001925,-0.0
 0001252,0.00000051,-0.00000086,0.00000073,-0.00000217,0.00001035,-0.00
 000013,0.00000475,-0.00000400,0.00000746,-0.00000393,0.00001825,-0.000
 00960,0.00000397,-0.00000176,0.00000221,0.00000287,0.00001290,0.000002
 20,-0.00000615,-0.00000365,0.00000353,0.00000251,-0.00110063,0.0029053
 4,-0.00022143,0.00081567,0.00049776,0.00073062,0.00025116,0.00018403,0
 .00005405,-0.00015024,-0.00015921,-0.00030840,-0.06612131,-0.03668377,
 -0.06652274,-0.00701247,-0.01419870,-0.02631911,0.06945495,-0.00033896
 ,0.00070446,0.00085599,0.00030354,-0.00011813,-0.00012243,-0.00806090,
 -0.00902631,-0.01914031,-0.00009587,0.00001227,0.00000252,0.00000299,0
 .00001061,-0.00000791,-0.00001451,-0.00003450,0.00000048,-0.00000068,0
 .00000291,0.00000775,-0.00003400,-0.00000127,0.00000643,0.00000339,-0.
 00000305,-0.00000032,-0.00001076,0.00000797,-0.00000522,0.00000799,-0.
 00000089,0.00000472,0.00002671,-0.00000314,0.00000609,0.00000237,0.000
 00015,-0.00000156,-0.00000761,-0.00000518,-0.00000766,0.00000413,-0.00
 000628,-0.00000552,0.00304073,-0.00601141,0.00012823,-0.00087120,-0.00
 055981,-0.00181440,0.00023066,0.00026537,0.00050715,0.00016158,0.00021
 625,0.00008308,-0.04050979,-0.09809184,-0.11166784,0.00015751,-0.00184
 946,-0.00073003,0.04024638,0.10435057,-0.00002549,0.00010844,0.0002573
 4,0.00004268,0.00006224,-0.00000087,-0.00044532,0.00107154,-0.00176865
 ,0.00002659,-0.00000074,-0.00000653,0.00000886,-0.00000635,0.00001295,
 0.00000483,0.00001469,0.00000204,0.00000749,-0.00000433,-0.00001349,-0
 .00000131,0.00001263,-0.00000572,-0.00000015,-0.00000118,0.00000104,-0
 .00000091,-0.00000207,-0.00000135,-0.00000252,-0.00000211,0.00000275,0
 .00000298,0.00001131,0.00000153,0.00000004,-0.00000178,-0.00000228,-0.
 00000388,-0.00000576,-0.00000138,0.00000277,-0.00000557,-0.00000213,0.
 00045751,-0.00008658,0.00043095,-0.00018744,0.00010719,0.00013050,0.00
 005259,0.00009783,0.00001920,-0.00003203,0.00013083,0.00020721,-0.0688
 9037,-0.10582213,-0.24040570,0.00119891,0.00159262,0.00134425,0.074831
 77,0.11497692,0.25833340,-0.00018697,-0.00025051,0.00020087,-0.0001580
 2,0.00005769,0.00000268,0.00253360,0.00456904,-0.00971204,0.00006138,-
 0.00001452,-0.00000672,-0.00000914,0.00000084,-0.00000796,0.00001597,0
 .00001141,0.00000492,-0.00002090,-0.00000321,0.00000950,0.00001607,-0.
 00000979,-0.00000374,-0.00000317,0.00000420,-0.00000209,0.00001271,0.0
 0000183,0.00000587,-0.00000135,0.00000267,-0.00000292,0.00001906,-0.00
 001385,-0.00000174,-0.00000356,0.00000601,0.00000498,0.00001050,0.0000
 0083,-0.00000466,-0.00000122,0.00000086,0.00000222,-0.00000151,-0.0006
 9152,-0.00004367,-0.00014831,-0.00002750,-0.00016166,-0.00005576,-0.00
 002211,0.00009890,0.00019899,-0.00001755,0.00010247,-0.06579622,-0.045
 21490,0.06061756,-0.00697494,-0.01768186,0.02413272,0.00152936,0.00597
 638,-0.00707709,0.06916171,-0.00033489,0.00082932,-0.00077741,0.000302
 13,-0.00012615,0.00010837,-0.00798747,-0.01134492,0.01779955,-0.000092
 95,0.00001262,-0.00000226,-0.00000039,0.00000339,-0.00000511,-0.000013
 50,-0.00003237,-0.00000357,0.00000412,0.00001000,0.00000650,0.00002802
 ,-0.00000022,-0.00000803,0.00000396,-0.00000756,0.00000495,-0.00000784
 ,-0.00000675,0.00000744,0.00000213,0.00000032,0.00000194,-0.00003048,0
 .00000197,-0.00000627,0.00000741,-0.00000132,-0.00000533,-0.00001064,0
 .00000583,0.00000495,0.00000355,-0.00000338,-0.00000022,-0.00048546,0.
 00156694,-0.00009015,0.00034680,0.00027834,0.00005644,0.00001795,-0.00
 009829,0.00000039,-0.00009340,-0.00053228,-0.00072765,-0.04938454,-0.1
 3047882,0.12707319,0.00032528,-0.00166911,0.00031368,0.00493175,0.0090
 3539,-0.01220473,0.04989511,0.13863246,-0.00003402,-0.00002665,0.00012
 891,0.00000770,-0.00007980,0.00000499,-0.00062822,-0.00242255,0.000552
 83,-0.00004147,0.00000319,-0.00000350,-0.00000625,0.00000628,-0.000014
 06,-0.00000715,-0.00001999,-0.00000025,-0.00000898,0.00000569,0.000016
 00,-0.00000223,-0.00001130,0.00000117,-0.00000201,0.00000466,-0.000000
 77,0.00000136,0.00000531,-0.00000032,0.00000128,0.00000048,-0.00000410
 ,-0.00000401,-0.00001309,-0.00000644,0.00000294,0.00000378,-0.00000013
 ,-0.00000051,0.00000367,0.00000022,0.00000077,0.00000133,0.00000132,-0
 .00013100,0.00041097,0.00028918,0.00002979,0.00010383,0.00014261,-0.00
 002188,-0.00001642,-0.00001219,0.00006077,-0.00034981,-0.00008299,0.06
 245650,0.12120294,-0.20826209,-0.00115392,-0.00198176,0.00113378,0.007
 80227,0.01607279,-0.01897268,-0.06838596,-0.13169009,0.22432673,-0.005
 67830,-0.00730650,0.01091643,0.00232213,0.00233506,-0.00347906,-0.0704
 4603,-0.03536069,0.05246917,-0.00016167,-0.00001381,0.00011073,0.00001
 926,0.00003084,0.00000159,-0.00012831,-0.00008103,0.00001439,0.0000179
 4,-0.00002774,0.00000049,-0.00211880,-0.00026888,0.00040742,0.00005784
 ,-0.00002377,0.00009725,-0.00038927,0.00038151,-0.00059468,0.00006267,
 -0.00007946,0.00005736,-0.00018656,-0.00009578,0.00004922,0.00001948,0
 .00000725,0.00002934,-0.00013144,0.00002039,0.00008741,0.00001722,-0.0
 0001404,-0.00003029,0.00352004,0.00484652,-0.00898452,0.00000587,0.000
 13054,0.00048691,0.00119563,0.00054992,-0.00023456,-0.00112289,-0.0011
 2876,-0.00286563,0.00346874,0.00643793,-0.00781406,0.00119048,0.000024
 47,-0.00062675,-0.00000194,-0.00049894,0.00005687,-0.00111696,0.003067
 80,-0.00003619,0.51505501,-0.00019904,0.00202139,-0.00009286,-0.000285
 01,-0.00047599,0.00018280,-0.02145104,-0.07325563,0.03873160,-0.000095
 24,0.00002578,-0.00000561,0.00001279,-0.00000140,0.00001171,-0.0000058
 1,-0.00001842,0.00000254,0.00000957,-0.00000171,-0.00001012,0.00027175
 ,0.00003784,-0.00002245,-0.00000446,0.00000114,-0.00000984,0.00005620,
 -0.00005201,0.00006772,-0.00001358,-0.00000066,-0.00000594,0.00009309,
 0.00004202,0.00001116,-0.00000735,-0.00000773,-0.00000335,0.00001842,-
 0.00001385,-0.00002528,-0.00000413,0.00000240,0.00000475,0.00351882,0.
 00670334,-0.00863680,0.00031177,0.00046838,0.00071176,0.00020983,-0.00
 006428,0.00036223,-0.00165335,-0.00120234,-0.00289758,-0.01011671,-0.0
 1378906,0.02052146,-0.00071066,0.00199198,-0.00003757,-0.00069549,0.00
 155463,-0.00022147,0.00283564,-0.00588175,-0.00080228,-0.03298646,0.50
 610176,0.00029403,-0.00008943,0.00208699,0.00043020,0.00017211,-0.0006
 2085,0.03180238,0.03879442,-0.10485799,-0.00005781,0.00001627,0.000035
 12,-0.00000156,0.00000819,-0.00000152,-0.00001382,-0.00002137,-0.00000
 376,0.00000366,-0.00000483,-0.00000280,-0.00040115,-0.00002172,0.00005
 268,0.00001672,-0.00000491,0.00000649,-0.00008509,0.00006350,-0.000109
 24,0.00000969,-0.00000968,0.00000943,0.00006538,-0.00000794,0.00002703
 ,-0.00000702,-0.00000775,0.00000308,-0.00000093,-0.00000116,-0.0000089
 0,-0.00001174,0.00000924,-0.00000871,0.00955486,0.01221084,-0.01877667
 ,0.00062063,0.00022060,0.00137147,0.00066738,0.00080104,0.00185986,-0.
 00240329,-0.00269227,-0.00436357,0.00024168,-0.00036930,0.00193971,0.0
 0007097,-0.00046660,-0.00019377,-0.00005227,0.00025118,0.00027118,0.00
 062797,-0.00100885,0.00029329,0.04909206,0.05705164,0.45954935,-0.0001
 7467,-0.00005026,-0.00031480,-0.00018057,-0.00003108,0.00004604,0.0025
 8840,0.00615245,0.00885473,0.00002296,0.00000913,-0.00000954,-0.000003
 51,-0.00000792,0.00000238,0.00001067,0.00000442,0.00000270,-0.00000162
 ,-0.00000273,-0.00000065,0.00006493,0.00001249,-0.00000918,-0.00000913
 ,0.00000529,0.00000463,0.00001812,-0.00001049,0.00000831,-0.00002042,-
 0.00000508,-0.00000747,0.00002033,0.00000678,-0.00000597,-0.00000452,0
 .00000042,0.00000518,0.00001388,-0.00000615,-0.00000241,-0.00000156,0.
 00000147,0.00000362,-0.00111584,-0.00195898,0.00214948,-0.00014745,-0.
 00014780,-0.00031257,0.00025489,-0.00007115,0.00017376,0.00081397,0.00
 027094,0.00084338,-0.00000223,0.00038983,-0.00058600,-0.00005431,-0.00
 007407,-0.00006764,0.00020864,-0.00008294,-0.00006631,-0.00014831,0.00
 015482,0.00005470,-0.06610922,-0.02999407,-0.06982117,0.06946314,0.000
 19372,-0.00004144,-0.00047707,-0.00017067,-0.00001717,0.00013952,0.004
 58995,0.00425368,0.01141672,0.00002080,-0.00001172,0.00000442,-0.00000
 717,-0.00000019,-0.00000119,0.00000709,0.00000580,-0.00000460,-0.00000
 289,0.00000121,-0.00000045,0.00008335,-0.00000073,-0.00000917,0.000006
 41,-0.00000946,-0.00001419,0.00001331,-0.00001885,0.00002844,0.0000043
 4,0.00002067,0.00000107,-0.00001118,-0.00000819,0.00000681,-0.00000040
 ,0.00000128,0.00000233,0.00000248,0.00000371,0.00000008,-0.00000171,-0
 .00000046,-0.00000185,-0.00150598,-0.00202350,0.00301534,-0.00012461,0
 .00010484,0.00003930,-0.00010066,-0.00018081,-0.00025126,0.00038417,0.
 00069482,0.00108866,0.00035898,0.00072739,-0.00086991,0.00000660,-0.00
 003992,0.00004562,-0.00000687,-0.00064796,0.00025602,-0.00019840,0.000
 24561,-0.00012417,-0.02950275,-0.08123541,-0.09263224,0.03436605,0.088
 71954,-0.00027719,0.00027701,0.00100147,0.00024714,-0.00004187,-0.0001
 0591,-0.00663779,-0.00881881,-0.01498836,-0.00002229,-0.00000035,0.000
 00642,0.00000434,0.00000537,0.00000140,-0.00000860,-0.00000499,0.00000
 039,0.00000268,0.00000123,-0.00000208,-0.00005759,-0.00000802,0.000009
 78,0.00000283,-0.00000204,-0.00000143,-0.00000833,0.00001167,-0.000013
 58,0.00000736,-0.00000064,0.00000444,0.00002537,0.00000145,0.00000622,
 0.00000452,0.00000034,-0.00000911,-0.00000706,-0.00000112,-0.00001126,
 0.00000177,-0.00000148,-0.00000173,0.00268107,0.00323197,-0.00356311,0
 .00010543,-0.00000305,0.00031314,0.00021735,0.00015929,0.00046698,-0.0
 0080165,-0.00083495,-0.00112812,-0.00035632,-0.00036659,0.00110014,0.0
 0002621,0.00003283,-0.00006794,-0.00010871,0.00064912,0.00005472,0.000
 28385,-0.00007634,0.00017483,-0.07432749,-0.09849020,-0.25732578,0.077
 76824,0.10275509,0.27396313,-0.00150768,-0.00121229,0.00180722,0.00105
 123,0.00031208,-0.00046341,-0.01102256,0.00039574,-0.00059288,-0.00013
 506,0.00000579,0.00001467,0.00001158,0.00001068,-0.00000121,-0.0000534
 4,-0.00004386,-0.00000226,0.00001333,0.00000839,-0.00000091,-0.0003918
 4,-0.00005019,0.00008040,0.00001511,-0.00000256,0.00001430,-0.00008051
 ,0.00007253,-0.00011356,0.00001787,-0.00001379,0.00000925,-0.00013408,
 -0.00001115,-0.00000614,0.00001525,-0.00000451,-0.00000641,-0.00005535
 ,0.00001982,0.00004011,0.00000939,-0.00000539,-0.00000966,0.00118915,0
 .00029665,-0.00061136,-0.00005387,-0.00002405,-0.00000496,0.00034104,0
 .00023587,0.00068853,0.00025301,-0.00007068,-0.00022709,0.00118788,0.0
 0047935,-0.00052177,0.00033756,-0.00073707,0.00004509,-0.00005405,0.00
 001519,0.00002056,0.00025293,0.00023661,-0.00002030,-0.31367462,0.0154
 8810,-0.02222110,-0.00702164,0.00085263,0.00086115,0.33643786,-0.00067
 300,-0.00061651,0.00196740,0.00044323,0.00033181,-0.00065891,-0.013105
 74,-0.00150444,0.00050800,-0.00006018,-0.00000006,0.00001705,0.0000000
 8,0.00000757,-0.00000225,-0.00002321,-0.00002731,0.00000584,-0.0000016
 8,-0.00000621,0.00000484,-0.00039493,-0.00005416,0.00006741,0.00000288
 ,-0.00000019,0.00001971,-0.00007539,0.00007651,-0.00010947,0.00001074,
 -0.00001851,0.00001304,-0.00003255,-0.00001520,-0.00000082,0.00000717,
 0.00000277,0.00000386,-0.00002551,0.00000593,0.00001436,0.00000369,-0.
 00000283,-0.00000070,0.00053889,0.00012785,-0.00104390,0.00009531,-0.0
 0002751,-0.00004103,0.00032413,0.00029222,0.00010761,-0.00004861,-0.00
 018095,-0.00024696,-0.00050237,0.00088272,-0.00092570,0.00045699,-0.00
 032260,0.00025817,-0.00000633,-0.00009893,0.00000282,0.00018803,0.0003
 4322,-0.00005382,0.01016770,-0.04355945,-0.00212849,-0.01204445,-0.000
 27019,0.00049080,-0.01514933,0.04376666,0.00100516,0.00196161,-0.00221
 562,-0.00065765,-0.00065380,0.00086751,0.01948842,0.00047572,-0.001869
 31,0.00005627,-0.00000709,-0.00002279,-0.00000474,-0.00000538,-0.00000
 243,0.00003551,0.00002722,-0.00000225,-0.00000591,0.00000610,0.0000012
 3,0.00058394,0.00006626,-0.00010817,-0.00001181,0.00000366,-0.00003174
 ,0.00011169,-0.00010342,0.00016860,-0.00000763,0.00002700,-0.00001496,
 0.00008580,0.00002224,-0.00000490,-0.00000198,0.00000190,-0.00001150,0
 .00003723,-0.00000886,-0.00003797,-0.00000159,0.00000183,0.00000887,0.
 00032341,-0.00062568,0.00164681,-0.00003317,-0.00002501,-0.00008168,-0
 .00064358,-0.00000413,-0.00047775,-0.00018156,0.00016180,0.00046302,-0
 .00037349,-0.00133695,0.00093328,-0.00052614,0.00036633,0.00013494,-0.
 00009950,-0.00001200,-0.00001281,-0.00002660,-0.00046163,-0.00005689,-
 0.01432160,-0.00214770,-0.04172644,-0.02737822,0.00283615,-0.00022973,
 0.02167106,-0.00057239,0.04410596,-0.00020422,0.00028891,-0.00005751,-
 0.00014463,-0.00003260,0.00004698,0.00256644,-0.01048983,-0.00239480,0
 .00001584,0.00000324,-0.00000928,-0.00000112,-0.00000367,0.00000003,0.
 00001133,0.00000354,0.00000458,-0.00000350,-0.00000432,0.00000241,0.00
 005706,0.00000261,-0.00001438,-0.00001793,0.00001084,0.00000164,0.0000
 1500,-0.00000234,0.00001172,-0.00000825,-0.00000600,-0.00000324,0.0000
 1631,0.00000392,-0.00001119,-0.00000140,0.00000192,0.00000123,0.000009
 51,-0.00000330,-0.00000182,-0.00000318,0.00000184,0.00000766,0.0000015
 5,0.00039627,-0.00057168,0.00018171,0.00009246,0.00004789,-0.00005472,
 0.00009312,0.00004457,-0.00014839,-0.00010878,-0.00012128,-0.00111325,
 -0.00124374,0.00262945,0.00025564,-0.00013843,0.00013185,-0.00014684,0
 .00034662,0.00001838,0.00081404,-0.00088588,0.00006602,-0.06568628,0.0
 7539640,0.00157934,0.00151506,-0.00925658,0.00037371,-0.00694851,0.029
 90444,0.00087670,0.06902271,0.00018711,0.00078095,-0.00005801,-0.00017
 613,-0.00005515,-0.00002620,0.00441323,-0.01140993,-0.00246412,-0.0000
 1697,0.00000738,-0.00000334,-0.00000058,-0.00000403,-0.00000286,0.0000
 0577,-0.00000851,0.00000471,-0.00000429,-0.00000867,0.00000611,0.00002
 071,0.00000207,-0.00000696,-0.00001104,0.00000736,0.00000388,0.0000035
 7,-0.00000018,0.00000353,-0.00000489,-0.00000918,-0.00000355,0.0000175
 5,0.00000430,-0.00000788,-0.00000195,-0.00000025,0.00000143,0.00000634
 ,-0.00000251,-0.00000273,-0.00000232,0.00000241,0.00000506,0.00019511,
 0.00060876,-0.00032187,0.00009611,0.00027445,0.00026853,-0.00002910,-0
 .00003731,0.00003002,-0.00018736,0.00011744,-0.00002666,-0.00191968,-0
 .00115474,0.00288284,-0.00016268,0.00034515,-0.00005321,-0.00005020,0.
 00029757,-0.00008031,0.00059515,-0.00078250,-0.00023322,0.07938869,-0.
 29939095,-0.01013251,0.00311308,-0.01027257,0.00103428,-0.00110455,0.0
 0086780,0.00000623,-0.08437068,0.31982084,-0.00027491,-0.00082620,0.00
 017118,0.00023406,0.00015996,-0.00006197,-0.00671401,0.01776334,0.0005
 9966,0.00002195,-0.00000088,-0.00000954,0.00000215,-0.00000075,0.00000
 064,-0.00000521,0.00000606,0.00000168,0.00000215,0.00000461,-0.0000005
 4,-0.00009481,-0.00001014,0.00000559,-0.00000263,0.00000401,0.00001726
 ,-0.00001367,0.00001921,-0.00003166,-0.00000462,-0.00001364,-0.0000016
 8,-0.00002785,-0.00000305,-0.00001094,0.00000335,0.00000168,-0.0000008
 9,-0.00000899,-0.00000087,0.00000838,0.00000762,-0.00000434,-0.0000011
 3,-0.00046089,-0.00080998,0.00122502,-0.00003125,-0.00011052,-0.000872
 21,0.00000267,0.00004513,-0.00006694,0.00029083,-0.00006777,0.00030419
 ,0.00240592,0.00267274,-0.00443176,0.00017424,-0.00046208,-0.00005707,
 0.00015680,-0.00003726,0.00012453,-0.00065768,0.00169024,0.00035055,-0
 .00056180,-0.00425031,-0.03950569,0.00866482,-0.02724948,0.00034507,-0
 .00044932,0.00230351,-0.00142327,-0.00265894,0.00917678,0.04332153\\-0
 .00000503,0.00006026,0.00009421,0.00000689,-0.00004208,-0.00005643,-0.
 00000945,-0.00011660,-0.00006851,-0.00000121,0.00002449,-0.00001351,-0
 .00001176,-0.00000531,0.00000204,0.00000304,-0.00000267,-0.00001106,0.
 00000511,-0.00001703,0.00000766,-0.00002089,0.00000918,-0.00000044,0.0
 0000795,-0.00000962,0.00000303,0.00000006,0.00000034,0.00000166,0.0000
 0463,0.00000493,0.00001075,0.00001935,0.00000793,0.00000658,0.00000821
 ,-0.00000311,0.00001039,-0.00000183,0.00000141,-0.00000374,-0.00001303
 ,0.00000274,-0.00000476,-0.00002576,0.00003591,0.00001206,0.00001827,0
 .00001468,0.00000938,0.00001517,0.00000082,-0.00000305,-0.00001298,-0.
 00000853,0.00000677,0.00000622,0.00003626,-0.00000775,-0.00001027,0.00
 000003,-0.00000683,0.00000160,-0.00000161,-0.00000929,-0.00000243,-0.0
 0000248,-0.00000086,0.00001262,0.00001342,0.00000223,-0.00000365,-0.00
 000012,0.00002279,0.00000700,0.00000683,-0.00000472,0.00000217,-0.0000
 1008,0.00000140\\\@


 MEN HAVE BECOME THE TOOLS OF THEIR TOOLS... THOREAU   
 Job cpu time:       0 days  7 hours 33 minutes 24.1 seconds.
 Elapsed time:       0 days  0 hours 19 minutes 49.7 seconds.
 File lengths (MBytes):  RWF=   1616 Int=      0 D2E=      0 Chk=   1072 Scr=     32
 Normal termination of Gaussian 16 at Wed Nov 13 14:05:40 2019.
