 Entering Gaussian System, Link 0=g16
 Input=Pt_preR.gjf
 Output=Pt_preR.log
 Initial command:
 /share/home/wli/program/opt/Chem_soft/g16/l1.exe "/scratch/wli/Gau-3699.inp" -scrdir="/scratch/wli/"
 Entering Link 1 = /share/home/wli/program/opt/Chem_soft/g16/l1.exe PID=      3700.
  
 Copyright (c) 1988,1990,1992,1993,1995,1998,2003,2009,2016,
            Gaussian, Inc.  All Rights Reserved.
  
 This is part of the Gaussian(R) 16 program.  It is based on
 the Gaussian(R) 09 system (copyright 2009, Gaussian, Inc.),
 the Gaussian(R) 03 system (copyright 2003, Gaussian, Inc.),
 the Gaussian(R) 98 system (copyright 1998, Gaussian, Inc.),
 the Gaussian(R) 94 system (copyright 1995, Gaussian, Inc.),
 the Gaussian 92(TM) system (copyright 1992, Gaussian, Inc.),
 the Gaussian 90(TM) system (copyright 1990, Gaussian, Inc.),
 the Gaussian 88(TM) system (copyright 1988, Gaussian, Inc.),
 the Gaussian 86(TM) system (copyright 1986, Carnegie Mellon
 University), and the Gaussian 82(TM) system (copyright 1983,
 Carnegie Mellon University). Gaussian is a federally registered
 trademark of Gaussian, Inc.
  
 This software contains proprietary and confidential information,
 including trade secrets, belonging to Gaussian, Inc.
  
 This software is provided under written license and may be
 used, copied, transmitted, or stored only in accord with that
 written license.
  
 The following legend is applicable only to US Government
 contracts under FAR:
  
                    RESTRICTED RIGHTS LEGEND
  
 Use, reproduction and disclosure by the US Government is
 subject to restrictions as set forth in subparagraphs (a)
 and (c) of the Commercial Computer Software - Restricted
 Rights clause in FAR 52.227-19.
  
 Gaussian, Inc.
 340 Quinnipiac St., Bldg. 40, Wallingford CT 06492
  
  
 ---------------------------------------------------------------
 Warning -- This program may not be used in any manner that
 competes with the business of Gaussian, Inc. or will provide
 assistance to any competitor of Gaussian, Inc.  The licensee
 of this program is prohibited from giving any competitor of
 Gaussian, Inc. access to this program.  By using this program,
 the user acknowledges that Gaussian, Inc. is engaged in the
 business of creating and licensing software in the field of
 computational chemistry and represents and warrants to the
 licensee that it is not a competitor of Gaussian, Inc. and that
 it will not use this program in any manner prohibited above.
 ---------------------------------------------------------------
  

 Cite this work as:
 Gaussian 16, Revision A.03,
 M. J. Frisch, G. W. Trucks, H. B. Schlegel, G. E. Scuseria, 
 M. A. Robb, J. R. Cheeseman, G. Scalmani, V. Barone, 
 G. A. Petersson, H. Nakatsuji, X. Li, M. Caricato, A. V. Marenich, 
 J. Bloino, B. G. Janesko, R. Gomperts, B. Mennucci, H. P. Hratchian, 
 J. V. Ortiz, A. F. Izmaylov, J. L. Sonnenberg, D. Williams-Young, 
 F. Ding, F. Lipparini, F. Egidi, J. Goings, B. Peng, A. Petrone, 
 T. Henderson, D. Ranasinghe, V. G. Zakrzewski, J. Gao, N. Rega, 
 G. Zheng, W. Liang, M. Hada, M. Ehara, K. Toyota, R. Fukuda, 
 J. Hasegawa, M. Ishida, T. Nakajima, Y. Honda, O. Kitao, H. Nakai, 
 T. Vreven, K. Throssell, J. A. Montgomery, Jr., J. E. Peralta, 
 F. Ogliaro, M. J. Bearpark, J. J. Heyd, E. N. Brothers, K. N. Kudin, 
 V. N. Staroverov, T. A. Keith, R. Kobayashi, J. Normand, 
 K. Raghavachari, A. P. Rendell, J. C. Burant, S. S. Iyengar, 
 J. Tomasi, M. Cossi, J. M. Millam, M. Klene, C. Adamo, R. Cammi, 
 J. W. Ochterski, R. L. Martin, K. Morokuma, O. Farkas, 
 J. B. Foresman, and D. J. Fox, Gaussian, Inc., Wallingford CT, 2016.
 
 ******************************************
 Gaussian 16:  ES64L-G16RevA.03 25-Dec-2016
                 9-Nov-2019 
 ******************************************
 %chk=Pt_preR.chk
 %nproc=24
 Will use up to   24 processors via shared memory.
 ----------------------------------------------------------------------
 #p pbe1pbe/def2tzvp opt=calcall em=gd3bj geom=allcheck scrf=(smd,solve
 nt=benzene)
 ----------------------------------------------------------------------
 1/10=4,18=20,19=15,26=3,29=7,38=1/1,3;
 2/9=110,12=2,40=1/2;
 3/5=44,7=101,11=2,14=-4,25=1,30=1,70=32201,71=2,72=12,74=-13,124=41,140=1/1,2,3;
 4//1;
 5/5=2,38=5,53=12/2;
 8/6=4,10=90,11=11/1;
 11/6=1,8=1,9=11,15=111,16=1/1,2,10;
 10/6=1/2;
 6/7=2,8=2,9=2,10=2,18=1,28=1/1;
 7/10=1,25=1/1,2,3,16;
 1/10=4,18=20,19=15,26=3/3(3);
 2/9=110/2;
 7/8=1,9=1,25=1,44=-1/16;
 99//99;
 2/9=110/2;
 3/5=44,7=101,11=2,14=-2,25=1,30=1,70=32205,71=2,72=12,74=-13,124=41,140=1/1,2,3;
 4/5=5,16=3,69=1/1;
 5/5=2,38=5,53=12/2;
 8/6=4,10=90,11=11/1;
 11/6=1,8=1,9=11,15=111,16=1/1,2,10;
 10/6=1/2;
 7/10=1,25=1/1,2,3,16;
 1/10=4,18=20,19=15,26=3/3(-8);
 2/9=110/2;
 6/7=2,8=2,9=2,10=2,18=1,19=2,28=1/1;
 7/8=1,9=1,25=1,44=-1/16;
 99//99;
 Leave Link    1 at Sat Nov  9 02:28:00 2019, MaxMem=           0 cpu:               8.9 elap:               0.4
 (Enter /share/home/wli/program/opt/Chem_soft/g16/l101.exe)
 Structure from the checkpoint file:  "Pt_preR.chk"
 -------------------
 Title Card Required
 -------------------
 Charge =  0 Multiplicity = 1
 Redundant internal coordinates found in file.  (old form).
 Pt,0,-0.3991575792,0.5253755853,-0.0011464401
 P,0,1.8484778888,0.5252985259,-0.0004992432
 P,0,-2.646805358,0.5251183531,-0.0001508145
 C,0,2.6520966258,2.1599661106,-0.0570649828
 H,0,2.3334993502,2.7478130267,0.8059561425
 H,0,3.7424720461,2.0730686193,-0.0531110363
 H,0,2.3348950514,2.6866059651,-0.9592397199
 C,0,2.6514805824,-0.2426539178,1.4440475455
 H,0,2.33330467,-1.2840868655,1.5217509322
 H,0,3.7418696996,-0.2020371658,1.3675631134
 H,0,2.3333437337,0.2754297876,2.3508225116
 C,0,2.6527194503,-0.3416056668,-1.3870624119
 H,0,2.3352748155,0.1116535353,-2.328169385
 H,0,3.7430346497,-0.2954939497,-1.3127951915
 H,0,2.3348582294,-1.3860079337,-1.3919378509
 C,0,-3.4504038454,-1.1095540789,0.0568709466
 H,0,-3.1323311221,-1.6362519767,0.9586992051
 H,0,-4.5407802567,-1.0226081437,0.053976759
 H,0,-3.1326686841,-1.6973589119,-0.8065025755
 C,0,-3.4508820284,1.2933493648,-1.4439152798
 H,0,-4.5412189335,1.2525156725,-1.3667660297
 H,0,-3.1329136932,2.3348557311,-1.5214643662
 H,0,-3.1332217336,0.7756297496,-2.351066275
 C,0,-3.4499734769,1.391725379,1.3872450001
 H,0,-3.1320152632,2.4360999523,1.3922876221
 H,0,-4.5403425166,1.3457295318,1.3137015079
 H,0,-3.1319230105,0.9380962457,2.3279699518
 Recover connectivity data from disk.
 ITRead=  0  0  0  0  0  0  0  0  0  0  0  0  0  0  0  0  0  0  0  0
 ITRead=  0  0  0  0  0  0  0
 MicOpt= -1 -1 -1 -1 -1 -1 -1 -1 -1 -1 -1 -1 -1 -1 -1 -1 -1 -1 -1 -1
 MicOpt= -1 -1 -1 -1 -1 -1 -1
 NAtoms=     27 NQM=       27 NQMF=       0 NMMI=      0 NMMIF=      0
                NMic=       0 NMicF=      0.
                    Isotopes and Nuclear Properties:
 (Nuclear quadrupole moments (NQMom) in fm**2, nuclear magnetic moments (NMagM)
  in nuclear magnetons)

  Atom         1           2           3           4           5           6           7           8           9          10
 IAtWgt=         195          31          31          12           1           1           1          12           1           1
 AtmWgt= 194.9648000  30.9737634  30.9737634  12.0000000   1.0078250   1.0078250   1.0078250  12.0000000   1.0078250   1.0078250
 NucSpn=           1           1           1           0           1           1           1           0           1           1
 AtZEff=1176.2400000  12.9400000  12.9400000   3.6000000   1.0000000   1.0000000   1.0000000   3.6000000   1.0000000   1.0000000
 NQMom=    0.0000000   0.0000000   0.0000000   0.0000000   0.0000000   0.0000000   0.0000000   0.0000000   0.0000000   0.0000000
 NMagM=    0.6095000   1.1316000   1.1316000   0.0000000   2.7928460   2.7928460   2.7928460   0.0000000   2.7928460   2.7928460
 AtZNuc=  78.0000000  15.0000000  15.0000000   6.0000000   1.0000000   1.0000000   1.0000000   6.0000000   1.0000000   1.0000000

  Atom        11          12          13          14          15          16          17          18          19          20
 IAtWgt=           1          12           1           1           1          12           1           1           1          12
 AtmWgt=   1.0078250  12.0000000   1.0078250   1.0078250   1.0078250  12.0000000   1.0078250   1.0078250   1.0078250  12.0000000
 NucSpn=           1           0           1           1           1           0           1           1           1           0
 AtZEff=   1.0000000   3.6000000   1.0000000   1.0000000   1.0000000   3.6000000   1.0000000   1.0000000   1.0000000   3.6000000
 NQMom=    0.0000000   0.0000000   0.0000000   0.0000000   0.0000000   0.0000000   0.0000000   0.0000000   0.0000000   0.0000000
 NMagM=    2.7928460   0.0000000   2.7928460   2.7928460   2.7928460   0.0000000   2.7928460   2.7928460   2.7928460   0.0000000
 AtZNuc=   1.0000000   6.0000000   1.0000000   1.0000000   1.0000000   6.0000000   1.0000000   1.0000000   1.0000000   6.0000000

  Atom        21          22          23          24          25          26          27
 IAtWgt=           1           1           1          12           1           1           1
 AtmWgt=   1.0078250   1.0078250   1.0078250  12.0000000   1.0078250   1.0078250   1.0078250
 NucSpn=           1           1           1           0           1           1           1
 AtZEff=   1.0000000   1.0000000   1.0000000   3.6000000   1.0000000   1.0000000   1.0000000
 NQMom=    0.0000000   0.0000000   0.0000000   0.0000000   0.0000000   0.0000000   0.0000000
 NMagM=    2.7928460   2.7928460   2.7928460   0.0000000   2.7928460   2.7928460   2.7928460
 AtZNuc=   1.0000000   1.0000000   1.0000000   6.0000000   1.0000000   1.0000000   1.0000000
 Leave Link  101 at Sat Nov  9 02:28:00 2019, MaxMem=   104857600 cpu:               4.0 elap:               0.2
 (Enter /share/home/wli/program/opt/Chem_soft/g16/l103.exe)

 GradGradGradGradGradGradGradGradGradGradGradGradGradGradGradGradGradGrad
 Berny optimization.
 Initialization pass.
                           ----------------------------
                           !    Initial Parameters    !
                           ! (Angstroms and Degrees)  !
 --------------------------                            --------------------------
 ! Name  Definition              Value          Derivative Info.                !
 --------------------------------------------------------------------------------
 ! R1    R(1,2)                  2.2476         calculate D2E/DX2 analytically  !
 ! R2    R(1,3)                  2.2476         calculate D2E/DX2 analytically  !
 ! R3    R(2,4)                  1.8224         calculate D2E/DX2 analytically  !
 ! R4    R(2,8)                  1.8224         calculate D2E/DX2 analytically  !
 ! R5    R(2,12)                 1.8223         calculate D2E/DX2 analytically  !
 ! R6    R(3,16)                 1.8224         calculate D2E/DX2 analytically  !
 ! R7    R(3,20)                 1.8224         calculate D2E/DX2 analytically  !
 ! R8    R(3,24)                 1.8223         calculate D2E/DX2 analytically  !
 ! R9    R(4,5)                  1.0917         calculate D2E/DX2 analytically  !
 ! R10   R(4,6)                  1.0938         calculate D2E/DX2 analytically  !
 ! R11   R(4,7)                  1.0917         calculate D2E/DX2 analytically  !
 ! R12   R(8,9)                  1.0917         calculate D2E/DX2 analytically  !
 ! R13   R(8,10)                 1.0938         calculate D2E/DX2 analytically  !
 ! R14   R(8,11)                 1.0917         calculate D2E/DX2 analytically  !
 ! R15   R(12,13)                1.0917         calculate D2E/DX2 analytically  !
 ! R16   R(12,14)                1.0938         calculate D2E/DX2 analytically  !
 ! R17   R(12,15)                1.0917         calculate D2E/DX2 analytically  !
 ! R18   R(16,17)                1.0917         calculate D2E/DX2 analytically  !
 ! R19   R(16,18)                1.0938         calculate D2E/DX2 analytically  !
 ! R20   R(16,19)                1.0917         calculate D2E/DX2 analytically  !
 ! R21   R(20,21)                1.0938         calculate D2E/DX2 analytically  !
 ! R22   R(20,22)                1.0917         calculate D2E/DX2 analytically  !
 ! R23   R(20,23)                1.0917         calculate D2E/DX2 analytically  !
 ! R24   R(24,25)                1.0917         calculate D2E/DX2 analytically  !
 ! R25   R(24,26)                1.0938         calculate D2E/DX2 analytically  !
 ! R26   R(24,27)                1.0917         calculate D2E/DX2 analytically  !
 ! A1    A(1,2,4)              116.1631         calculate D2E/DX2 analytically  !
 ! A2    A(1,2,8)              116.1589         calculate D2E/DX2 analytically  !
 ! A3    A(1,2,12)             116.1756         calculate D2E/DX2 analytically  !
 ! A4    A(4,2,8)              102.0217         calculate D2E/DX2 analytically  !
 ! A5    A(4,2,12)             102.0333         calculate D2E/DX2 analytically  !
 ! A6    A(8,2,12)             102.0161         calculate D2E/DX2 analytically  !
 ! A7    A(1,3,16)             116.1722         calculate D2E/DX2 analytically  !
 ! A8    A(1,3,20)             116.156          calculate D2E/DX2 analytically  !
 ! A9    A(1,3,24)             116.1687         calculate D2E/DX2 analytically  !
 ! A10   A(16,3,20)            102.0259         calculate D2E/DX2 analytically  !
 ! A11   A(16,3,24)            102.0281         calculate D2E/DX2 analytically  !
 ! A12   A(20,3,24)            102.018          calculate D2E/DX2 analytically  !
 ! A13   A(2,4,5)              109.2544         calculate D2E/DX2 analytically  !
 ! A14   A(2,4,6)              111.6046         calculate D2E/DX2 analytically  !
 ! A15   A(2,4,7)              109.2823         calculate D2E/DX2 analytically  !
 ! A16   A(5,4,6)              109.3187         calculate D2E/DX2 analytically  !
 ! A17   A(5,4,7)              107.9819         calculate D2E/DX2 analytically  !
 ! A18   A(6,4,7)              109.3257         calculate D2E/DX2 analytically  !
 ! A19   A(2,8,9)              109.2674         calculate D2E/DX2 analytically  !
 ! A20   A(2,8,10)             111.6025         calculate D2E/DX2 analytically  !
 ! A21   A(2,8,11)             109.2682         calculate D2E/DX2 analytically  !
 ! A22   A(9,8,10)             109.3251         calculate D2E/DX2 analytically  !
 ! A23   A(9,8,11)             107.9778         calculate D2E/DX2 analytically  !
 ! A24   A(10,8,11)            109.3264         calculate D2E/DX2 analytically  !
 ! A25   A(2,12,13)            109.2728         calculate D2E/DX2 analytically  !
 ! A26   A(2,12,14)            111.6046         calculate D2E/DX2 analytically  !
 ! A27   A(2,12,15)            109.2687         calculate D2E/DX2 analytically  !
 ! A28   A(13,12,14)           109.3214         calculate D2E/DX2 analytically  !
 ! A29   A(13,12,15)           107.9791         calculate D2E/DX2 analytically  !
 ! A30   A(14,12,15)           109.321          calculate D2E/DX2 analytically  !
 ! A31   A(3,16,17)            109.276          calculate D2E/DX2 analytically  !
 ! A32   A(3,16,18)            111.6032         calculate D2E/DX2 analytically  !
 ! A33   A(3,16,19)            109.2609         calculate D2E/DX2 analytically  !
 ! A34   A(17,16,18)           109.3269         calculate D2E/DX2 analytically  !
 ! A35   A(17,16,19)           107.9821         calculate D2E/DX2 analytically  !
 ! A36   A(18,16,19)           109.3185         calculate D2E/DX2 analytically  !
 ! A37   A(3,20,21)            111.6044         calculate D2E/DX2 analytically  !
 ! A38   A(3,20,22)            109.2643         calculate D2E/DX2 analytically  !
 ! A39   A(3,20,23)            109.2689         calculate D2E/DX2 analytically  !
 ! A40   A(21,20,22)           109.3264         calculate D2E/DX2 analytically  !
 ! A41   A(21,20,23)           109.3262         calculate D2E/DX2 analytically  !
 ! A42   A(22,20,23)           107.9772         calculate D2E/DX2 analytically  !
 ! A43   A(3,24,25)            109.2735         calculate D2E/DX2 analytically  !
 ! A44   A(3,24,26)            111.6021         calculate D2E/DX2 analytically  !
 ! A45   A(3,24,27)            109.2702         calculate D2E/DX2 analytically  !
 ! A46   A(25,24,26)           109.3214         calculate D2E/DX2 analytically  !
 ! A47   A(25,24,27)           107.9788         calculate D2E/DX2 analytically  !
 ! A48   A(26,24,27)           109.3215         calculate D2E/DX2 analytically  !
 ! A49   L(2,1,3,9,-1)         179.9665         calculate D2E/DX2 analytically  !
 ! A50   L(2,1,3,9,-2)         179.9594         calculate D2E/DX2 analytically  !
 ! D1    D(4,2,3,16)          -179.984          calculate D2E/DX2 analytically  !
 ! D2    D(4,2,3,20)            60.0027         calculate D2E/DX2 analytically  !
 ! D3    D(4,2,3,24)           -59.9875         calculate D2E/DX2 analytically  !
 ! D4    D(8,2,3,16)           -60.0083         calculate D2E/DX2 analytically  !
 ! D5    D(8,2,3,20)           179.9785         calculate D2E/DX2 analytically  !
 ! D6    D(8,2,3,24)            59.9882         calculate D2E/DX2 analytically  !
 ! D7    D(12,2,3,16)           59.9792         calculate D2E/DX2 analytically  !
 ! D8    D(12,2,3,20)          -60.034          calculate D2E/DX2 analytically  !
 ! D9    D(12,2,3,24)          179.9757         calculate D2E/DX2 analytically  !
 ! D10   D(1,2,4,5)             58.9519         calculate D2E/DX2 analytically  !
 ! D11   D(1,2,4,6)            179.965          calculate D2E/DX2 analytically  !
 ! D12   D(1,2,4,7)            -58.9945         calculate D2E/DX2 analytically  !
 ! D13   D(8,2,4,5)            -68.4079         calculate D2E/DX2 analytically  !
 ! D14   D(8,2,4,6)             52.6052         calculate D2E/DX2 analytically  !
 ! D15   D(8,2,4,7)            173.6458         calculate D2E/DX2 analytically  !
 ! D16   D(12,2,4,5)          -173.6579         calculate D2E/DX2 analytically  !
 ! D17   D(12,2,4,6)           -52.6448         calculate D2E/DX2 analytically  !
 ! D18   D(12,2,4,7)            68.3957         calculate D2E/DX2 analytically  !
 ! D19   D(1,2,8,9)             58.9626         calculate D2E/DX2 analytically  !
 ! D20   D(1,2,8,10)           179.9911         calculate D2E/DX2 analytically  !
 ! D21   D(1,2,8,11)           -58.9782         calculate D2E/DX2 analytically  !
 ! D22   D(4,2,8,9)           -173.6749         calculate D2E/DX2 analytically  !
 ! D23   D(4,2,8,10)           -52.6464         calculate D2E/DX2 analytically  !
 ! D24   D(4,2,8,11)            68.3842         calculate D2E/DX2 analytically  !
 ! D25   D(12,2,8,9)           -68.4115         calculate D2E/DX2 analytically  !
 ! D26   D(12,2,8,10)           52.617          calculate D2E/DX2 analytically  !
 ! D27   D(12,2,8,11)          173.6476         calculate D2E/DX2 analytically  !
 ! D28   D(1,2,12,13)           58.9751         calculate D2E/DX2 analytically  !
 ! D29   D(1,2,12,14)         -179.9962         calculate D2E/DX2 analytically  !
 ! D30   D(1,2,12,15)          -58.9707         calculate D2E/DX2 analytically  !
 ! D31   D(4,2,12,13)          -68.4071         calculate D2E/DX2 analytically  !
 ! D32   D(4,2,12,14)           52.6216         calculate D2E/DX2 analytically  !
 ! D33   D(4,2,12,15)          173.6471         calculate D2E/DX2 analytically  !
 ! D34   D(8,2,12,13)         -173.6615         calculate D2E/DX2 analytically  !
 ! D35   D(8,2,12,14)          -52.6328         calculate D2E/DX2 analytically  !
 ! D36   D(8,2,12,15)           68.3927         calculate D2E/DX2 analytically  !
 ! D37   D(1,3,16,17)           58.9832         calculate D2E/DX2 analytically  !
 ! D38   D(1,3,16,18)         -179.9798         calculate D2E/DX2 analytically  !
 ! D39   D(1,3,16,19)          -58.9635         calculate D2E/DX2 analytically  !
 ! D40   D(20,3,16,17)        -173.6517         calculate D2E/DX2 analytically  !
 ! D41   D(20,3,16,18)         -52.6147         calculate D2E/DX2 analytically  !
 ! D42   D(20,3,16,19)          68.4016         calculate D2E/DX2 analytically  !
 ! D43   D(24,3,16,17)         -68.4            calculate D2E/DX2 analytically  !
 ! D44   D(24,3,16,18)          52.637          calculate D2E/DX2 analytically  !
 ! D45   D(24,3,16,19)         173.6533         calculate D2E/DX2 analytically  !
 ! D46   D(1,3,20,21)         -179.996          calculate D2E/DX2 analytically  !
 ! D47   D(1,3,20,22)          -58.9668         calculate D2E/DX2 analytically  !
 ! D48   D(1,3,20,23)           58.9719         calculate D2E/DX2 analytically  !
 ! D49   D(16,3,20,21)          52.6285         calculate D2E/DX2 analytically  !
 ! D50   D(16,3,20,22)         173.6577         calculate D2E/DX2 analytically  !
 ! D51   D(16,3,20,23)         -68.4036         calculate D2E/DX2 analytically  !
 ! D52   D(24,3,20,21)         -52.6311         calculate D2E/DX2 analytically  !
 ! D53   D(24,3,20,22)          68.3981         calculate D2E/DX2 analytically  !
 ! D54   D(24,3,20,23)        -173.6632         calculate D2E/DX2 analytically  !
 ! D55   D(1,3,24,25)           58.9539         calculate D2E/DX2 analytically  !
 ! D56   D(1,3,24,26)          179.9816         calculate D2E/DX2 analytically  !
 ! D57   D(1,3,24,27)          -58.9928         calculate D2E/DX2 analytically  !
 ! D58   D(16,3,24,25)        -173.6607         calculate D2E/DX2 analytically  !
 ! D59   D(16,3,24,26)         -52.633          calculate D2E/DX2 analytically  !
 ! D60   D(16,3,24,27)          68.3927         calculate D2E/DX2 analytically  !
 ! D61   D(20,3,24,25)         -68.4028         calculate D2E/DX2 analytically  !
 ! D62   D(20,3,24,26)          52.6249         calculate D2E/DX2 analytically  !
 ! D63   D(20,3,24,27)         173.6505         calculate D2E/DX2 analytically  !
 --------------------------------------------------------------------------------
 Trust Radius=3.00D-01 FncErr=1.00D-07 GrdErr=1.00D-06 EigMax=2.50D+02 EigMin=1.00D-04
 Number of steps in this run=    149 maximum allowed number of steps=    162.
 GradGradGradGradGradGradGradGradGradGradGradGradGradGradGradGradGradGrad

 Leave Link  103 at Sat Nov  9 02:28:01 2019, MaxMem=   104857600 cpu:               0.7 elap:               0.0
 (Enter /share/home/wli/program/opt/Chem_soft/g16/l202.exe)
                          Input orientation:                          
 ---------------------------------------------------------------------
 Center     Atomic      Atomic             Coordinates (Angstroms)
 Number     Number       Type             X           Y           Z
 ---------------------------------------------------------------------
      1         78           0       -0.399158    0.525376   -0.001146
      2         15           0        1.848478    0.525299   -0.000499
      3         15           0       -2.646805    0.525118   -0.000151
      4          6           0        2.652097    2.159966   -0.057065
      5          1           0        2.333499    2.747813    0.805956
      6          1           0        3.742472    2.073069   -0.053111
      7          1           0        2.334895    2.686606   -0.959240
      8          6           0        2.651481   -0.242654    1.444048
      9          1           0        2.333305   -1.284087    1.521751
     10          1           0        3.741870   -0.202037    1.367563
     11          1           0        2.333344    0.275430    2.350823
     12          6           0        2.652719   -0.341606   -1.387062
     13          1           0        2.335275    0.111654   -2.328169
     14          1           0        3.743035   -0.295494   -1.312795
     15          1           0        2.334858   -1.386008   -1.391938
     16          6           0       -3.450404   -1.109554    0.056871
     17          1           0       -3.132331   -1.636252    0.958699
     18          1           0       -4.540780   -1.022608    0.053977
     19          1           0       -3.132669   -1.697359   -0.806503
     20          6           0       -3.450882    1.293349   -1.443915
     21          1           0       -4.541219    1.252516   -1.366766
     22          1           0       -3.132914    2.334856   -1.521464
     23          1           0       -3.133222    0.775630   -2.351066
     24          6           0       -3.449973    1.391725    1.387245
     25          1           0       -3.132015    2.436100    1.392288
     26          1           0       -4.540343    1.345730    1.313702
     27          1           0       -3.131923    0.938096    2.327970
 ---------------------------------------------------------------------
                    Distance matrix (angstroms):
                    1          2          3          4          5
     1  Pt   0.000000
     2  P    2.247636   0.000000
     3  P    2.247648   4.495283   0.000000
     4  C    3.461960   1.822400   5.545659   0.000000
     5  H    3.613593   2.413542   5.513040   1.091730   0.000000
     6  H    4.421668   2.446543   6.574330   1.093840   1.782829
     7  H    3.614402   2.413925   5.514455   1.091735   1.766257
     8  C    3.461914   1.822438   5.544999   2.833006   3.074275
     9  H    3.613824   2.413748   5.512795   3.802077   4.094946
    10  H    4.421606   2.446537   6.573779   2.965844   3.316704
    11  H    3.613972   2.413761   5.512831   3.074248   2.915354
    12  C    3.462134   1.822329   5.546143   2.833153   3.802070
    13  H    3.614322   2.413736   5.514685   3.074716   4.095373
    14  H    4.421765   2.446460   6.574686   2.965854   3.967066
    15  H    3.614212   2.413661   5.514204   3.802165   4.681796
    16  C    3.462147   5.545645   1.822409   6.924107   6.992421
    17  H    3.614440   5.513694   2.413846   6.993043   7.008471
    18  H    4.421802   6.574314   2.446534   7.866294   7.876374
    19  H    3.614032   5.513771   2.413643   6.993148   7.227625
    20  C    3.461847   5.545860   1.822409   6.318285   6.374673
    21  H    4.421575   6.574478   2.446538   7.367671   7.363314
    22  H    3.613725   5.513809   2.413679   5.970042   5.955593
    23  H    3.613842   5.514088   2.413744   6.375636   6.613723
    24  C    3.462033   5.545279   1.822348   6.317554   5.968704
    25  H    3.614006   5.513287   2.413745   5.969324   5.505706
    26  H    4.421676   6.573983   2.446445   7.367032   7.033729
    27  H    3.614295   5.513308   2.413718   6.374656   5.955035
                    6          7          8          9         10
     6  H    0.000000
     7  H    1.782911   0.000000
     8  C    2.965521   3.802181   0.000000
     9  H    3.966918   4.682064   1.091722   0.000000
    10  H    2.682242   3.967096   1.093823   1.782880   0.000000
    11  H    3.316028   4.095154   1.091725   1.766197   1.782896
    12  C    2.966081   3.074754   2.832839   3.074328   2.965416
    13  H    3.317114   2.916222   3.801992   4.095117   3.966781
    14  H    2.682703   3.316742   2.965546   3.316520   2.681987
    15  H    3.967246   4.095536   3.074137   2.915471   3.316069
    16  C    7.866298   6.993783   6.317339   5.968888   7.366838
    17  H    7.876912   7.228842   5.969100   5.505835   7.034115
    18  H    8.843469   7.877803   7.366766   7.033902   8.426217
    19  H    7.877264   7.009760   6.374757   5.955537   7.363547
    20  C    7.367947   5.970870   6.923761   6.992508   7.866147
    21  H    8.427249   7.035882   7.865820   7.876354   8.843180
    22  H    7.035305   5.507881   6.992641   7.227548   7.876862
    23  H    7.364721   5.957291   6.993037   7.008856   7.877241
    24  C    7.366826   6.375532   6.316816   6.373725   7.366347
    25  H    7.034170   5.956471   6.373949   6.612584   7.362790
    26  H    8.426281   7.364313   7.366293   7.362489   8.425765
    27  H    7.363085   6.614313   5.968521   5.954561   7.033585
                   11         12         13         14         15
    11  H    0.000000
    12  C    3.801910   0.000000
    13  H    4.681858   1.091741   0.000000
    14  H    3.966772   1.093814   1.782846   0.000000
    15  H    4.094952   1.091712   1.766216   1.782819   0.000000
    16  C    6.374334   6.318449   6.376037   7.367784   5.970321
    17  H    5.955345   6.375384   6.614635   7.363965   5.956364
    18  H    7.363015   7.367957   7.364870   8.427239   7.035420
    19  H    6.613463   5.970413   5.957046   7.035400   5.507588
    20  C    6.992386   6.319040   5.971425   7.368450   6.376241
    21  H    7.876216   7.368472   7.036478   8.427817   7.364976
    22  H    7.008267   6.376132   5.957725   7.364845   6.614993
    23  H    7.227814   5.971150   5.508706   7.036207   5.957559
    24  C    5.968363   6.924166   6.993710   7.866148   6.993135
    25  H    5.954614   6.993110   7.009716   7.876890   7.228217
    26  H    7.033401   7.866471   7.877835   8.843440   7.877262
    27  H    5.505342   6.992939   7.228616   7.876672   7.008914
                   16         17         18         19         20
    16  C    0.000000
    17  H    1.091730   0.000000
    18  H    1.093841   1.782922   0.000000
    19  H    1.091734   1.766259   1.782832   0.000000
    20  C    2.833073   3.802183   2.965673   3.074393   0.000000
    21  H    2.965804   3.967081   2.682294   3.316575   1.093825
    22  H    3.802092   4.681977   3.966947   4.095110   1.091720
    23  H    3.074522   4.095329   3.316491   2.915708   1.091726
    24  C    2.833072   3.074605   2.965884   3.802059   2.832869
    25  H    3.802154   4.095369   3.967160   4.681897   3.074346
    26  H    2.965806   3.316736   2.682523   3.967014   2.965488
    27  H    3.074442   2.915848   3.316668   4.095185   3.801981
                   21         22         23         24         25
    21  H    0.000000
    22  H    1.782895   0.000000
    23  H    1.782897   1.766189   0.000000
    24  C    2.965598   3.074185   3.801957   0.000000
    25  H    3.316490   2.915511   4.095102   1.091715   0.000000
    26  H    2.682088   3.316232   3.966803   1.093814   1.782826
    27  H    3.966869   4.095007   4.681856   1.091741   1.766215
                   26         27
    26  H    0.000000
    27  H    1.782849   0.000000
 Stoichiometry    C6H18P2Pt
 Framework group  C1[X(C6H18P2Pt)]
 Deg. of freedom    75
 Full point group                 C1      NOp   1
 RotChk:  IX=2 Diff= 2.59D-12
 Largest Abelian subgroup         C1      NOp   1
 Largest concise Abelian subgroup C1      NOp   1
                         Standard orientation:                         
 ---------------------------------------------------------------------
 Center     Atomic      Atomic             Coordinates (Angstroms)
 Number     Number       Type             X           Y           Z
 ---------------------------------------------------------------------
      1         78           0        0.000002   -0.000001    0.000556
      2         15           0        2.247637   -0.000002   -0.000185
      3         15           0       -2.247646    0.000073   -0.000377
      4          6           0        3.051286   -1.605825    0.310658
      5          1           0        2.732666   -2.321107   -0.450084
      6          1           0        4.141660   -1.520596    0.293153
      7          1           0        2.734127   -1.985285    1.283954
      8          6           0        3.050572    0.533214   -1.546877
      9          1           0        2.732376    1.549772   -1.786076
     10          1           0        4.140965    0.505037   -1.465037
     11          1           0        2.732410   -0.119984   -2.361719
     12          6           0        3.051917    1.072596    1.234137
     13          1           0        2.734516    0.771692    2.234442
     14          1           0        4.142230    1.015475    1.167929
     15          1           0        2.734038    2.104970    1.076043
     16          6           0       -3.051274    1.605830   -0.311671
     17          1           0       -2.733244    1.985401   -1.284635
     18          1           0       -4.141649    1.520388   -0.295206
     19          1           0       -2.733516    2.321125    0.449424
     20          6           0       -3.051655   -0.533540    1.545585
     21          1           0       -4.141995   -0.505253    1.463054
     22          1           0       -2.733666   -1.550195    1.784643
     23          1           0       -2.733969    0.119357    2.360856
     24          6           0       -3.050852   -1.072361   -1.235569
     25          1           0       -2.732876   -2.104734   -1.077644
     26          1           0       -4.141219   -1.015468   -1.170057
     27          1           0       -2.732845   -0.771032   -2.235554
 ---------------------------------------------------------------------
 Rotational constants (GHZ):           1.8395427           0.3844014           0.3843934
 Leave Link  202 at Sat Nov  9 02:28:01 2019, MaxMem=   104857600 cpu:               0.8 elap:               0.1
 (Enter /share/home/wli/program/opt/Chem_soft/g16/l301.exe)
 Standard basis: def2TZVP (5D, 7F)
 Ernie: Thresh=  0.10000D-02 Tol=  0.10000D-05 Strict=F.
 There are   454 symmetry adapted cartesian basis functions of A   symmetry.
 There are   408 symmetry adapted basis functions of A   symmetry.
   408 basis functions,   663 primitive gaussians,   454 cartesian basis functions
    51 alpha electrons       51 beta electrons
       nuclear repulsion energy       788.1926397462 Hartrees.
 IExCor= 1009 DFT=T Ex+Corr=PBE1PBE ExCW=0 ScaHFX=  0.250000
 ScaDFX=  0.750000  0.750000  1.000000  1.000000 ScalE2=  1.000000  1.000000
 IRadAn=      5 IRanWt=     -1 IRanGd=            0 ICorTp=0 IEmpDi=141
 NAtoms=   27 NActive=   27 NUniq=   27 SFac= 1.00D+00 NAtFMM=   60 NAOKFM=F Big=F
 Integral buffers will be    131072 words long.
 Raffenetti 2 integral format.
 Two-electron integral symmetry is turned on.
 R6Disp:  Grimme-D3(BJ) Dispersion energy=       -0.0282674159 Hartrees.
 Nuclear repulsion after empirical dispersion term =      788.1643723303 Hartrees.
 Force inversion solution in PCM.
 ------------------------------------------------------------------------------
 Polarizable Continuum Model (PCM)
 =================================
 Model                : PCM.
 Atomic radii         : SMD-Coulomb.
 Polarization charges : Total charges.
 Charge compensation  : None.
 Solution method      : Matrix inversion.
 Cavity type          : VdW (van der Waals Surface) (Alpha=1.000).
 Cavity algorithm     : GePol (No added spheres)
                        Default sphere list used, NSphG=   27.
                        Lebedev-Laikov grids with approx.  5.0 points / Ang**2.
                        Smoothing algorithm: York/Karplus (Gamma=1.0000).
                        Polarization charges: spherical gaussians, with
                                              point-specific exponents (IZeta= 3).
                        Self-potential: point-specific (ISelfS= 7).
                        Self-field    : sphere-specific E.n sum rule (ISelfD= 2).
 1st derivatives      : Analytical E(r).r(x)/FMM algorithm (CHGder, D1EAlg=3).
                        Cavity 1st derivative terms included.
 2nd derivatives      : Analytical E(r).r(xy)/FMM algorithm (CHGder, D2EAlg=3).
                        Cavity 2nd derivative terms included.
 Solvent              : Benzene, Eps=   2.270600 Eps(inf)=   2.253301
 ------------------------------------------------------------------------------
 GePol: Number of generator spheres                  =      27
 GePol: Total number of spheres                      =      27
 GePol: Number of exposed spheres                    =      27 (100.00%)
 GePol: Number of points                             =    2011
 GePol: Average weight of points                     =       0.12
 GePol: Minimum weight of points                     =   0.32D-09
 GePol: Maximum weight of points                     =    0.22001
 GePol: Number of points with low weight             =     106
 GePol: Fraction of low-weight points (<1% of avg)   =       5.27%
 GePol: Cavity surface area                          =    239.849 Ang**2
 GePol: Cavity volume                                =    198.990 Ang**3
 ------------------------------------------------------------------------------
 Atomic radii for non-electrostatic terms: SMD-CDS.
 ------------------------------------------------------------------------------
 PCM non-electrostatic energy =         0.0000980883 Hartrees.
 Nuclear repulsion after PCM non-electrostatic terms =      788.1644704185 Hartrees.
 Leave Link  301 at Sat Nov  9 02:28:01 2019, MaxMem=   104857600 cpu:               2.0 elap:               0.1
 (Enter /share/home/wli/program/opt/Chem_soft/g16/l302.exe)
 NPDir=0 NMtPBC=     1 NCelOv=     1 NCel=       1 NClECP=     1 NCelD=      1
         NCelK=      1 NCelE2=     1 NClLst=     1 CellRange=     0.0.
 One-electron integrals computed using PRISM.
 One-electron integral symmetry used in STVInt
 PrsmSu:  requested number of processors reduced to:  12 ShMem   1 Linda.
   1 Symmetry operations used in ECPInt.
 ECPInt:  NShTT=   15931 NPrTT=   46633 LenC2=   14399 LenP2D=   31609.
 LDataN:  DoStor=T MaxTD1= 8 Len=  415
 Number of processors reduced to  15 by ecpmxn.
 NBasis=   408 RedAO= T EigKep=  7.28D-04  NBF=   408
 NBsUse=   408 1.00D-06 EigRej= -1.00D+00 NBFU=   408
 Precomputing XC quadrature grid using
 IXCGrd= 4 IRadAn=           5 IRanWt=          -1 IRanGd=           0 AccXCQ= 0.00D+00.
 Defaulting to unpruned grid for atomic number  78.
 Generated NRdTot=       0 NPtTot=           0 NUsed=           0 NTot=          32
 NSgBfM=   452   452   452   452   452 MxSgAt=    27 MxSgA2=    27.
 Leave Link  302 at Sat Nov  9 02:28:01 2019, MaxMem=   104857600 cpu:              13.1 elap:               0.6
 (Enter /share/home/wli/program/opt/Chem_soft/g16/l303.exe)
 DipDrv:  MaxL=1.
 Leave Link  303 at Sat Nov  9 02:28:02 2019, MaxMem=   104857600 cpu:               1.2 elap:               0.1
 (Enter /share/home/wli/program/opt/Chem_soft/g16/l401.exe)
 ExpMin= 4.92D-02 ExpMax= 5.24D+04 ExpMxC= 1.79D+03 IAcc=3 IRadAn=         5 AccDes= 0.00D+00
 Harris functional with IExCor= 1009 and IRadAn=       5 diagonalized for initial guess.
 HarFok:  IExCor= 1009 AccDes= 0.00D+00 IRadAn=         5 IDoV= 1 UseB2=F ITyADJ=14
 ICtDFT=  3500011 ScaDFX=  1.000000  1.000000  1.000000  1.000000
 Defaulting to unpruned grid for atomic number  78.
 FoFCou: FMM=F IPFlag=           0 FMFlag=      100000 FMFlg1=           0
         NFxFlg=           0 DoJE=T BraDBF=F KetDBF=T FulRan=T
         wScrn=  0.000000 ICntrl=       500 IOpCl=  0 I1Cent=   200000004 NGrid=           0
         NMat0=    1 NMatS0=      1 NMatT0=    0 NMatD0=    1 NMtDS0=    0 NMtDT0=    0
 Petite list used in FoFCou.
 Harris En= -1041.30997597480    
 JPrj=0 DoOrth=F DoCkMO=F.
 Leave Link  401 at Sat Nov  9 02:28:03 2019, MaxMem=   104857600 cpu:              38.2 elap:               1.6
 (Enter /share/home/wli/program/opt/Chem_soft/g16/l502.exe)
 Integral symmetry usage will be decided dynamically.
 Closed shell SCF:
 Using DIIS extrapolation, IDIIS=  1040.
 NGot=   104857600 LenX=   104430153 LenY=   104223583
 Requested convergence on RMS density matrix=1.00D-08 within 128 cycles.
 Requested convergence on MAX density matrix=1.00D-06.
 Requested convergence on             energy=1.00D-06.
 No special actions if energy rises.
 Fock matrices will be formed incrementally for  20 cycles.

 Cycle   1  Pass 1  IDiag  1:
 FoFJK:  IHMeth= 1 ICntrl=       0 DoSepK=F KAlg= 0 I1Cent=           0 FoldK=F
 IRaf= 840000000 NMat=       1 IRICut=       1 DoRegI=T DoRafI=F ISym2E= 0 IDoP0=0 IntGTp=1.
 FoFCou: FMM=F IPFlag=           0 FMFlag=      100000 FMFlg1=           0
         NFxFlg=           0 DoJE=F BraDBF=F KetDBF=F FulRan=T
         wScrn=  0.000000 ICntrl=         0 IOpCl=  0 I1Cent=           0 NGrid=           0
         NMat0=    1 NMatS0=      1 NMatT0=    0 NMatD0=    1 NMtDS0=    0 NMtDT0=    0
 Symmetry not used in FoFCou.
 Defaulting to unpruned grid for atomic number  78.
 Defaulting to unpruned grid for atomic number  78.
 Defaulting to unpruned grid for atomic number  78.
 Defaulting to unpruned grid for atomic number  78.
 Defaulting to unpruned grid for atomic number  78.
 Defaulting to unpruned grid for atomic number  78.
 Defaulting to unpruned grid for atomic number  78.
 Defaulting to unpruned grid for atomic number  78.
 Defaulting to unpruned grid for atomic number  78.
 Defaulting to unpruned grid for atomic number  78.
 Defaulting to unpruned grid for atomic number  78.
 Defaulting to unpruned grid for atomic number  78.
 Defaulting to unpruned grid for atomic number  78.
 Defaulting to unpruned grid for atomic number  78.
 Defaulting to unpruned grid for atomic number  78.
 Defaulting to unpruned grid for atomic number  78.
 Defaulting to unpruned grid for atomic number  78.
 Defaulting to unpruned grid for atomic number  78.
 Defaulting to unpruned grid for atomic number  78.
 Defaulting to unpruned grid for atomic number  78.
 Defaulting to unpruned grid for atomic number  78.
 Defaulting to unpruned grid for atomic number  78.
 Defaulting to unpruned grid for atomic number  78.
 Defaulting to unpruned grid for atomic number  78.
 Inv3:  Mode=1 IEnd=    12132363.
 Iteration    1 A*A^-1 deviation from unit magnitude is 6.88D-15 for    151.
 Iteration    1 A*A^-1 deviation from orthogonality  is 3.22D-15 for   1615    353.
 Iteration    1 A^-1*A deviation from unit magnitude is 7.55D-15 for    364.
 Iteration    1 A^-1*A deviation from orthogonality  is 2.29D-15 for   1676    375.
 E= -1040.61120769706    
 DIIS: error= 4.80D-02 at cycle   1 NSaved=   1.
 NSaved= 1 IEnMin= 1 EnMin= -1040.61120769706     IErMin= 1 ErrMin= 4.80D-02
 ErrMax= 4.80D-02  0.00D+00 EMaxC= 1.00D-01 BMatC= 7.68D-01 BMatP= 7.68D-01
 IDIUse=3 WtCom= 5.20D-01 WtEn= 4.80D-01
 Coeff-Com:  0.100D+01
 Coeff-En:   0.100D+01
 Coeff:      0.100D+01
 Gap=     0.376 Goal=   None    Shift=    0.000
 GapD=    0.376 DampG=1.000 DampE=0.250 DampFc=0.2500 IDamp=-1.
 Damping current iteration by 2.50D-01
 RMSDP=3.33D-03 MaxDP=2.40D-01              OVMax= 2.38D-01

 Cycle   2  Pass 1  IDiag  1:
 RMSU=  8.31D-04    CP:  9.97D-01
 E= -1040.84772184525     Delta-E=       -0.236514148191 Rises=F Damp=T
 DIIS: error= 2.23D-02 at cycle   2 NSaved=   2.
 NSaved= 2 IEnMin= 2 EnMin= -1040.84772184525     IErMin= 2 ErrMin= 2.23D-02
 ErrMax= 2.23D-02  0.00D+00 EMaxC= 1.00D-01 BMatC= 1.64D-01 BMatP= 7.68D-01
 IDIUse=3 WtCom= 7.77D-01 WtEn= 2.23D-01
 Coeff-Com: -0.724D+00 0.172D+01
 Coeff-En:   0.000D+00 0.100D+01
 Coeff:     -0.563D+00 0.156D+01
 Gap=     0.328 Goal=   None    Shift=    0.000
 RMSDP=1.29D-03 MaxDP=1.90D-01 DE=-2.37D-01 OVMax= 2.07D-01

 Cycle   3  Pass 1  IDiag  1:
 RMSU=  1.23D-03    CP:  9.79D-01  1.40D+00
 E= -1041.20425002649     Delta-E=       -0.356528181238 Rises=F Damp=F
 DIIS: error= 1.08D-02 at cycle   3 NSaved=   3.
 NSaved= 3 IEnMin= 3 EnMin= -1041.20425002649     IErMin= 3 ErrMin= 1.08D-02
 ErrMax= 1.08D-02  0.00D+00 EMaxC= 1.00D-01 BMatC= 3.36D-02 BMatP= 1.64D-01
 IDIUse=3 WtCom= 8.92D-01 WtEn= 1.08D-01
 Coeff-Com: -0.352D+00 0.850D+00 0.503D+00
 Coeff-En:   0.000D+00 0.000D+00 0.100D+01
 Coeff:     -0.314D+00 0.758D+00 0.557D+00
 Gap=     0.207 Goal=   None    Shift=    0.000
 RMSDP=7.10D-04 MaxDP=9.17D-02 DE=-3.57D-01 OVMax= 5.14D-02

 Cycle   4  Pass 1  IDiag  1:
 RMSU=  4.93D-04    CP:  9.81D-01  1.68D+00  6.31D-01
 E= -1041.22844922730     Delta-E=       -0.024199200819 Rises=F Damp=F
 DIIS: error= 5.41D-03 at cycle   4 NSaved=   4.
 NSaved= 4 IEnMin= 4 EnMin= -1041.22844922730     IErMin= 4 ErrMin= 5.41D-03
 ErrMax= 5.41D-03  0.00D+00 EMaxC= 1.00D-01 BMatC= 6.90D-03 BMatP= 3.36D-02
 IDIUse=3 WtCom= 9.46D-01 WtEn= 5.41D-02
 Coeff-Com: -0.735D-02 0.470D-01 0.309D+00 0.651D+00
 Coeff-En:   0.000D+00 0.000D+00 0.159D+00 0.841D+00
 Coeff:     -0.695D-02 0.445D-01 0.301D+00 0.662D+00
 Gap=     0.192 Goal=   None    Shift=    0.000
 RMSDP=1.98D-04 MaxDP=2.46D-02 DE=-2.42D-02 OVMax= 1.63D-02

 Cycle   5  Pass 1  IDiag  1:
 RMSU=  8.53D-05    CP:  9.78D-01  1.60D+00  7.41D-01  8.12D-01
 E= -1041.23371817235     Delta-E=       -0.005268945043 Rises=F Damp=F
 DIIS: error= 5.79D-04 at cycle   5 NSaved=   5.
 NSaved= 5 IEnMin= 5 EnMin= -1041.23371817235     IErMin= 5 ErrMin= 5.79D-04
 ErrMax= 5.79D-04  0.00D+00 EMaxC= 1.00D-01 BMatC= 1.15D-04 BMatP= 6.90D-03
 IDIUse=3 WtCom= 9.94D-01 WtEn= 5.79D-03
 Coeff-Com:  0.140D-01-0.193D-01 0.934D-01 0.244D+00 0.667D+00
 Coeff-En:   0.000D+00 0.000D+00 0.000D+00 0.000D+00 0.100D+01
 Coeff:      0.139D-01-0.192D-01 0.929D-01 0.243D+00 0.669D+00
 Gap=     0.192 Goal=   None    Shift=    0.000
 RMSDP=2.49D-05 MaxDP=9.74D-04 DE=-5.27D-03 OVMax= 2.46D-03

 Cycle   6  Pass 1  IDiag  1:
 RMSU=  1.49D-05    CP:  9.78D-01  1.60D+00  7.46D-01  8.27D-01  7.94D-01
 E= -1041.23383983480     Delta-E=       -0.000121662456 Rises=F Damp=F
 DIIS: error= 8.88D-05 at cycle   6 NSaved=   6.
 NSaved= 6 IEnMin= 6 EnMin= -1041.23383983480     IErMin= 6 ErrMin= 8.88D-05
 ErrMax= 8.88D-05  0.00D+00 EMaxC= 1.00D-01 BMatC= 1.82D-06 BMatP= 1.15D-04
 IDIUse=1 WtCom= 1.00D+00 WtEn= 0.00D+00
 Coeff-Com:  0.339D-02-0.526D-02 0.782D-02 0.162D-01 0.108D+00 0.870D+00
 Coeff:      0.339D-02-0.526D-02 0.782D-02 0.162D-01 0.108D+00 0.870D+00
 Gap=     0.192 Goal=   None    Shift=    0.000
 RMSDP=5.80D-06 MaxDP=8.76D-04 DE=-1.22D-04 OVMax= 5.29D-04

 Cycle   7  Pass 1  IDiag  1:
 RMSU=  3.05D-06    CP:  9.78D-01  1.60D+00  7.50D-01  8.27D-01  8.09D-01
                    CP:  9.89D-01
 E= -1041.23384153764     Delta-E=       -0.000001702835 Rises=F Damp=F
 DIIS: error= 1.62D-05 at cycle   7 NSaved=   7.
 NSaved= 7 IEnMin= 7 EnMin= -1041.23384153764     IErMin= 7 ErrMin= 1.62D-05
 ErrMax= 1.62D-05  0.00D+00 EMaxC= 1.00D-01 BMatC= 9.95D-08 BMatP= 1.82D-06
 IDIUse=1 WtCom= 1.00D+00 WtEn= 0.00D+00
 Coeff-Com:  0.489D-03-0.894D-03 0.120D-04-0.960D-03 0.141D-01 0.273D+00
 Coeff-Com:  0.714D+00
 Coeff:      0.489D-03-0.894D-03 0.120D-04-0.960D-03 0.141D-01 0.273D+00
 Coeff:      0.714D+00
 Gap=     0.192 Goal=   None    Shift=    0.000
 RMSDP=1.51D-06 MaxDP=1.10D-04 DE=-1.70D-06 OVMax= 9.39D-05

 Cycle   8  Pass 1  IDiag  1:
 RMSU=  7.79D-07    CP:  9.78D-01  1.60D+00  7.49D-01  8.28D-01  8.15D-01
                    CP:  1.03D+00  8.36D-01
 E= -1041.23384164839     Delta-E=       -0.000000110747 Rises=F Damp=F
 DIIS: error= 5.87D-06 at cycle   8 NSaved=   8.
 NSaved= 8 IEnMin= 8 EnMin= -1041.23384164839     IErMin= 8 ErrMin= 5.87D-06
 ErrMax= 5.87D-06  0.00D+00 EMaxC= 1.00D-01 BMatC= 1.18D-08 BMatP= 9.95D-08
 IDIUse=1 WtCom= 1.00D+00 WtEn= 0.00D+00
 Coeff-Com: -0.154D-03 0.210D-03-0.859D-03-0.244D-02-0.405D-02 0.500D-01
 Coeff-Com:  0.302D+00 0.655D+00
 Coeff:     -0.154D-03 0.210D-03-0.859D-03-0.244D-02-0.405D-02 0.500D-01
 Coeff:      0.302D+00 0.655D+00
 Gap=     0.192 Goal=   None    Shift=    0.000
 RMSDP=3.49D-07 MaxDP=4.22D-05 DE=-1.11D-07 OVMax= 2.21D-05

 Cycle   9  Pass 1  IDiag  1:
 RMSU=  1.87D-07    CP:  9.78D-01  1.60D+00  7.49D-01  8.28D-01  8.14D-01
                    CP:  1.03D+00  9.01D-01  8.37D-01
 E= -1041.23384166079     Delta-E=       -0.000000012407 Rises=F Damp=F
 DIIS: error= 8.94D-07 at cycle   9 NSaved=   9.
 NSaved= 9 IEnMin= 9 EnMin= -1041.23384166079     IErMin= 9 ErrMin= 8.94D-07
 ErrMax= 8.94D-07  0.00D+00 EMaxC= 1.00D-01 BMatC= 9.63D-11 BMatP= 1.18D-08
 IDIUse=1 WtCom= 1.00D+00 WtEn= 0.00D+00
 Coeff-Com: -0.290D-05 0.716D-05-0.258D-04-0.548D-04-0.388D-03-0.975D-02
 Coeff-Com: -0.210D-01 0.392D-02 0.103D+01
 Coeff:     -0.290D-05 0.716D-05-0.258D-04-0.548D-04-0.388D-03-0.975D-02
 Coeff:     -0.210D-01 0.392D-02 0.103D+01
 Gap=     0.192 Goal=   None    Shift=    0.000
 RMSDP=8.85D-08 MaxDP=1.51D-05 DE=-1.24D-08 OVMax= 8.15D-06

 Cycle  10  Pass 1  IDiag  1:
 RMSU=  2.81D-08    CP:  9.78D-01  1.60D+00  7.49D-01  8.28D-01  8.15D-01
                    CP:  1.04D+00  9.16D-01  8.79D-01  1.16D+00
 E= -1041.23384166099     Delta-E=       -0.000000000195 Rises=F Damp=F
 DIIS: error= 1.66D-07 at cycle  10 NSaved=  10.
 NSaved=10 IEnMin=10 EnMin= -1041.23384166099     IErMin=10 ErrMin= 1.66D-07
 ErrMax= 1.66D-07  0.00D+00 EMaxC= 1.00D-01 BMatC= 5.48D-12 BMatP= 9.63D-11
 IDIUse=1 WtCom= 1.00D+00 WtEn= 0.00D+00
 Coeff-Com:  0.455D-05-0.552D-05 0.113D-04 0.290D-04-0.341D-04-0.320D-02
 Coeff-Com: -0.104D-01-0.998D-02 0.252D+00 0.772D+00
 Coeff:      0.455D-05-0.552D-05 0.113D-04 0.290D-04-0.341D-04-0.320D-02
 Coeff:     -0.104D-01-0.998D-02 0.252D+00 0.772D+00
 Gap=     0.192 Goal=   None    Shift=    0.000
 RMSDP=1.42D-08 MaxDP=2.64D-06 DE=-1.95D-10 OVMax= 1.36D-06

 Cycle  11  Pass 1  IDiag  1:
 RMSU=  6.15D-09    CP:  9.78D-01  1.60D+00  7.49D-01  8.28D-01  8.15D-01
                    CP:  1.04D+00  9.18D-01  8.85D-01  1.19D+00  1.10D+00
 E= -1041.23384166096     Delta-E=        0.000000000030 Rises=F Damp=F
 DIIS: error= 7.63D-08 at cycle  11 NSaved=  11.
 NSaved=11 IEnMin=10 EnMin= -1041.23384166099     IErMin=11 ErrMin= 7.63D-08
 ErrMax= 7.63D-08  0.00D+00 EMaxC= 1.00D-01 BMatC= 1.64D-12 BMatP= 5.48D-12
 IDIUse=1 WtCom= 1.00D+00 WtEn= 0.00D+00
 Coeff-Com:  0.248D-05-0.332D-05 0.939D-05 0.237D-04 0.243D-04-0.474D-03
 Coeff-Com: -0.303D-02-0.565D-02 0.570D-02 0.402D+00 0.601D+00
 Coeff:      0.248D-05-0.332D-05 0.939D-05 0.237D-04 0.243D-04-0.474D-03
 Coeff:     -0.303D-02-0.565D-02 0.570D-02 0.402D+00 0.601D+00
 Gap=     0.192 Goal=   None    Shift=    0.000
 RMSDP=4.49D-09 MaxDP=7.44D-07 DE= 2.96D-11 OVMax= 3.95D-07

 Error on total polarization charges =  0.04646
 SCF Done:  E(RPBE1PBE) =  -1041.23384166     A.U. after   11 cycles
            NFock= 11  Conv=0.45D-08     -V/T= 2.0849
 KE= 9.597871488447D+02 PE=-4.004285703681D+03 EE= 1.215100242757D+03
 SMD-CDS (non-electrostatic) energy       (kcal/mol) =       0.06
 (included in total energy above)
 Leave Link  502 at Sat Nov  9 02:29:02 2019, MaxMem=   104857600 cpu:            1388.6 elap:              59.0
 (Enter /share/home/wli/program/opt/Chem_soft/g16/l801.exe)
 DoSCS=F DFT=T ScalE2(SS,OS)=  1.000000  1.000000
 Range of M.O.s used for correlation:     1   408
 NBasis=   408 NAE=    51 NBE=    51 NFC=     0 NFV=     0
 NROrb=    408 NOA=    51 NOB=    51 NVA=   357 NVB=   357

 **** Warning!!: The largest alpha MO coefficient is  0.12459693D+02

 Leave Link  801 at Sat Nov  9 02:29:02 2019, MaxMem=   104857600 cpu:               0.4 elap:               0.0
 (Enter /share/home/wli/program/opt/Chem_soft/g16/l1101.exe)
 Using compressed storage, NAtomX=    27.
 Will process     28 centers per pass.
 PrsmSu:  requested number of processors reduced to:  12 ShMem   1 Linda.
 PrsmSu:  requested number of processors reduced to:   8 ShMem   1 Linda.
   1 Symmetry operations used in ECPInt.
 ECPInt:  NShTT=   15931 NPrTT=   46633 LenC2=   14399 LenP2D=   31609.
 LDataN:  DoStor=T MaxTD1= 9 Len=  602
 Number of processors reduced to   3 by ecpmxn.
 R6Disp: Adding Grimme-D3(BJ) dispersion energy 1st derivatives to the gradient.
 Leave Link 1101 at Sat Nov  9 02:29:05 2019, MaxMem=   104857600 cpu:              17.2 elap:               2.6
 (Enter /share/home/wli/program/opt/Chem_soft/g16/l1102.exe)
 Symmetrizing basis deriv contribution to polar:
 IMax=3 JMax=2 DiffMx= 0.00D+00
 Leave Link 1102 at Sat Nov  9 02:29:05 2019, MaxMem=   104857600 cpu:               1.1 elap:               0.1
 (Enter /share/home/wli/program/opt/Chem_soft/g16/l1110.exe)
 Forming Gx(P) for the SCF density, NAtomX=    27.
 Integral derivatives from FoFJK, PRISM(SPDF).
 Do as many integral derivatives as possible in FoFJK.
 G2DrvN: MDV=     104855520.
 G2DrvN: will do     1 centers at a time, making   28 passes.
 Estimated number of processors is:   23
 G2DrvN:  IPasSy=1 do centers    0 through    0.
 Calling FoFCou, ICntrl=  3107 FMM=F I1Cent=   0 AccDes= 0.00D+00.
 FoFJK:  IHMeth= 1 ICntrl=    3107 DoSepK=F KAlg= 0 I1Cent=           0 FoldK=F
 IRaf=         0 NMat=       1 IRICut=       1 DoRegI=T DoRafI=F ISym2E= 0 IDoP0=0 IntGTp=1.
 FoFCou: FMM=F IPFlag=           0 FMFlag=      100000 FMFlg1=           0
         NFxFlg=           0 DoJE=F BraDBF=F KetDBF=F FulRan=T
         wScrn=  0.000000 ICntrl=      3107 IOpCl=  0 I1Cent=           0 NGrid=           0
         NMat0=    1 NMatS0=      1 NMatT0=    0 NMatD0=    1 NMtDS0=    0 NMtDT0=    0
 Symmetry not used in FoFCou.
 Defaulting to unpruned grid for atomic number  78.
 Defaulting to unpruned grid for atomic number  78.
 Defaulting to unpruned grid for atomic number  78.
 Defaulting to unpruned grid for atomic number  78.
 Defaulting to unpruned grid for atomic number  78.
 Defaulting to unpruned grid for atomic number  78.
 Defaulting to unpruned grid for atomic number  78.
 Defaulting to unpruned grid for atomic number  78.
 Defaulting to unpruned grid for atomic number  78.
 Defaulting to unpruned grid for atomic number  78.
 Defaulting to unpruned grid for atomic number  78.
 Defaulting to unpruned grid for atomic number  78.
 Defaulting to unpruned grid for atomic number  78.
 Defaulting to unpruned grid for atomic number  78.
 Defaulting to unpruned grid for atomic number  78.
 Defaulting to unpruned grid for atomic number  78.
 Defaulting to unpruned grid for atomic number  78.
 Defaulting to unpruned grid for atomic number  78.
 Defaulting to unpruned grid for atomic number  78.
 Defaulting to unpruned grid for atomic number  78.
 Defaulting to unpruned grid for atomic number  78.
 Defaulting to unpruned grid for atomic number  78.
 Defaulting to unpruned grid for atomic number  78.
 Defaulting to unpruned grid for atomic number  78.
 G2DrvN:  IPasSy=1 do centers    1 through    1.
 Calling FoFCou, ICntrl=  3107 FMM=F I1Cent=   0 AccDes= 0.00D+00.
 CoulSu:  requested number of processors reduced to:  23 ShMem   1 Linda.
 G2DrvN:  IPasSy=1 do centers    2 through    2.
 Calling FoFCou, ICntrl=  3107 FMM=F I1Cent=   0 AccDes= 0.00D+00.
 CoulSu:  requested number of processors reduced to:  23 ShMem   1 Linda.
 G2DrvN:  IPasSy=1 do centers    3 through    3.
 Calling FoFCou, ICntrl=  3107 FMM=F I1Cent=   0 AccDes= 0.00D+00.
 CoulSu:  requested number of processors reduced to:  23 ShMem   1 Linda.
 G2DrvN:  IPasSy=1 do centers    4 through    4.
 Calling FoFCou, ICntrl=  3107 FMM=F I1Cent=   0 AccDes= 0.00D+00.
 CoulSu:  requested number of processors reduced to:  23 ShMem   1 Linda.
 G2DrvN:  IPasSy=1 do centers    5 through    5.
 Calling FoFCou, ICntrl=  3107 FMM=F I1Cent=   0 AccDes= 0.00D+00.
 CoulSu:  requested number of processors reduced to:  23 ShMem   1 Linda.
 G2DrvN:  IPasSy=1 do centers    6 through    6.
 Calling FoFCou, ICntrl=  3107 FMM=F I1Cent=   0 AccDes= 0.00D+00.
 CoulSu:  requested number of processors reduced to:  23 ShMem   1 Linda.
 G2DrvN:  IPasSy=1 do centers    7 through    7.
 Calling FoFCou, ICntrl=  3107 FMM=F I1Cent=   0 AccDes= 0.00D+00.
 CoulSu:  requested number of processors reduced to:  23 ShMem   1 Linda.
 G2DrvN:  IPasSy=1 do centers    8 through    8.
 Calling FoFCou, ICntrl=  3107 FMM=F I1Cent=   0 AccDes= 0.00D+00.
 CoulSu:  requested number of processors reduced to:  23 ShMem   1 Linda.
 G2DrvN:  IPasSy=1 do centers    9 through    9.
 Calling FoFCou, ICntrl=  3107 FMM=F I1Cent=   0 AccDes= 0.00D+00.
 CoulSu:  requested number of processors reduced to:  23 ShMem   1 Linda.
 G2DrvN:  IPasSy=1 do centers   10 through   10.
 Calling FoFCou, ICntrl=  3107 FMM=F I1Cent=   0 AccDes= 0.00D+00.
 CoulSu:  requested number of processors reduced to:  23 ShMem   1 Linda.
 G2DrvN:  IPasSy=1 do centers   11 through   11.
 Calling FoFCou, ICntrl=  3107 FMM=F I1Cent=   0 AccDes= 0.00D+00.
 CoulSu:  requested number of processors reduced to:  23 ShMem   1 Linda.
 G2DrvN:  IPasSy=1 do centers   12 through   12.
 Calling FoFCou, ICntrl=  3107 FMM=F I1Cent=   0 AccDes= 0.00D+00.
 CoulSu:  requested number of processors reduced to:  23 ShMem   1 Linda.
 G2DrvN:  IPasSy=1 do centers   13 through   13.
 Calling FoFCou, ICntrl=  3107 FMM=F I1Cent=   0 AccDes= 0.00D+00.
 CoulSu:  requested number of processors reduced to:  23 ShMem   1 Linda.
 G2DrvN:  IPasSy=1 do centers   14 through   14.
 Calling FoFCou, ICntrl=  3107 FMM=F I1Cent=   0 AccDes= 0.00D+00.
 CoulSu:  requested number of processors reduced to:  23 ShMem   1 Linda.
 G2DrvN:  IPasSy=1 do centers   15 through   15.
 Calling FoFCou, ICntrl=  3107 FMM=F I1Cent=   0 AccDes= 0.00D+00.
 CoulSu:  requested number of processors reduced to:  23 ShMem   1 Linda.
 G2DrvN:  IPasSy=1 do centers   16 through   16.
 Calling FoFCou, ICntrl=  3107 FMM=F I1Cent=   0 AccDes= 0.00D+00.
 CoulSu:  requested number of processors reduced to:  23 ShMem   1 Linda.
 G2DrvN:  IPasSy=1 do centers   17 through   17.
 Calling FoFCou, ICntrl=  3107 FMM=F I1Cent=   0 AccDes= 0.00D+00.
 CoulSu:  requested number of processors reduced to:  23 ShMem   1 Linda.
 G2DrvN:  IPasSy=1 do centers   18 through   18.
 Calling FoFCou, ICntrl=  3107 FMM=F I1Cent=   0 AccDes= 0.00D+00.
 CoulSu:  requested number of processors reduced to:  23 ShMem   1 Linda.
 G2DrvN:  IPasSy=1 do centers   19 through   19.
 Calling FoFCou, ICntrl=  3107 FMM=F I1Cent=   0 AccDes= 0.00D+00.
 CoulSu:  requested number of processors reduced to:  23 ShMem   1 Linda.
 G2DrvN:  IPasSy=1 do centers   20 through   20.
 Calling FoFCou, ICntrl=  3107 FMM=F I1Cent=   0 AccDes= 0.00D+00.
 CoulSu:  requested number of processors reduced to:  23 ShMem   1 Linda.
 G2DrvN:  IPasSy=1 do centers   21 through   21.
 Calling FoFCou, ICntrl=  3107 FMM=F I1Cent=   0 AccDes= 0.00D+00.
 CoulSu:  requested number of processors reduced to:  23 ShMem   1 Linda.
 G2DrvN:  IPasSy=1 do centers   22 through   22.
 Calling FoFCou, ICntrl=  3107 FMM=F I1Cent=   0 AccDes= 0.00D+00.
 CoulSu:  requested number of processors reduced to:  23 ShMem   1 Linda.
 G2DrvN:  IPasSy=1 do centers   23 through   23.
 Calling FoFCou, ICntrl=  3107 FMM=F I1Cent=   0 AccDes= 0.00D+00.
 CoulSu:  requested number of processors reduced to:  23 ShMem   1 Linda.
 G2DrvN:  IPasSy=1 do centers   24 through   24.
 Calling FoFCou, ICntrl=  3107 FMM=F I1Cent=   0 AccDes= 0.00D+00.
 CoulSu:  requested number of processors reduced to:  23 ShMem   1 Linda.
 G2DrvN:  IPasSy=1 do centers   25 through   25.
 Calling FoFCou, ICntrl=  3107 FMM=F I1Cent=   0 AccDes= 0.00D+00.
 CoulSu:  requested number of processors reduced to:  23 ShMem   1 Linda.
 G2DrvN:  IPasSy=1 do centers   26 through   26.
 Calling FoFCou, ICntrl=  3107 FMM=F I1Cent=   0 AccDes= 0.00D+00.
 CoulSu:  requested number of processors reduced to:  23 ShMem   1 Linda.
 G2DrvN:  IPasSy=1 do centers   27 through   27.
 Calling FoFCou, ICntrl=  3107 FMM=F I1Cent=   0 AccDes= 0.00D+00.
 CoulSu:  requested number of processors reduced to:  23 ShMem   1 Linda.
 NEqPCM:  Using equilibrium solvation (IEInf=0, Eps=   2.2706, EpsInf=   2.2533)
 G2PCM: DoFxE=T DoFxN=T DoGrad=T DoDP/DQ/DG/TGxP=FFFF NFrqRd=   0 IEInf=0 SqF1=F DoCFld=F IF1Alg=4.
 GePol: Maximum number of non-zero 1st derivatives   =     230
 CoulSu:  requested number of processors reduced to:  13 ShMem   1 Linda.
 CoulSu:  requested number of processors reduced to:  13 ShMem   1 Linda.
 CoulSu:  requested number of processors reduced to:  13 ShMem   1 Linda.
 CoulSu:  requested number of processors reduced to:  18 ShMem   1 Linda.
 CoulSu:  requested number of processors reduced to:  13 ShMem   1 Linda.
 CoulSu:  requested number of processors reduced to:  16 ShMem   1 Linda.
 CoulSu:  requested number of processors reduced to:  18 ShMem   1 Linda.
 CoulSu:  requested number of processors reduced to:  13 ShMem   1 Linda.
 CoulSu:  requested number of processors reduced to:  16 ShMem   1 Linda.
 CoulSu:  requested number of processors reduced to:  18 ShMem   1 Linda.
 CoulSu:  requested number of processors reduced to:  13 ShMem   1 Linda.
 CoulSu:  requested number of processors reduced to:  16 ShMem   1 Linda.
 CoulSu:  requested number of processors reduced to:  18 ShMem   1 Linda.
 CoulSu:  requested number of processors reduced to:  13 ShMem   1 Linda.
 CoulSu:  requested number of processors reduced to:  16 ShMem   1 Linda.
 CoulSu:  requested number of processors reduced to:  21 ShMem   1 Linda.
 CoulSu:  requested number of processors reduced to:  17 ShMem   1 Linda.
 CoulSu:  requested number of processors reduced to:  12 ShMem   1 Linda.
 CoulSu:  requested number of processors reduced to:  13 ShMem   1 Linda.
 CoulSu:  requested number of processors reduced to:  12 ShMem   1 Linda.
 CoulSu:  requested number of processors reduced to:  13 ShMem   1 Linda.
 End of G2Drv F.D. properties file   721 does not exist.
 End of G2Drv F.D. properties file   722 does not exist.
 End of G2Drv F.D. properties file   788 does not exist.
 Leave Link 1110 at Sat Nov  9 02:33:50 2019, MaxMem=   104857600 cpu:            6676.2 elap:             284.9
 (Enter /share/home/wli/program/opt/Chem_soft/g16/l1002.exe)
 Minotr:  Closed shell wavefunction.
          IDoAtm=111111111111111111111111111
 NEqPCM:  Using equilibrium solvation (IEInf=0, Eps=   2.2706, EpsInf=   2.2533)
          Direct CPHF calculation.
          Differentiating once with respect to electric field.
                with respect to dipole field.
          Differentiating once with respect to nuclear coordinates.
          Requested convergence is 1.0D-08 RMS, and 1.0D-07 maximum.
          Secondary convergence is 1.0D-12 RMS, and 1.0D-12 maximum.
          NewPWx=T KeepS1=F KeepF1=F KeepIn=T MapXYZ=F SortEE=F KeepMc=T.
 Defaulting to unpruned grid for atomic number  78.
         8110 words used for storage of precomputed grid.
 Two-electron integrals replicated using symmetry.
          MDV=     104857600 using IRadAn=       1.
          Solving linear equations simultaneously, MaxMat=     384.
 FoF2E skips out because all densities are zero.
 CalDSu exits because no D1Ps are significant.
 FoFJK:  IHMeth= 1 ICntrl=       0 DoSepK=F KAlg= 0 I1Cent=           0 FoldK=F
 IRaf= 820000000 NMat=       6 IRICut=       1 DoRegI=T DoRafI=F ISym2E= 2 IDoP0=0 IntGTp=1.
 Defaulting to unpruned grid for atomic number  78.
 Defaulting to unpruned grid for atomic number  78.
 Defaulting to unpruned grid for atomic number  78.
 Defaulting to unpruned grid for atomic number  78.
 Defaulting to unpruned grid for atomic number  78.
 Defaulting to unpruned grid for atomic number  78.
 Defaulting to unpruned grid for atomic number  78.
 Defaulting to unpruned grid for atomic number  78.
 Defaulting to unpruned grid for atomic number  78.
 Defaulting to unpruned grid for atomic number  78.
 Defaulting to unpruned grid for atomic number  78.
 Defaulting to unpruned grid for atomic number  78.
 Defaulting to unpruned grid for atomic number  78.
 Defaulting to unpruned grid for atomic number  78.
 Defaulting to unpruned grid for atomic number  78.
 Defaulting to unpruned grid for atomic number  78.
 Defaulting to unpruned grid for atomic number  78.
 Defaulting to unpruned grid for atomic number  78.
 Defaulting to unpruned grid for atomic number  78.
 Defaulting to unpruned grid for atomic number  78.
 Defaulting to unpruned grid for atomic number  78.
 Defaulting to unpruned grid for atomic number  78.
 Defaulting to unpruned grid for atomic number  78.
 Defaulting to unpruned grid for atomic number  78.
          There are    84 degrees of freedom in the 1st order CPHF.  IDoFFX=6 NUNeed=     3.
     84 vectors produced by pass  0 Test12= 2.17D-14 1.19D-09 XBig12= 1.91D+02 7.34D+00.
 AX will form     6 AO Fock derivatives at one time.
     84 vectors produced by pass  1 Test12= 2.17D-14 1.19D-09 XBig12= 1.55D+01 6.84D-01.
     84 vectors produced by pass  2 Test12= 2.17D-14 1.19D-09 XBig12= 4.75D-01 1.95D-01.
     82 vectors produced by pass  3 Test12= 2.17D-14 1.19D-09 XBig12= 4.37D-03 1.50D-02.
     81 vectors produced by pass  4 Test12= 2.17D-14 1.19D-09 XBig12= 3.07D-05 1.10D-03.
     80 vectors produced by pass  5 Test12= 2.17D-14 1.19D-09 XBig12= 4.77D-08 5.23D-05.
     37 vectors produced by pass  6 Test12= 2.17D-14 1.19D-09 XBig12= 7.01D-11 1.89D-06.
      8 vectors produced by pass  7 Test12= 2.17D-14 1.19D-09 XBig12= 8.86D-14 4.80D-08.
      3 vectors produced by pass  8 Test12= 2.17D-14 1.19D-09 XBig12= 2.81D-16 2.12D-09.
      2 vectors produced by pass  9 Test12= 2.17D-14 1.19D-09 XBig12= 9.80D-17 1.80D-09.
 InvSVY:  IOpt=1 It=  1 EMax= 1.24D-14
 Solved reduced A of dimension   545 with    84 vectors.
 FullF1:  Do perturbations      1 to       3.
 Isotropic polarizability for W=    0.000000      203.91 Bohr**3.
 End of Minotr F.D. properties file   721 does not exist.
 End of Minotr F.D. properties file   722 does not exist.
 End of Minotr F.D. properties file   788 does not exist.
 Leave Link 1002 at Sat Nov  9 02:45:35 2019, MaxMem=   104857600 cpu:           16905.5 elap:             705.2
 (Enter /share/home/wli/program/opt/Chem_soft/g16/l601.exe)
 Copying SCF densities to generalized density rwf, IOpCl= 0 IROHF=0.

 **********************************************************************

            Population analysis using the SCF density.

 **********************************************************************

 Orbital symmetries:
       Occupied  (A) (A) (A) (A) (A) (A) (A) (A) (A) (A) (A) (A)
                 (A) (A) (A) (A) (A) (A) (A) (A) (A) (A) (A) (A)
                 (A) (A) (A) (A) (A) (A) (A) (A) (A) (A) (A) (A)
                 (A) (A) (A) (A) (A) (A) (A) (A) (A) (A) (A) (A)
                 (A) (A) (A)
       Virtual   (A) (A) (A) (A) (A) (A) (A) (A) (A) (A) (A) (A)
                 (A) (A) (A) (A) (A) (A) (A) (A) (A) (A) (A) (A)
                 (A) (A) (A) (A) (A) (A) (A) (A) (A) (A) (A) (A)
                 (A) (A) (A) (A) (A) (A) (A) (A) (A) (A) (A) (A)
                 (A) (A) (A) (A) (A) (A) (A) (A) (A) (A) (A) (A)
                 (A) (A) (A) (A) (A) (A) (A) (A) (A) (A) (A) (A)
                 (A) (A) (A) (A) (A) (A) (A) (A) (A) (A) (A) (A)
                 (A) (A) (A) (A) (A) (A) (A) (A) (A) (A) (A) (A)
                 (A) (A) (A) (A) (A) (A) (A) (A) (A) (A) (A) (A)
                 (A) (A) (A) (A) (A) (A) (A) (A) (A) (A) (A) (A)
                 (A) (A) (A) (A) (A) (A) (A) (A) (A) (A) (A) (A)
                 (A) (A) (A) (A) (A) (A) (A) (A) (A) (A) (A) (A)
                 (A) (A) (A) (A) (A) (A) (A) (A) (A) (A) (A) (A)
                 (A) (A) (A) (A) (A) (A) (A) (A) (A) (A) (A) (A)
                 (A) (A) (A) (A) (A) (A) (A) (A) (A) (A) (A) (A)
                 (A) (A) (A) (A) (A) (A) (A) (A) (A) (A) (A) (A)
                 (A) (A) (A) (A) (A) (A) (A) (A) (A) (A) (A) (A)
                 (A) (A) (A) (A) (A) (A) (A) (A) (A) (A) (A) (A)
                 (A) (A) (A) (A) (A) (A) (A) (A) (A) (A) (A) (A)
                 (A) (A) (A) (A) (A) (A) (A) (A) (A) (A) (A) (A)
                 (A) (A) (A) (A) (A) (A) (A) (A) (A) (A) (A) (A)
                 (A) (A) (A) (A) (A) (A) (A) (A) (A) (A) (A) (A)
                 (A) (A) (A) (A) (A) (A) (A) (A) (A) (A) (A) (A)
                 (A) (A) (A) (A) (A) (A) (A) (A) (A) (A) (A) (A)
                 (A) (A) (A) (A) (A) (A) (A) (A) (A) (A) (A) (A)
                 (A) (A) (A) (A) (A) (A) (A) (A) (A) (A) (A) (A)
                 (A) (A) (A) (A) (A) (A) (A) (A) (A) (A) (A) (A)
                 (A) (A) (A) (A) (A) (A) (A) (A) (A) (A) (A) (A)
                 (A) (A) (A) (A) (A) (A) (A) (A) (A) (A) (A) (A)
                 (A) (A) (A) (A) (A) (A) (A) (A) (A)
 The electronic state is 1-A.
 Alpha  occ. eigenvalues --  -77.21191 -77.21191 -10.21031 -10.21030 -10.21030
 Alpha  occ. eigenvalues --  -10.21030 -10.21029 -10.21029  -6.60588  -6.60588
 Alpha  occ. eigenvalues --   -4.74190  -4.74190  -4.74190  -4.74190  -4.73846
 Alpha  occ. eigenvalues --   -4.73845  -3.86899  -2.12413  -2.09386  -2.09386
 Alpha  occ. eigenvalues --   -0.78896  -0.78697  -0.70850  -0.70849  -0.70842
 Alpha  occ. eigenvalues --   -0.70841  -0.56189  -0.54623  -0.45717  -0.45005
 Alpha  occ. eigenvalues --   -0.43750  -0.43749  -0.43659  -0.43658  -0.41051
 Alpha  occ. eigenvalues --   -0.41050  -0.40958  -0.40958  -0.39265  -0.39262
 Alpha  occ. eigenvalues --   -0.35878  -0.34496  -0.34495  -0.34125  -0.34124
 Alpha  occ. eigenvalues --   -0.25104  -0.22798  -0.22798  -0.19436  -0.19433
 Alpha  occ. eigenvalues --   -0.19055
 Alpha virt. eigenvalues --    0.00099   0.00100   0.04410   0.05215   0.07252
 Alpha virt. eigenvalues --    0.08785   0.08785   0.09523   0.09767   0.09767
 Alpha virt. eigenvalues --    0.10863   0.11464   0.11465   0.11716   0.11716
 Alpha virt. eigenvalues --    0.12757   0.13974   0.13977   0.14697   0.15133
 Alpha virt. eigenvalues --    0.15135   0.15305   0.15308   0.16072   0.16074
 Alpha virt. eigenvalues --    0.16886   0.17676   0.17940   0.20793   0.20974
 Alpha virt. eigenvalues --    0.20974   0.21481   0.21481   0.23225   0.23226
 Alpha virt. eigenvalues --    0.25824   0.28276   0.28278   0.28903   0.28904
 Alpha virt. eigenvalues --    0.28930   0.31384   0.31387   0.35111   0.36542
 Alpha virt. eigenvalues --    0.36543   0.36698   0.38221   0.38290   0.38384
 Alpha virt. eigenvalues --    0.38387   0.39245   0.39312   0.40532   0.40535
 Alpha virt. eigenvalues --    0.42263   0.43410   0.44064   0.44065   0.45432
 Alpha virt. eigenvalues --    0.45434   0.46171   0.46173   0.46232   0.46287
 Alpha virt. eigenvalues --    0.46289   0.47672   0.48895   0.49162   0.49163
 Alpha virt. eigenvalues --    0.49444   0.49611   0.49612   0.51832   0.51834
 Alpha virt. eigenvalues --    0.56006   0.56007   0.57718   0.59877   0.61364
 Alpha virt. eigenvalues --    0.63726   0.63727   0.66858   0.68959   0.68960
 Alpha virt. eigenvalues --    0.69461   0.69464   0.69581   0.69585   0.70630
 Alpha virt. eigenvalues --    0.73827   0.73829   0.74290   0.75858   0.76277
 Alpha virt. eigenvalues --    0.76359   0.79624   0.79628   0.82389   0.82392
 Alpha virt. eigenvalues --    0.83035   0.88415   0.88417   0.91303   0.91469
 Alpha virt. eigenvalues --    0.91471   0.91548   0.91548   0.96664   0.96667
 Alpha virt. eigenvalues --    0.99109   1.00337   1.00339   1.04095   1.04099
 Alpha virt. eigenvalues --    1.04465   1.05717   1.05720   1.06444   1.06619
 Alpha virt. eigenvalues --    1.06881   1.08050   1.09443   1.09446   1.09451
 Alpha virt. eigenvalues --    1.09455   1.23421   1.31269   1.31271   1.33724
 Alpha virt. eigenvalues --    1.33727   1.37802   1.37805   1.38129   1.44869
 Alpha virt. eigenvalues --    1.45332   1.45595   1.46444   1.46446   1.51390
 Alpha virt. eigenvalues --    1.51802   1.52444   1.52446   1.52768   1.52769
 Alpha virt. eigenvalues --    1.53952   1.53954   1.54010   1.54011   1.54692
 Alpha virt. eigenvalues --    1.55253   1.55464   1.55465   1.56383   1.56648
 Alpha virt. eigenvalues --    1.58211   1.58212   1.59147   1.59149   1.59933
 Alpha virt. eigenvalues --    1.59940   1.61129   1.61131   1.62278   1.62447
 Alpha virt. eigenvalues --    1.62450   1.63472   1.63965   1.63971   1.64035
 Alpha virt. eigenvalues --    1.64038   1.64597   1.65144   1.65333   1.66580
 Alpha virt. eigenvalues --    1.68149   1.68154   1.70767   1.70768   1.78014
 Alpha virt. eigenvalues --    1.83859   1.86479   1.86481   1.89102   1.89109
 Alpha virt. eigenvalues --    1.91373   1.91374   1.94238   1.96094   1.96098
 Alpha virt. eigenvalues --    1.97075   2.01317   2.03902   2.03910   2.04163
 Alpha virt. eigenvalues --    2.04793   2.04803   2.07251   2.07414   2.07420
 Alpha virt. eigenvalues --    2.09130   2.09139   2.09268   2.11023   2.11154
 Alpha virt. eigenvalues --    2.15912   2.16218   2.16227   2.20854   2.20859
 Alpha virt. eigenvalues --    2.22960   2.28692   2.29568   2.29574   2.31788
 Alpha virt. eigenvalues --    2.31790   2.32085   2.32461   2.32462   2.34245
 Alpha virt. eigenvalues --    2.34249   2.36903   2.37100   2.39687   2.39689
 Alpha virt. eigenvalues --    2.41534   2.41536   2.42214   2.44621   2.49349
 Alpha virt. eigenvalues --    2.49879   2.49883   2.52100   2.52101   2.55309
 Alpha virt. eigenvalues --    2.55316   2.55653   2.55657   2.59132   2.59383
 Alpha virt. eigenvalues --    2.61896   2.62048   2.62049   2.62299   2.62299
 Alpha virt. eigenvalues --    2.64449   2.64526   2.67290   2.67294   2.67839
 Alpha virt. eigenvalues --    2.67841   2.73092   2.73224   2.79290   2.79503
 Alpha virt. eigenvalues --    2.84970   2.84977   2.86321   2.86328   2.89844
 Alpha virt. eigenvalues --    2.91205   2.94718   2.94724   2.98656   2.98660
 Alpha virt. eigenvalues --    3.08159   3.10167   3.10178   3.11286   3.11290
 Alpha virt. eigenvalues --    3.14218   3.14222   3.18684   3.19369   3.19375
 Alpha virt. eigenvalues --    3.20527   3.20534   3.23351   3.23356   3.29276
 Alpha virt. eigenvalues --    3.29503   3.29506   3.30414   3.30416   3.33355
 Alpha virt. eigenvalues --    3.34004   3.36316   3.36318   3.37153   3.37155
 Alpha virt. eigenvalues --    3.37530   3.37532   3.48239   3.48248   3.48251
 Alpha virt. eigenvalues --    3.48819   3.48822   3.50024   3.54083   3.54087
 Alpha virt. eigenvalues --    3.54162   3.54867   3.55454   3.55458   3.60029
 Alpha virt. eigenvalues --    3.60032   3.60737   3.60957   3.62778   3.62782
 Alpha virt. eigenvalues --    3.63070   3.63071   3.64454   3.64457   3.72281
 Alpha virt. eigenvalues --    3.72282   3.72716   3.72718   3.80022   3.80096
 Alpha virt. eigenvalues --    4.26073   4.26206   4.27021   4.27025   4.27624
 Alpha virt. eigenvalues --    4.27974   4.27980   4.28096   4.33000   4.33003
 Alpha virt. eigenvalues --    4.34089   4.34091   4.39972   4.40132   4.45378
 Alpha virt. eigenvalues --    4.45380   4.46362   4.46364   7.75249   7.82313
 Alpha virt. eigenvalues --    7.82325   7.82964   7.82979   7.94216  15.55394
 Alpha virt. eigenvalues --   15.55715  22.34957  22.34962  22.37143  22.38055
 Alpha virt. eigenvalues --   22.38075  22.38080  27.11477  27.11504  34.30292
 Alpha virt. eigenvalues --   52.29837 285.10567
          Condensed to atoms (all electrons):
               1          2          3          4          5          6
     1  Pt  17.960969   0.357918   0.357907  -0.038923  -0.001351   0.008158
     2  P    0.357918  13.704342  -0.047856   0.337037  -0.023809  -0.031298
     3  P    0.357907  -0.047856  13.704363   0.001096  -0.000012  -0.000046
     4  C   -0.038923   0.337037   0.001096   5.043201   0.393688   0.384928
     5  H   -0.001351  -0.023809  -0.000012   0.393688   0.504932  -0.021698
     6  H    0.008158  -0.031298  -0.000046   0.384928  -0.021698   0.546675
     7  H   -0.001352  -0.023805  -0.000012   0.393697  -0.013448  -0.021695
     8  C   -0.038945   0.337140   0.001096  -0.037005  -0.000348  -0.005882
     9  H   -0.001352  -0.023808  -0.000012   0.005396  -0.000134  -0.000145
    10  H    0.008162  -0.031294  -0.000046  -0.005892  -0.000277   0.005408
    11  H   -0.001354  -0.023801  -0.000012  -0.000346   0.001457  -0.000278
    12  C   -0.038940   0.337014   0.001096  -0.036992   0.005395  -0.005885
    13  H   -0.001340  -0.023803  -0.000012  -0.000342  -0.000134  -0.000276
    14  H    0.008158  -0.031306  -0.000046  -0.005891  -0.000145   0.005407
    15  H   -0.001342  -0.023801  -0.000012   0.005393  -0.000154  -0.000145
    16  C   -0.038924   0.001096   0.337050   0.000016  -0.000002   0.000000
    17  H   -0.001350  -0.000012  -0.023809  -0.000002  -0.000000   0.000000
    18  H    0.008157  -0.000046  -0.031296   0.000000   0.000000   0.000000
    19  H   -0.001351  -0.000012  -0.023805  -0.000002   0.000000   0.000000
    20  C   -0.038922   0.001096   0.337073  -0.000074  -0.000001   0.000001
    21  H    0.008162  -0.000047  -0.031297   0.000001   0.000000  -0.000000
    22  H   -0.001352  -0.000012  -0.023808   0.000011  -0.000001  -0.000000
    23  H   -0.001353  -0.000012  -0.023800  -0.000001   0.000000   0.000000
    24  C   -0.038958   0.001096   0.337067  -0.000074   0.000011   0.000001
    25  H   -0.001345  -0.000012  -0.023797   0.000011  -0.000002  -0.000000
    26  H    0.008160  -0.000046  -0.031307   0.000001  -0.000000  -0.000000
    27  H   -0.001342  -0.000012  -0.023807  -0.000001  -0.000001   0.000000
               7          8          9         10         11         12
     1  Pt  -0.001352  -0.038945  -0.001352   0.008162  -0.001354  -0.038940
     2  P   -0.023805   0.337140  -0.023808  -0.031294  -0.023801   0.337014
     3  P   -0.000012   0.001096  -0.000012  -0.000046  -0.000012   0.001096
     4  C    0.393697  -0.037005   0.005396  -0.005892  -0.000346  -0.036992
     5  H   -0.013448  -0.000348  -0.000134  -0.000277   0.001457   0.005395
     6  H   -0.021695  -0.005882  -0.000145   0.005408  -0.000278  -0.005885
     7  H    0.504859   0.005391  -0.000154  -0.000145  -0.000134  -0.000340
     8  C    0.005391   5.043068   0.393701   0.384942   0.393670  -0.036986
     9  H   -0.000154   0.393701   0.504895  -0.021696  -0.013447  -0.000350
    10  H   -0.000145   0.384942  -0.021696   0.546670  -0.021690  -0.005887
    11  H   -0.000134   0.393670  -0.013447  -0.021690   0.504937   0.005397
    12  C   -0.000340  -0.036986  -0.000350  -0.005887   0.005397   5.043110
    13  H    0.001454   0.005394  -0.000134  -0.000145  -0.000154   0.393666
    14  H   -0.000277  -0.005894  -0.000277   0.005408  -0.000145   0.384950
    15  H   -0.000134  -0.000346   0.001455  -0.000277  -0.000134   0.393682
    16  C   -0.000002  -0.000074   0.000011   0.000001  -0.000001  -0.000074
    17  H    0.000000   0.000011  -0.000002  -0.000000  -0.000001  -0.000001
    18  H    0.000000   0.000001  -0.000000  -0.000000   0.000000   0.000001
    19  H   -0.000000  -0.000001  -0.000001   0.000000   0.000000   0.000011
    20  C    0.000011   0.000016  -0.000002   0.000000  -0.000002  -0.000074
    21  H   -0.000000   0.000000   0.000000   0.000000   0.000000   0.000001
    22  H   -0.000002  -0.000002   0.000000   0.000000  -0.000000  -0.000001
    23  H   -0.000001  -0.000002  -0.000000   0.000000   0.000000   0.000011
    24  C   -0.000001  -0.000074  -0.000001   0.000001   0.000011   0.000016
    25  H   -0.000001  -0.000001   0.000000   0.000000  -0.000001  -0.000002
    26  H    0.000000   0.000001   0.000000  -0.000000  -0.000000   0.000000
    27  H    0.000000   0.000011  -0.000001  -0.000000  -0.000002  -0.000002
              13         14         15         16         17         18
     1  Pt  -0.001340   0.008158  -0.001342  -0.038924  -0.001350   0.008157
     2  P   -0.023803  -0.031306  -0.023801   0.001096  -0.000012  -0.000046
     3  P   -0.000012  -0.000046  -0.000012   0.337050  -0.023809  -0.031296
     4  C   -0.000342  -0.005891   0.005393   0.000016  -0.000002   0.000000
     5  H   -0.000134  -0.000145  -0.000154  -0.000002  -0.000000   0.000000
     6  H   -0.000276   0.005407  -0.000145   0.000000   0.000000   0.000000
     7  H    0.001454  -0.000277  -0.000134  -0.000002   0.000000   0.000000
     8  C    0.005394  -0.005894  -0.000346  -0.000074   0.000011   0.000001
     9  H   -0.000134  -0.000277   0.001455   0.000011  -0.000002  -0.000000
    10  H   -0.000145   0.005408  -0.000277   0.000001  -0.000000  -0.000000
    11  H   -0.000154  -0.000145  -0.000134  -0.000001  -0.000001   0.000000
    12  C    0.393666   0.384950   0.393682  -0.000074  -0.000001   0.000001
    13  H    0.504941  -0.021695  -0.013444  -0.000001   0.000000   0.000000
    14  H   -0.021695   0.546706  -0.021700   0.000001   0.000000  -0.000000
    15  H   -0.013444  -0.021700   0.504920   0.000011  -0.000001  -0.000000
    16  C   -0.000001   0.000001   0.000011   5.043182   0.393698   0.384937
    17  H    0.000000   0.000000  -0.000001   0.393698   0.504857  -0.021694
    18  H    0.000000  -0.000000  -0.000000   0.384937  -0.021694   0.546657
    19  H   -0.000001  -0.000000  -0.000002   0.393684  -0.013448  -0.021697
    20  C    0.000011   0.000001  -0.000001  -0.036998   0.005391  -0.005885
    21  H   -0.000000  -0.000000   0.000000  -0.005892  -0.000146   0.005410
[...]
 Coeff-Com: -0.116D-01 0.145D+00 0.867D+00
 Coeff:     -0.116D-01 0.145D+00 0.867D+00
 Gap=     0.192 Goal=   None    Shift=    0.000
 RMSDP=1.73D-06 MaxDP=9.16D-05 DE=-9.94D-06 OVMax= 1.28D-04

 Cycle   4  Pass 1  IDiag  1:
 RMSU=  1.66D-06    CP:  1.00D+00  1.13D+00  1.02D+00
 E= -1041.23404520300     Delta-E=       -0.000000171168 Rises=F Damp=F
 DIIS: error= 2.17D-05 at cycle   4 NSaved=   4.
 NSaved= 4 IEnMin= 4 EnMin= -1041.23404520300     IErMin= 4 ErrMin= 2.17D-05
 ErrMax= 2.17D-05  0.00D+00 EMaxC= 1.00D-01 BMatC= 8.86D-08 BMatP= 2.07D-07
 IDIUse=1 WtCom= 1.00D+00 WtEn= 0.00D+00
 Coeff-Com: -0.193D-02 0.701D-02 0.388D+00 0.606D+00
 Coeff:     -0.193D-02 0.701D-02 0.388D+00 0.606D+00
 Gap=     0.192 Goal=   None    Shift=    0.000
 RMSDP=8.34D-07 MaxDP=5.01D-05 DE=-1.71D-07 OVMax= 9.35D-05

 Cycle   5  Pass 1  IDiag  1:
 RMSU=  4.95D-07    CP:  1.00D+00  1.13D+00  1.09D+00  6.63D-01
 E= -1041.23404528069     Delta-E=       -0.000000077688 Rises=F Damp=F
 DIIS: error= 6.06D-06 at cycle   5 NSaved=   5.
 NSaved= 5 IEnMin= 5 EnMin= -1041.23404528069     IErMin= 5 ErrMin= 6.06D-06
 ErrMax= 6.06D-06  0.00D+00 EMaxC= 1.00D-01 BMatC= 9.47D-09 BMatP= 8.86D-08
 IDIUse=1 WtCom= 1.00D+00 WtEn= 0.00D+00
 Coeff-Com:  0.373D-03-0.138D-01 0.868D-01 0.290D+00 0.636D+00
 Coeff:      0.373D-03-0.138D-01 0.868D-01 0.290D+00 0.636D+00
 Gap=     0.192 Goal=   None    Shift=    0.000
 RMSDP=2.76D-07 MaxDP=2.64D-05 DE=-7.77D-08 OVMax= 2.42D-05

 Cycle   6  Pass 1  IDiag  1:
 RMSU=  1.78D-07    CP:  1.00D+00  1.14D+00  1.10D+00  7.35D-01  6.75D-01
 E= -1041.23404528875     Delta-E=       -0.000000008062 Rises=F Damp=F
 DIIS: error= 2.69D-06 at cycle   6 NSaved=   6.
 NSaved= 6 IEnMin= 6 EnMin= -1041.23404528875     IErMin= 6 ErrMin= 2.69D-06
 ErrMax= 2.69D-06  0.00D+00 EMaxC= 1.00D-01 BMatC= 1.23D-09 BMatP= 9.47D-09
 IDIUse=1 WtCom= 1.00D+00 WtEn= 0.00D+00
 Coeff-Com:  0.296D-03-0.886D-02 0.411D-01 0.162D+00 0.400D+00 0.406D+00
 Coeff:      0.296D-03-0.886D-02 0.411D-01 0.162D+00 0.400D+00 0.406D+00
 Gap=     0.192 Goal=   None    Shift=    0.000
 RMSDP=1.20D-07 MaxDP=1.65D-05 DE=-8.06D-09 OVMax= 1.02D-05

 Cycle   7  Pass 1  IDiag  1:
 RMSU=  4.71D-08    CP:  1.00D+00  1.14D+00  1.10D+00  7.48D-01  7.43D-01
                    CP:  4.27D-01
 E= -1041.23404528969     Delta-E=       -0.000000000933 Rises=F Damp=F
 DIIS: error= 5.97D-07 at cycle   7 NSaved=   7.
 NSaved= 7 IEnMin= 7 EnMin= -1041.23404528969     IErMin= 7 ErrMin= 5.97D-07
 ErrMax= 5.97D-07  0.00D+00 EMaxC= 1.00D-01 BMatC= 8.04D-11 BMatP= 1.23D-09
 IDIUse=1 WtCom= 1.00D+00 WtEn= 0.00D+00
 Coeff-Com:  0.895D-04-0.219D-02 0.557D-02 0.333D-01 0.982D-01 0.218D+00
 Coeff-Com:  0.647D+00
 Coeff:      0.895D-04-0.219D-02 0.557D-02 0.333D-01 0.982D-01 0.218D+00
 Coeff:      0.647D+00
 Gap=     0.192 Goal=   None    Shift=    0.000
 RMSDP=2.89D-08 MaxDP=2.61D-06 DE=-9.33D-10 OVMax= 2.77D-06

 Cycle   8  Pass 1  IDiag  1:
 RMSU=  1.76D-08    CP:  1.00D+00  1.14D+00  1.10D+00  7.51D-01  7.49D-01
                    CP:  5.20D-01  7.54D-01
 E= -1041.23404528979     Delta-E=       -0.000000000103 Rises=F Damp=F
 DIIS: error= 1.42D-07 at cycle   8 NSaved=   8.
 NSaved= 8 IEnMin= 8 EnMin= -1041.23404528979     IErMin= 8 ErrMin= 1.42D-07
 ErrMax= 1.42D-07  0.00D+00 EMaxC= 1.00D-01 BMatC= 1.14D-11 BMatP= 8.04D-11
 IDIUse=1 WtCom= 1.00D+00 WtEn= 0.00D+00
 Coeff-Com: -0.242D-05 0.352D-03-0.419D-02-0.959D-02-0.155D-01 0.474D-01
 Coeff-Com:  0.343D+00 0.638D+00
 Coeff:     -0.242D-05 0.352D-03-0.419D-02-0.959D-02-0.155D-01 0.474D-01
 Coeff:      0.343D+00 0.638D+00
 Gap=     0.192 Goal=   None    Shift=    0.000
 RMSDP=9.36D-09 MaxDP=9.69D-07 DE=-1.03D-10 OVMax= 9.09D-07

 Error on total polarization charges =  0.04655
 SCF Done:  E(RPBE1PBE) =  -1041.23404529     A.U. after    8 cycles
            NFock=  8  Conv=0.94D-08     -V/T= 2.0849
 KE= 9.597862920486D+02 PE=-4.004548385464D+03 EE= 1.215230134138D+03
 SMD-CDS (non-electrostatic) energy       (kcal/mol) =       0.06
 (included in total energy above)
 Leave Link  502 at Sat Nov  9 16:47:27 2019, MaxMem=   104857600 cpu:            1019.1 elap:              43.6
 (Enter /share/home/wli/program/opt/Chem_soft/g16/l801.exe)
 DoSCS=F DFT=T ScalE2(SS,OS)=  1.000000  1.000000
 Range of M.O.s used for correlation:     1   408
 NBasis=   408 NAE=    51 NBE=    51 NFC=     0 NFV=     0
 NROrb=    408 NOA=    51 NOB=    51 NVA=   357 NVB=   357

 **** Warning!!: The largest alpha MO coefficient is  0.12788313D+02

 Leave Link  801 at Sat Nov  9 16:47:27 2019, MaxMem=   104857600 cpu:               0.6 elap:               0.0
 (Enter /share/home/wli/program/opt/Chem_soft/g16/l1101.exe)
 Using compressed storage, NAtomX=    27.
 Will process     28 centers per pass.
 PrsmSu:  requested number of processors reduced to:  12 ShMem   1 Linda.
 PrsmSu:  requested number of processors reduced to:   8 ShMem   1 Linda.
   1 Symmetry operations used in ECPInt.
 ECPInt:  NShTT=   15931 NPrTT=   46633 LenC2=   14371 LenP2D=   31617.
 LDataN:  DoStor=T MaxTD1= 9 Len=  602
 Number of processors reduced to   3 by ecpmxn.
 R6Disp: Adding Grimme-D3(BJ) dispersion energy 1st derivatives to the gradient.
 Leave Link 1101 at Sat Nov  9 16:47:30 2019, MaxMem=   104857600 cpu:              18.8 elap:               2.6
 (Enter /share/home/wli/program/opt/Chem_soft/g16/l1102.exe)
 Symmetrizing basis deriv contribution to polar:
 IMax=3 JMax=2 DiffMx= 0.00D+00
 Leave Link 1102 at Sat Nov  9 16:47:30 2019, MaxMem=   104857600 cpu:               1.5 elap:               0.1
 (Enter /share/home/wli/program/opt/Chem_soft/g16/l1110.exe)
 Forming Gx(P) for the SCF density, NAtomX=    27.
 Integral derivatives from FoFJK, PRISM(SPDF).
 Do as many integral derivatives as possible in FoFJK.
 G2DrvN: MDV=     104855520.
 G2DrvN: will do     1 centers at a time, making   28 passes.
 Estimated number of processors is:   23
 G2DrvN:  IPasSy=1 do centers    0 through    0.
 Calling FoFCou, ICntrl=  3107 FMM=F I1Cent=   0 AccDes= 0.00D+00.
 FoFJK:  IHMeth= 1 ICntrl=    3107 DoSepK=F KAlg= 0 I1Cent=           0 FoldK=F
 IRaf=         0 NMat=       1 IRICut=       1 DoRegI=T DoRafI=F ISym2E= 0 IDoP0=0 IntGTp=1.
 FoFCou: FMM=F IPFlag=           0 FMFlag=      100000 FMFlg1=           0
         NFxFlg=           0 DoJE=F BraDBF=F KetDBF=F FulRan=T
         wScrn=  0.000000 ICntrl=      3107 IOpCl=  0 I1Cent=           0 NGrid=           0
         NMat0=    1 NMatS0=      1 NMatT0=    0 NMatD0=    1 NMtDS0=    0 NMtDT0=    0
 Symmetry not used in FoFCou.
 Defaulting to unpruned grid for atomic number  78.
 Defaulting to unpruned grid for atomic number  78.
 Defaulting to unpruned grid for atomic number  78.
 Defaulting to unpruned grid for atomic number  78.
 Defaulting to unpruned grid for atomic number  78.
 Defaulting to unpruned grid for atomic number  78.
 Defaulting to unpruned grid for atomic number  78.
 Defaulting to unpruned grid for atomic number  78.
 Defaulting to unpruned grid for atomic number  78.
 Defaulting to unpruned grid for atomic number  78.
 Defaulting to unpruned grid for atomic number  78.
 Defaulting to unpruned grid for atomic number  78.
 Defaulting to unpruned grid for atomic number  78.
 Defaulting to unpruned grid for atomic number  78.
 Defaulting to unpruned grid for atomic number  78.
 Defaulting to unpruned grid for atomic number  78.
 Defaulting to unpruned grid for atomic number  78.
 Defaulting to unpruned grid for atomic number  78.
 Defaulting to unpruned grid for atomic number  78.
 Defaulting to unpruned grid for atomic number  78.
 Defaulting to unpruned grid for atomic number  78.
 Defaulting to unpruned grid for atomic number  78.
 Defaulting to unpruned grid for atomic number  78.
 Defaulting to unpruned grid for atomic number  78.
 G2DrvN:  IPasSy=1 do centers    1 through    1.
 Calling FoFCou, ICntrl=  3107 FMM=F I1Cent=   0 AccDes= 0.00D+00.
 CoulSu:  requested number of processors reduced to:  23 ShMem   1 Linda.
 G2DrvN:  IPasSy=1 do centers    2 through    2.
 Calling FoFCou, ICntrl=  3107 FMM=F I1Cent=   0 AccDes= 0.00D+00.
 CoulSu:  requested number of processors reduced to:  23 ShMem   1 Linda.
 G2DrvN:  IPasSy=1 do centers    3 through    3.
 Calling FoFCou, ICntrl=  3107 FMM=F I1Cent=   0 AccDes= 0.00D+00.
 CoulSu:  requested number of processors reduced to:  23 ShMem   1 Linda.
 G2DrvN:  IPasSy=1 do centers    4 through    4.
 Calling FoFCou, ICntrl=  3107 FMM=F I1Cent=   0 AccDes= 0.00D+00.
 CoulSu:  requested number of processors reduced to:  23 ShMem   1 Linda.
 G2DrvN:  IPasSy=1 do centers    5 through    5.
 Calling FoFCou, ICntrl=  3107 FMM=F I1Cent=   0 AccDes= 0.00D+00.
 CoulSu:  requested number of processors reduced to:  23 ShMem   1 Linda.
 G2DrvN:  IPasSy=1 do centers    6 through    6.
 Calling FoFCou, ICntrl=  3107 FMM=F I1Cent=   0 AccDes= 0.00D+00.
 CoulSu:  requested number of processors reduced to:  23 ShMem   1 Linda.
 G2DrvN:  IPasSy=1 do centers    7 through    7.
 Calling FoFCou, ICntrl=  3107 FMM=F I1Cent=   0 AccDes= 0.00D+00.
 CoulSu:  requested number of processors reduced to:  23 ShMem   1 Linda.
 G2DrvN:  IPasSy=1 do centers    8 through    8.
 Calling FoFCou, ICntrl=  3107 FMM=F I1Cent=   0 AccDes= 0.00D+00.
 CoulSu:  requested number of processors reduced to:  23 ShMem   1 Linda.
 G2DrvN:  IPasSy=1 do centers    9 through    9.
 Calling FoFCou, ICntrl=  3107 FMM=F I1Cent=   0 AccDes= 0.00D+00.
 CoulSu:  requested number of processors reduced to:  23 ShMem   1 Linda.
 G2DrvN:  IPasSy=1 do centers   10 through   10.
 Calling FoFCou, ICntrl=  3107 FMM=F I1Cent=   0 AccDes= 0.00D+00.
 CoulSu:  requested number of processors reduced to:  23 ShMem   1 Linda.
 G2DrvN:  IPasSy=1 do centers   11 through   11.
 Calling FoFCou, ICntrl=  3107 FMM=F I1Cent=   0 AccDes= 0.00D+00.
 CoulSu:  requested number of processors reduced to:  23 ShMem   1 Linda.
 G2DrvN:  IPasSy=1 do centers   12 through   12.
 Calling FoFCou, ICntrl=  3107 FMM=F I1Cent=   0 AccDes= 0.00D+00.
 CoulSu:  requested number of processors reduced to:  23 ShMem   1 Linda.
 G2DrvN:  IPasSy=1 do centers   13 through   13.
 Calling FoFCou, ICntrl=  3107 FMM=F I1Cent=   0 AccDes= 0.00D+00.
 CoulSu:  requested number of processors reduced to:  23 ShMem   1 Linda.
 G2DrvN:  IPasSy=1 do centers   14 through   14.
 Calling FoFCou, ICntrl=  3107 FMM=F I1Cent=   0 AccDes= 0.00D+00.
 CoulSu:  requested number of processors reduced to:  23 ShMem   1 Linda.
 G2DrvN:  IPasSy=1 do centers   15 through   15.
 Calling FoFCou, ICntrl=  3107 FMM=F I1Cent=   0 AccDes= 0.00D+00.
 CoulSu:  requested number of processors reduced to:  23 ShMem   1 Linda.
 G2DrvN:  IPasSy=1 do centers   16 through   16.
 Calling FoFCou, ICntrl=  3107 FMM=F I1Cent=   0 AccDes= 0.00D+00.
 CoulSu:  requested number of processors reduced to:  23 ShMem   1 Linda.
 G2DrvN:  IPasSy=1 do centers   17 through   17.
 Calling FoFCou, ICntrl=  3107 FMM=F I1Cent=   0 AccDes= 0.00D+00.
 CoulSu:  requested number of processors reduced to:  23 ShMem   1 Linda.
 G2DrvN:  IPasSy=1 do centers   18 through   18.
 Calling FoFCou, ICntrl=  3107 FMM=F I1Cent=   0 AccDes= 0.00D+00.
 CoulSu:  requested number of processors reduced to:  23 ShMem   1 Linda.
 G2DrvN:  IPasSy=1 do centers   19 through   19.
 Calling FoFCou, ICntrl=  3107 FMM=F I1Cent=   0 AccDes= 0.00D+00.
 CoulSu:  requested number of processors reduced to:  23 ShMem   1 Linda.
 G2DrvN:  IPasSy=1 do centers   20 through   20.
 Calling FoFCou, ICntrl=  3107 FMM=F I1Cent=   0 AccDes= 0.00D+00.
 CoulSu:  requested number of processors reduced to:  23 ShMem   1 Linda.
 G2DrvN:  IPasSy=1 do centers   21 through   21.
 Calling FoFCou, ICntrl=  3107 FMM=F I1Cent=   0 AccDes= 0.00D+00.
 CoulSu:  requested number of processors reduced to:  23 ShMem   1 Linda.
 G2DrvN:  IPasSy=1 do centers   22 through   22.
 Calling FoFCou, ICntrl=  3107 FMM=F I1Cent=   0 AccDes= 0.00D+00.
 CoulSu:  requested number of processors reduced to:  23 ShMem   1 Linda.
 G2DrvN:  IPasSy=1 do centers   23 through   23.
 Calling FoFCou, ICntrl=  3107 FMM=F I1Cent=   0 AccDes= 0.00D+00.
 CoulSu:  requested number of processors reduced to:  23 ShMem   1 Linda.
 G2DrvN:  IPasSy=1 do centers   24 through   24.
 Calling FoFCou, ICntrl=  3107 FMM=F I1Cent=   0 AccDes= 0.00D+00.
 CoulSu:  requested number of processors reduced to:  23 ShMem   1 Linda.
 G2DrvN:  IPasSy=1 do centers   25 through   25.
 Calling FoFCou, ICntrl=  3107 FMM=F I1Cent=   0 AccDes= 0.00D+00.
 CoulSu:  requested number of processors reduced to:  23 ShMem   1 Linda.
 G2DrvN:  IPasSy=1 do centers   26 through   26.
 Calling FoFCou, ICntrl=  3107 FMM=F I1Cent=   0 AccDes= 0.00D+00.
 CoulSu:  requested number of processors reduced to:  23 ShMem   1 Linda.
 G2DrvN:  IPasSy=1 do centers   27 through   27.
 Calling FoFCou, ICntrl=  3107 FMM=F I1Cent=   0 AccDes= 0.00D+00.
 CoulSu:  requested number of processors reduced to:  23 ShMem   1 Linda.
 NEqPCM:  Using equilibrium solvation (IEInf=0, Eps=   2.2706, EpsInf=   2.2533)
 G2PCM: DoFxE=T DoFxN=T DoGrad=T DoDP/DQ/DG/TGxP=FFFF NFrqRd=   0 IEInf=0 SqF1=F DoCFld=F IF1Alg=4.
 GePol: Maximum number of non-zero 1st derivatives   =     226
 CoulSu:  requested number of processors reduced to:  13 ShMem   1 Linda.
 CoulSu:  requested number of processors reduced to:  13 ShMem   1 Linda.
 CoulSu:  requested number of processors reduced to:  13 ShMem   1 Linda.
 CoulSu:  requested number of processors reduced to:  18 ShMem   1 Linda.
 CoulSu:  requested number of processors reduced to:  13 ShMem   1 Linda.
 CoulSu:  requested number of processors reduced to:  16 ShMem   1 Linda.
 CoulSu:  requested number of processors reduced to:  18 ShMem   1 Linda.
 CoulSu:  requested number of processors reduced to:  13 ShMem   1 Linda.
 CoulSu:  requested number of processors reduced to:  16 ShMem   1 Linda.
 CoulSu:  requested number of processors reduced to:  18 ShMem   1 Linda.
 CoulSu:  requested number of processors reduced to:  13 ShMem   1 Linda.
 CoulSu:  requested number of processors reduced to:  16 ShMem   1 Linda.
 CoulSu:  requested number of processors reduced to:  18 ShMem   1 Linda.
 CoulSu:  requested number of processors reduced to:  13 ShMem   1 Linda.
 CoulSu:  requested number of processors reduced to:  16 ShMem   1 Linda.
 CoulSu:  requested number of processors reduced to:  21 ShMem   1 Linda.
 CoulSu:  requested number of processors reduced to:  17 ShMem   1 Linda.
 CoulSu:  requested number of processors reduced to:  12 ShMem   1 Linda.
 CoulSu:  requested number of processors reduced to:  13 ShMem   1 Linda.
 CoulSu:  requested number of processors reduced to:  12 ShMem   1 Linda.
 CoulSu:  requested number of processors reduced to:  13 ShMem   1 Linda.
 End of G2Drv F.D. properties file   721 does not exist.
 End of G2Drv F.D. properties file   722 does not exist.
 End of G2Drv F.D. properties file   788 does not exist.
 Leave Link 1110 at Sat Nov  9 16:52:15 2019, MaxMem=   104857600 cpu:            6679.0 elap:             285.0
 (Enter /share/home/wli/program/opt/Chem_soft/g16/l1002.exe)
 Minotr:  Closed shell wavefunction.
          IDoAtm=111111111111111111111111111
 NEqPCM:  Using equilibrium solvation (IEInf=0, Eps=   2.2706, EpsInf=   2.2533)
          Direct CPHF calculation.
          Differentiating once with respect to electric field.
                with respect to dipole field.
          Differentiating once with respect to nuclear coordinates.
          Requested convergence is 1.0D-08 RMS, and 1.0D-07 maximum.
          Secondary convergence is 1.0D-12 RMS, and 1.0D-12 maximum.
          NewPWx=T KeepS1=F KeepF1=F KeepIn=T MapXYZ=F SortEE=F KeepMc=T.
 Defaulting to unpruned grid for atomic number  78.
         8110 words used for storage of precomputed grid.
 Two-electron integrals replicated using symmetry.
          MDV=     104857600 using IRadAn=       1.
          Solving linear equations simultaneously, MaxMat=     384.
 FoF2E skips out because all densities are zero.
 CalDSu exits because no D1Ps are significant.
 FoFJK:  IHMeth= 1 ICntrl=       0 DoSepK=F KAlg= 0 I1Cent=           0 FoldK=F
 IRaf= 820000000 NMat=       6 IRICut=       1 DoRegI=T DoRafI=F ISym2E= 2 IDoP0=0 IntGTp=1.
 Defaulting to unpruned grid for atomic number  78.
 Defaulting to unpruned grid for atomic number  78.
 Defaulting to unpruned grid for atomic number  78.
 Defaulting to unpruned grid for atomic number  78.
 Defaulting to unpruned grid for atomic number  78.
 Defaulting to unpruned grid for atomic number  78.
 Defaulting to unpruned grid for atomic number  78.
 Defaulting to unpruned grid for atomic number  78.
 Defaulting to unpruned grid for atomic number  78.
 Defaulting to unpruned grid for atomic number  78.
 Defaulting to unpruned grid for atomic number  78.
 Defaulting to unpruned grid for atomic number  78.
 Defaulting to unpruned grid for atomic number  78.
 Defaulting to unpruned grid for atomic number  78.
 Defaulting to unpruned grid for atomic number  78.
 Defaulting to unpruned grid for atomic number  78.
 Defaulting to unpruned grid for atomic number  78.
 Defaulting to unpruned grid for atomic number  78.
 Defaulting to unpruned grid for atomic number  78.
 Defaulting to unpruned grid for atomic number  78.
 Defaulting to unpruned grid for atomic number  78.
 Defaulting to unpruned grid for atomic number  78.
 Defaulting to unpruned grid for atomic number  78.
 Defaulting to unpruned grid for atomic number  78.
          There are    84 degrees of freedom in the 1st order CPHF.  IDoFFX=6 NUNeed=     3.
     84 vectors produced by pass  0 Test12= 2.17D-14 1.19D-09 XBig12= 1.91D+02 7.12D+00.
 AX will form     6 AO Fock derivatives at one time.
     83 vectors produced by pass  1 Test12= 2.17D-14 1.19D-09 XBig12= 1.54D+01 7.25D-01.
     81 vectors produced by pass  2 Test12= 2.17D-14 1.19D-09 XBig12= 4.54D-01 1.52D-01.
     81 vectors produced by pass  3 Test12= 2.17D-14 1.19D-09 XBig12= 3.34D-03 1.09D-02.
     81 vectors produced by pass  4 Test12= 2.17D-14 1.19D-09 XBig12= 2.58D-05 8.21D-04.
     79 vectors produced by pass  5 Test12= 2.17D-14 1.19D-09 XBig12= 3.73D-08 5.41D-05.
     37 vectors produced by pass  6 Test12= 2.17D-14 1.19D-09 XBig12= 4.66D-11 1.95D-06.
      8 vectors produced by pass  7 Test12= 2.17D-14 1.19D-09 XBig12= 6.10D-14 4.63D-08.
      4 vectors produced by pass  8 Test12= 2.17D-14 1.19D-09 XBig12= 2.25D-16 1.93D-09.
      2 vectors produced by pass  9 Test12= 2.17D-14 1.19D-09 XBig12= 9.87D-17 1.94D-09.
 InvSVY:  IOpt=1 It=  1 EMax= 2.84D-14
 Solved reduced A of dimension   540 with    84 vectors.
 FullF1:  Do perturbations      1 to       3.
 Isotropic polarizability for W=    0.000000      204.00 Bohr**3.
 End of Minotr F.D. properties file   721 does not exist.
 End of Minotr F.D. properties file   722 does not exist.
 End of Minotr F.D. properties file   788 does not exist.
 Leave Link 1002 at Sat Nov  9 17:03:56 2019, MaxMem=   104857600 cpu:           16808.4 elap:             701.1
 (Enter /share/home/wli/program/opt/Chem_soft/g16/l701.exe)
 ... and contract with generalized density number  0.
 Compute integral second derivatives.
 R6Disp: Adding Grimme-D3(BJ) dispersion energy 2nd derivatives to the Hessian.
 PrsmSu:  requested number of processors reduced to:  13 ShMem   1 Linda.
 PrsmSu:  requested number of processors reduced to:  13 ShMem   1 Linda.
   1 Symmetry operations used in ECPInt.
 ECPInt:  NShTT=   15931 NPrTT=   46633 LenC2=   14371 LenP2D=   31617.
 LDataN:  DoStor=T MaxTD1=10 Len=  848
 Number of processors reduced to  17 by ecpmxn.
 D2PCM: PCM CHGder 2nd derivatives, FixD1E=F FixD2E=F DoIter=F DoCFld=F I1PDM=0
 GePol: Maximum number of non-zero 2nd derivatives   =     226
 CoulSu:  requested number of processors reduced to:  12 ShMem   1 Linda.
 CoulSu:  requested number of processors reduced to:  12 ShMem   1 Linda.
 CoulSu:  requested number of processors reduced to:  11 ShMem   1 Linda.
 CoulSu:  requested number of processors reduced to:  12 ShMem   1 Linda.
