 Entering Gaussian System, Link 0=g16
 Input=Pt_tsb.gjf
 Output=Pt_tsb.log
 Initial command:
 /share/home/wli/program/opt/Chem_soft/g16/l1.exe "/scratch/wli/Gau-11080.inp" -scrdir="/scratch/wli/"
 Entering Link 1 = /share/home/wli/program/opt/Chem_soft/g16/l1.exe PID=     11081.
  
 Copyright (c) 1988,1990,1992,1993,1995,1998,2003,2009,2016,
            Gaussian, Inc.  All Rights Reserved.
  
 This is part of the Gaussian(R) 16 program.  It is based on
 the Gaussian(R) 09 system (copyright 2009, Gaussian, Inc.),
 the Gaussian(R) 03 system (copyright 2003, Gaussian, Inc.),
 the Gaussian(R) 98 system (copyright 1998, Gaussian, Inc.),
 the Gaussian(R) 94 system (copyright 1995, Gaussian, Inc.),
 the Gaussian 92(TM) system (copyright 1992, Gaussian, Inc.),
 the Gaussian 90(TM) system (copyright 1990, Gaussian, Inc.),
 the Gaussian 88(TM) system (copyright 1988, Gaussian, Inc.),
 the Gaussian 86(TM) system (copyright 1986, Carnegie Mellon
 University), and the Gaussian 82(TM) system (copyright 1983,
 Carnegie Mellon University). Gaussian is a federally registered
 trademark of Gaussian, Inc.
  
 This software contains proprietary and confidential information,
 including trade secrets, belonging to Gaussian, Inc.
  
 This software is provided under written license and may be
 used, copied, transmitted, or stored only in accord with that
 written license.
  
 The following legend is applicable only to US Government
 contracts under FAR:
  
                    RESTRICTED RIGHTS LEGEND
  
 Use, reproduction and disclosure by the US Government is
 subject to restrictions as set forth in subparagraphs (a)
 and (c) of the Commercial Computer Software - Restricted
 Rights clause in FAR 52.227-19.
  
 Gaussian, Inc.
 340 Quinnipiac St., Bldg. 40, Wallingford CT 06492
  
  
 ---------------------------------------------------------------
 Warning -- This program may not be used in any manner that
 competes with the business of Gaussian, Inc. or will provide
 assistance to any competitor of Gaussian, Inc.  The licensee
 of this program is prohibited from giving any competitor of
 Gaussian, Inc. access to this program.  By using this program,
 the user acknowledges that Gaussian, Inc. is engaged in the
 business of creating and licensing software in the field of
 computational chemistry and represents and warrants to the
 licensee that it is not a competitor of Gaussian, Inc. and that
 it will not use this program in any manner prohibited above.
 ---------------------------------------------------------------
  

 Cite this work as:
 Gaussian 16, Revision A.03,
 M. J. Frisch, G. W. Trucks, H. B. Schlegel, G. E. Scuseria, 
 M. A. Robb, J. R. Cheeseman, G. Scalmani, V. Barone, 
 G. A. Petersson, H. Nakatsuji, X. Li, M. Caricato, A. V. Marenich, 
 J. Bloino, B. G. Janesko, R. Gomperts, B. Mennucci, H. P. Hratchian, 
 J. V. Ortiz, A. F. Izmaylov, J. L. Sonnenberg, D. Williams-Young, 
 F. Ding, F. Lipparini, F. Egidi, J. Goings, B. Peng, A. Petrone, 
 T. Henderson, D. Ranasinghe, V. G. Zakrzewski, J. Gao, N. Rega, 
 G. Zheng, W. Liang, M. Hada, M. Ehara, K. Toyota, R. Fukuda, 
 J. Hasegawa, M. Ishida, T. Nakajima, Y. Honda, O. Kitao, H. Nakai, 
 T. Vreven, K. Throssell, J. A. Montgomery, Jr., J. E. Peralta, 
 F. Ogliaro, M. J. Bearpark, J. J. Heyd, E. N. Brothers, K. N. Kudin, 
 V. N. Staroverov, T. A. Keith, R. Kobayashi, J. Normand, 
 K. Raghavachari, A. P. Rendell, J. C. Burant, S. S. Iyengar, 
 J. Tomasi, M. Cossi, J. M. Millam, M. Klene, C. Adamo, R. Cammi, 
 J. W. Ochterski, R. L. Martin, K. Morokuma, O. Farkas, 
 J. B. Foresman, and D. J. Fox, Gaussian, Inc., Wallingford CT, 2016.
 
 ******************************************
 Gaussian 16:  ES64L-G16RevA.03 25-Dec-2016
                 9-Nov-2019 
 ******************************************
 %chk=Pt_tsb.chk
 %nprocshared=24
 Will use up to   24 processors via shared memory.
 ----------------------------------------------------------------------
 #p opt=(ts,calcfc,noeigen) pbe1pbe/def2tzvp em=gd3bj geom=allcheck scr
 f=(smd,solvent=benzene)
 ----------------------------------------------------------------------
 1/5=1,10=4,11=1,18=20,26=3,29=7,38=1/1,3;
 2/9=110,12=2,40=1/2;
 3/5=44,7=101,11=2,14=-4,25=1,30=1,70=32201,71=2,72=12,74=-13,124=41,140=1/1,2,3;
 4//1;
 5/5=2,38=5,53=12/2;
 8/6=4,10=90,11=11/1;
 11/6=1,8=1,9=11,15=111,16=1/1,2,10;
 10/6=1,13=1/2;
 6/7=2,8=2,9=2,10=2,28=1/1;
 7/10=1,18=20,25=1/1,2,3,16;
 1/5=1,10=4,11=1,18=20,26=3/3(2);
 2/9=110/2;
 99//99;
 2/9=110/2;
 3/5=44,7=101,11=2,14=-2,25=1,30=1,70=32205,71=1,72=12,74=-13,124=41/1,2,3;
 4/5=5,16=3,69=1/1;
 5/5=2,38=5,53=12/2;
 7//1,2,3,16;
 1/5=1,11=1,18=20,26=3/3(-5);
 2/9=110/2;
 6/7=2,8=2,9=2,10=2,19=2,28=1/1;
 99/9=1/99;
 Leave Link    1 at Sat Nov  9 01:39:29 2019, MaxMem=           0 cpu:               9.7 elap:               0.4
 (Enter /share/home/wli/program/opt/Chem_soft/g16/l101.exe)
 Structure from the checkpoint file:  "Pt_tsb.chk"
 -------------------
 Title Card Required
 -------------------
 Charge =  0 Multiplicity = 1
 Redundant internal coordinates found in file.  (old form).
 Pt,0,0.0001061992,-0.382977714,-0.0017045352
 P,0,2.1640095638,0.2298278539,-0.0002317695
 P,0,-2.1638144213,0.2304959437,0.0016249445
 C,0,2.6837365733,1.1748992475,1.4721323982
 H,0,2.5529732658,0.5589469338,2.3642975624
 H,0,3.7304097665,1.4865180199,1.4012036379
 H,0,2.0483551241,2.0563027846,1.575950423
 C,0,3.4969779596,-1.0220191642,-0.0998438163
 H,0,3.3788346084,-1.6016026814,-1.0184970204
 H,0,4.4934569072,-0.5696275713,-0.0892863335
 H,0,3.4088071248,-1.7098891706,0.7445071711
 C,0,2.6424632745,1.3522775325,-1.3577430999
 H,0,2.0119631166,2.2426858538,-1.326257744
 H,0,3.6938999002,1.6471686982,-1.285164752
 H,0,2.475153279,0.8554164353,-2.3157031952
 C,0,-2.6222693768,1.4088546003,1.3178083381
 H,0,-1.9929967684,2.2971567251,1.2392336194
 H,0,-3.6749547251,1.7001905405,1.2489650199
 H,0,-2.43992604,0.9525288022,2.2930179663
 C,0,-3.4922516393,-1.0177031504,0.1766511525
 H,0,-4.4895813245,-0.5672790093,0.1637163425
 H,0,-3.4169351518,-1.7405763491,-0.6391951821
 H,0,-3.3577050845,-1.5576829847,1.1169364062
 C,0,-2.7094913797,1.1111875445,-1.5010681963
 H,0,-2.5968160016,0.4554193298,-2.3669965845
 H,0,-3.7539849831,1.4286660233,-1.4246018761
 H,0,-2.0743593508,1.9851382959,-1.6565159851
 H,0,-0.3895791963,-2.4984055571,0.0252763818
 H,0,0.3867823885,-2.4986500535,0.0135496043
 Recover connectivity data from disk.
 ITRead=  0  0  0  0  0  0  0  0  0  0  0  0  0  0  0  0  0  0  0  0
 ITRead=  0  0  0  0  0  0  0  0  0
 MicOpt= -1 -1 -1 -1 -1 -1 -1 -1 -1 -1 -1 -1 -1 -1 -1 -1 -1 -1 -1 -1
 MicOpt= -1 -1 -1 -1 -1 -1 -1 -1 -1
 NAtoms=     29 NQM=       29 NQMF=       0 NMMI=      0 NMMIF=      0
                NMic=       0 NMicF=      0.
                    Isotopes and Nuclear Properties:
 (Nuclear quadrupole moments (NQMom) in fm**2, nuclear magnetic moments (NMagM)
  in nuclear magnetons)

  Atom         1           2           3           4           5           6           7           8           9          10
 IAtWgt=         195          31          31          12           1           1           1          12           1           1
 AtmWgt= 194.9648000  30.9737634  30.9737634  12.0000000   1.0078250   1.0078250   1.0078250  12.0000000   1.0078250   1.0078250
 NucSpn=           1           1           1           0           1           1           1           0           1           1
 AtZEff=1176.2400000  12.9400000  12.9400000   3.6000000   1.0000000   1.0000000   1.0000000   3.6000000   1.0000000   1.0000000
 NQMom=    0.0000000   0.0000000   0.0000000   0.0000000   0.0000000   0.0000000   0.0000000   0.0000000   0.0000000   0.0000000
 NMagM=    0.6095000   1.1316000   1.1316000   0.0000000   2.7928460   2.7928460   2.7928460   0.0000000   2.7928460   2.7928460
 AtZNuc=  78.0000000  15.0000000  15.0000000   6.0000000   1.0000000   1.0000000   1.0000000   6.0000000   1.0000000   1.0000000

  Atom        11          12          13          14          15          16          17          18          19          20
 IAtWgt=           1          12           1           1           1          12           1           1           1          12
 AtmWgt=   1.0078250  12.0000000   1.0078250   1.0078250   1.0078250  12.0000000   1.0078250   1.0078250   1.0078250  12.0000000
 NucSpn=           1           0           1           1           1           0           1           1           1           0
 AtZEff=   1.0000000   3.6000000   1.0000000   1.0000000   1.0000000   3.6000000   1.0000000   1.0000000   1.0000000   3.6000000
 NQMom=    0.0000000   0.0000000   0.0000000   0.0000000   0.0000000   0.0000000   0.0000000   0.0000000   0.0000000   0.0000000
 NMagM=    2.7928460   0.0000000   2.7928460   2.7928460   2.7928460   0.0000000   2.7928460   2.7928460   2.7928460   0.0000000
 AtZNuc=   1.0000000   6.0000000   1.0000000   1.0000000   1.0000000   6.0000000   1.0000000   1.0000000   1.0000000   6.0000000

  Atom        21          22          23          24          25          26          27          28          29
 IAtWgt=           1           1           1          12           1           1           1           1           1
 AtmWgt=   1.0078250   1.0078250   1.0078250  12.0000000   1.0078250   1.0078250   1.0078250   1.0078250   1.0078250
 NucSpn=           1           1           1           0           1           1           1           1           1
 AtZEff=   1.0000000   1.0000000   1.0000000   3.6000000   1.0000000   1.0000000   1.0000000   1.0000000   1.0000000
 NQMom=    0.0000000   0.0000000   0.0000000   0.0000000   0.0000000   0.0000000   0.0000000   0.0000000   0.0000000
 NMagM=    2.7928460   2.7928460   2.7928460   0.0000000   2.7928460   2.7928460   2.7928460   2.7928460   2.7928460
 AtZNuc=   1.0000000   1.0000000   1.0000000   6.0000000   1.0000000   1.0000000   1.0000000   1.0000000   1.0000000
 Leave Link  101 at Sat Nov  9 01:39:29 2019, MaxMem=   104857600 cpu:               3.1 elap:               0.2
 (Enter /share/home/wli/program/opt/Chem_soft/g16/l103.exe)

 GradGradGradGradGradGradGradGradGradGradGradGradGradGradGradGradGradGrad
 Berny optimization.
 Initialization pass.
                           ----------------------------
                           !    Initial Parameters    !
                           ! (Angstroms and Degrees)  !
 --------------------------                            --------------------------
 ! Name  Definition              Value          Derivative Info.                !
 --------------------------------------------------------------------------------
 ! R1    R(1,2)                  2.249          calculate D2E/DX2 analytically  !
 ! R2    R(1,3)                  2.2492         calculate D2E/DX2 analytically  !
 ! R3    R(1,28)                 2.1512         calculate D2E/DX2 analytically  !
 ! R4    R(1,29)                 2.1508         calculate D2E/DX2 analytically  !
 ! R5    R(2,4)                  1.8251         calculate D2E/DX2 analytically  !
 ! R6    R(2,8)                  1.8314         calculate D2E/DX2 analytically  !
 ! R7    R(2,12)                 1.8253         calculate D2E/DX2 analytically  !
 ! R8    R(3,16)                 1.8251         calculate D2E/DX2 analytically  !
 ! R9    R(3,20)                 1.8312         calculate D2E/DX2 analytically  !
 ! R10   R(3,24)                 1.8252         calculate D2E/DX2 analytically  !
 ! R11   R(4,5)                  1.092          calculate D2E/DX2 analytically  !
 ! R12   R(4,6)                  1.0944         calculate D2E/DX2 analytically  !
 ! R13   R(4,7)                  1.0915         calculate D2E/DX2 analytically  !
 ! R14   R(8,9)                  1.0926         calculate D2E/DX2 analytically  !
 ! R15   R(8,10)                 1.0944         calculate D2E/DX2 analytically  !
 ! R16   R(8,11)                 1.0926         calculate D2E/DX2 analytically  !
 ! R17   R(12,13)                1.0915         calculate D2E/DX2 analytically  !
 ! R18   R(12,14)                1.0944         calculate D2E/DX2 analytically  !
 ! R19   R(12,15)                1.092          calculate D2E/DX2 analytically  !
 ! R20   R(16,17)                1.0914         calculate D2E/DX2 analytically  !
 ! R21   R(16,18)                1.0944         calculate D2E/DX2 analytically  !
 ! R22   R(16,19)                1.092          calculate D2E/DX2 analytically  !
 ! R23   R(20,21)                1.0944         calculate D2E/DX2 analytically  !
 ! R24   R(20,22)                1.0926         calculate D2E/DX2 analytically  !
 ! R25   R(20,23)                1.0926         calculate D2E/DX2 analytically  !
 ! R26   R(24,25)                1.092          calculate D2E/DX2 analytically  !
 ! R27   R(24,26)                1.0944         calculate D2E/DX2 analytically  !
 ! R28   R(24,27)                1.0915         calculate D2E/DX2 analytically  !
 ! R29   R(28,29)                0.7765         calculate D2E/DX2 analytically  !
 ! A1    A(2,1,3)              148.3599         calculate D2E/DX2 analytically  !
 ! A2    A(2,1,28)             116.2466         calculate D2E/DX2 analytically  !
 ! A3    A(2,1,29)              95.4539         calculate D2E/DX2 analytically  !
 ! A4    A(3,1,28)              95.3891         calculate D2E/DX2 analytically  !
 ! A5    A(3,1,29)             116.1842         calculate D2E/DX2 analytically  !
 ! A6    A(1,2,4)              114.5574         calculate D2E/DX2 analytically  !
 ! A7    A(1,2,8)              120.9324         calculate D2E/DX2 analytically  !
 ! A8    A(1,2,12)             114.7892         calculate D2E/DX2 analytically  !
 ! A9    A(4,2,8)              100.986          calculate D2E/DX2 analytically  !
 ! A10   A(4,2,12)             101.9412         calculate D2E/DX2 analytically  !
 ! A11   A(8,2,12)             100.9009         calculate D2E/DX2 analytically  !
 ! A12   A(1,3,16)             114.761          calculate D2E/DX2 analytically  !
 ! A13   A(1,3,20)             120.8078         calculate D2E/DX2 analytically  !
 ! A14   A(1,3,24)             114.7093         calculate D2E/DX2 analytically  !
 ! A15   A(16,3,20)            100.8902         calculate D2E/DX2 analytically  !
 ! A16   A(16,3,24)            101.9521         calculate D2E/DX2 analytically  !
 ! A17   A(20,3,24)            100.9935         calculate D2E/DX2 analytically  !
 ! A18   A(2,4,5)              109.4457         calculate D2E/DX2 analytically  !
 ! A19   A(2,4,6)              111.5619         calculate D2E/DX2 analytically  !
 ! A20   A(2,4,7)              109.2145         calculate D2E/DX2 analytically  !
 ! A21   A(5,4,6)              109.153          calculate D2E/DX2 analytically  !
 ! A22   A(5,4,7)              107.9432         calculate D2E/DX2 analytically  !
 ! A23   A(6,4,7)              109.4493         calculate D2E/DX2 analytically  !
 ! A24   A(2,8,9)              109.2464         calculate D2E/DX2 analytically  !
 ! A25   A(2,8,10)             112.3115         calculate D2E/DX2 analytically  !
 ! A26   A(2,8,11)             109.2426         calculate D2E/DX2 analytically  !
 ! A27   A(9,8,10)             109.0163         calculate D2E/DX2 analytically  !
 ! A28   A(9,8,11)             107.8818         calculate D2E/DX2 analytically  !
 ! A29   A(10,8,11)            109.0414         calculate D2E/DX2 analytically  !
 ! A30   A(2,12,13)            109.1951         calculate D2E/DX2 analytically  !
 ! A31   A(2,12,14)            111.6051         calculate D2E/DX2 analytically  !
 ! A32   A(2,12,15)            109.4183         calculate D2E/DX2 analytically  !
 ! A33   A(13,12,14)           109.4657         calculate D2E/DX2 analytically  !
 ! A34   A(13,12,15)           107.9368         calculate D2E/DX2 analytically  !
 ! A35   A(14,12,15)           109.1451         calculate D2E/DX2 analytically  !
 ! A36   A(3,16,17)            109.1916         calculate D2E/DX2 analytically  !
 ! A37   A(3,16,18)            111.5996         calculate D2E/DX2 analytically  !
 ! A38   A(3,16,19)            109.4068         calculate D2E/DX2 analytically  !
 ! A39   A(17,16,18)           109.4741         calculate D2E/DX2 analytically  !
 ! A40   A(17,16,19)           107.9458         calculate D2E/DX2 analytically  !
 ! A41   A(18,16,19)           109.1488         calculate D2E/DX2 analytically  !
 ! A42   A(3,20,21)            112.2982         calculate D2E/DX2 analytically  !
 ! A43   A(3,20,22)            109.2435         calculate D2E/DX2 analytically  !
 ! A44   A(3,20,23)            109.2556         calculate D2E/DX2 analytically  !
 ! A45   A(21,20,22)           109.0435         calculate D2E/DX2 analytically  !
 ! A46   A(21,20,23)           109.0135         calculate D2E/DX2 analytically  !
 ! A47   A(22,20,23)           107.8863         calculate D2E/DX2 analytically  !
 ! A48   A(3,24,25)            109.4042         calculate D2E/DX2 analytically  !
 ! A49   A(3,24,26)            111.5797         calculate D2E/DX2 analytically  !
 ! A50   A(3,24,27)            109.2463         calculate D2E/DX2 analytically  !
 ! A51   A(25,24,26)           109.153          calculate D2E/DX2 analytically  !
 ! A52   A(25,24,27)           107.9295         calculate D2E/DX2 analytically  !
 ! A53   A(26,24,27)           109.4539         calculate D2E/DX2 analytically  !
 ! D1    D(3,1,2,4)             62.2318         calculate D2E/DX2 analytically  !
 ! D2    D(3,1,2,8)           -176.5644         calculate D2E/DX2 analytically  !
 ! D3    D(3,1,2,12)           -55.2589         calculate D2E/DX2 analytically  !
 ! D4    D(28,1,2,4)          -116.7259         calculate D2E/DX2 analytically  !
 ! D5    D(28,1,2,8)             4.4779         calculate D2E/DX2 analytically  !
 ! D6    D(28,1,2,12)          125.7835         calculate D2E/DX2 analytically  !
 ! D7    D(29,1,2,4)          -117.1338         calculate D2E/DX2 analytically  !
 ! D8    D(29,1,2,8)             4.07           calculate D2E/DX2 analytically  !
 ! D9    D(29,1,2,12)          125.3755         calculate D2E/DX2 analytically  !
 ! D10   D(2,1,3,16)           -52.3029         calculate D2E/DX2 analytically  !
 ! D11   D(2,1,3,20)          -173.4525         calculate D2E/DX2 analytically  !
 ! D12   D(2,1,3,24)            65.2962         calculate D2E/DX2 analytically  !
 ! D13   D(28,1,3,16)          126.7581         calculate D2E/DX2 analytically  !
 ! D14   D(28,1,3,20)            5.6085         calculate D2E/DX2 analytically  !
 ! D15   D(28,1,3,24)         -115.6428         calculate D2E/DX2 analytically  !
 ! D16   D(29,1,3,16)          126.9934         calculate D2E/DX2 analytically  !
 ! D17   D(29,1,3,20)            5.8438         calculate D2E/DX2 analytically  !
 ! D18   D(29,1,3,24)         -115.4075         calculate D2E/DX2 analytically  !
 ! D19   D(1,2,4,5)             61.6902         calculate D2E/DX2 analytically  !
 ! D20   D(1,2,4,6)           -177.4037         calculate D2E/DX2 analytically  !
 ! D21   D(1,2,4,7)            -56.2812         calculate D2E/DX2 analytically  !
 ! D22   D(8,2,4,5)            -69.9462         calculate D2E/DX2 analytically  !
 ! D23   D(8,2,4,6)             50.9599         calculate D2E/DX2 analytically  !
 ! D24   D(8,2,4,7)            172.0824         calculate D2E/DX2 analytically  !
 ! D25   D(12,2,4,5)          -173.7122         calculate D2E/DX2 analytically  !
 ! D26   D(12,2,4,6)           -52.8061         calculate D2E/DX2 analytically  !
 ! D27   D(12,2,4,7)            68.3165         calculate D2E/DX2 analytically  !
 ! D28   D(1,2,8,9)             58.8785         calculate D2E/DX2 analytically  !
 ! D29   D(1,2,8,10)           179.965          calculate D2E/DX2 analytically  !
 ! D30   D(1,2,8,11)           -58.9193         calculate D2E/DX2 analytically  !
 ! D31   D(4,2,8,9)           -173.5398         calculate D2E/DX2 analytically  !
 ! D32   D(4,2,8,10)           -52.4533         calculate D2E/DX2 analytically  !
 ! D33   D(4,2,8,11)            68.6624         calculate D2E/DX2 analytically  !
 ! D34   D(12,2,8,9)           -68.9422         calculate D2E/DX2 analytically  !
 ! D35   D(12,2,8,10)           52.1443         calculate D2E/DX2 analytically  !
 ! D36   D(12,2,8,11)          173.26           calculate D2E/DX2 analytically  !
 ! D37   D(1,2,12,13)           56.6501         calculate D2E/DX2 analytically  !
 ! D38   D(1,2,12,14)          177.808          calculate D2E/DX2 analytically  !
 ! D39   D(1,2,12,15)          -61.2863         calculate D2E/DX2 analytically  !
 ! D40   D(4,2,12,13)          -67.7928         calculate D2E/DX2 analytically  !
 ! D41   D(4,2,12,14)           53.3652         calculate D2E/DX2 analytically  !
 ! D42   D(4,2,12,15)          174.2709         calculate D2E/DX2 analytically  !
 ! D43   D(8,2,12,13)         -171.6257         calculate D2E/DX2 analytically  !
 ! D44   D(8,2,12,14)          -50.4678         calculate D2E/DX2 analytically  !
 ! D45   D(8,2,12,15)           70.438          calculate D2E/DX2 analytically  !
 ! D46   D(1,3,16,17)           56.7277         calculate D2E/DX2 analytically  !
 ! D47   D(1,3,16,18)          177.8903         calculate D2E/DX2 analytically  !
 ! D48   D(1,3,16,19)          -61.2108         calculate D2E/DX2 analytically  !
 ! D49   D(20,3,16,17)        -171.7359         calculate D2E/DX2 analytically  !
 ! D50   D(20,3,16,18)         -50.5734         calculate D2E/DX2 analytically  !
 ! D51   D(20,3,16,19)          70.3255         calculate D2E/DX2 analytically  !
 ! D52   D(24,3,16,17)         -67.8952         calculate D2E/DX2 analytically  !
 ! D53   D(24,3,16,18)          53.2674         calculate D2E/DX2 analytically  !
 ! D54   D(24,3,16,19)         174.1663         calculate D2E/DX2 analytically  !
 ! D55   D(1,3,20,21)          179.8098         calculate D2E/DX2 analytically  !
 ! D56   D(1,3,20,22)          -59.08           calculate D2E/DX2 analytically  !
 ! D57   D(1,3,20,23)           58.7291         calculate D2E/DX2 analytically  !
 ! D58   D(16,3,20,21)          52.1254         calculate D2E/DX2 analytically  !
 ! D59   D(16,3,20,22)         173.2356         calculate D2E/DX2 analytically  !
 ! D60   D(16,3,20,23)         -68.9553         calculate D2E/DX2 analytically  !
 ! D61   D(24,3,20,21)         -52.4828         calculate D2E/DX2 analytically  !
 ! D62   D(24,3,20,22)          68.6273         calculate D2E/DX2 analytically  !
 ! D63   D(24,3,20,23)        -173.5635         calculate D2E/DX2 analytically  !
 ! D64   D(1,3,24,25)           61.9363         calculate D2E/DX2 analytically  !
 ! D65   D(1,3,24,26)         -177.1741         calculate D2E/DX2 analytically  !
 ! D66   D(1,3,24,27)          -56.0129         calculate D2E/DX2 analytically  !
 ! D67   D(16,3,24,25)        -173.4064         calculate D2E/DX2 analytically  !
 ! D68   D(16,3,24,26)         -52.5168         calculate D2E/DX2 analytically  !
 ! D69   D(16,3,24,27)          68.6444         calculate D2E/DX2 analytically  !
 ! D70   D(20,3,24,25)         -69.6469         calculate D2E/DX2 analytically  !
 ! D71   D(20,3,24,26)          51.2427         calculate D2E/DX2 analytically  !
 ! D72   D(20,3,24,27)         172.4038         calculate D2E/DX2 analytically  !
 --------------------------------------------------------------------------------
 Trust Radius=3.00D-01 FncErr=1.00D-07 GrdErr=1.00D-06 EigMax=2.50D+02 EigMin=1.00D-04
 Number of steps in this run=    164 maximum allowed number of steps=    174.
 Search for a saddle point of order  1.
 GradGradGradGradGradGradGradGradGradGradGradGradGradGradGradGradGradGrad

 Leave Link  103 at Sat Nov  9 01:39:29 2019, MaxMem=   104857600 cpu:               0.8 elap:               0.1
 (Enter /share/home/wli/program/opt/Chem_soft/g16/l202.exe)
                          Input orientation:                          
 ---------------------------------------------------------------------
 Center     Atomic      Atomic             Coordinates (Angstroms)
 Number     Number       Type             X           Y           Z
 ---------------------------------------------------------------------
      1         78           0        0.000106   -0.382978   -0.001705
      2         15           0        2.164010    0.229828   -0.000232
      3         15           0       -2.163814    0.230496    0.001625
      4          6           0        2.683737    1.174899    1.472132
      5          1           0        2.552973    0.558947    2.364298
      6          1           0        3.730410    1.486518    1.401204
      7          1           0        2.048355    2.056303    1.575950
      8          6           0        3.496978   -1.022019   -0.099844
      9          1           0        3.378835   -1.601603   -1.018497
     10          1           0        4.493457   -0.569628   -0.089286
     11          1           0        3.408807   -1.709889    0.744507
     12          6           0        2.642463    1.352278   -1.357743
     13          1           0        2.011963    2.242686   -1.326258
     14          1           0        3.693900    1.647169   -1.285165
     15          1           0        2.475153    0.855416   -2.315703
     16          6           0       -2.622269    1.408855    1.317808
     17          1           0       -1.992997    2.297157    1.239234
     18          1           0       -3.674955    1.700191    1.248965
     19          1           0       -2.439926    0.952529    2.293018
     20          6           0       -3.492252   -1.017703    0.176651
     21          1           0       -4.489581   -0.567279    0.163716
     22          1           0       -3.416935   -1.740576   -0.639195
     23          1           0       -3.357705   -1.557683    1.116936
     24          6           0       -2.709491    1.111188   -1.501068
     25          1           0       -2.596816    0.455419   -2.366997
     26          1           0       -3.753985    1.428666   -1.424602
     27          1           0       -2.074359    1.985138   -1.656516
     28          1           0       -0.389579   -2.498406    0.025276
     29          1           0        0.386782   -2.498650    0.013550
 ---------------------------------------------------------------------
                    Distance matrix (angstroms):
                    1          2          3          4          5
     1  Pt   0.000000
     2  P    2.249002   0.000000
     3  P    2.249203   4.327824   0.000000
     4  C    3.435265   1.825139   5.152964   0.000000
     5  H    3.605873   2.418804   5.285659   1.091996   0.000000
     6  H    4.402083   2.448857   6.186945   1.094377   1.781655
     7  H    3.554491   2.415313   4.853292   1.091494   1.765844
     8  C    3.556138   1.831351   5.798591   2.821156   3.076133
     9  H    3.732924   2.422148   5.926060   3.794122   4.097965
    10  H    4.498078   2.464424   6.705798   2.959137   3.325542
    11  H    3.733198   2.422119   5.947359   3.062217   2.916126
    12  C    3.439768   1.825280   5.119236   2.835730   3.806700
    13  H    3.563161   2.415173   4.821753   3.069599   4.092416
    14  H    4.406005   2.449586   6.162435   2.974249   3.975489
    15  H    3.607502   2.418590   5.223079   3.807003   4.690027
    16  C    3.439278   5.102529   1.825116   5.313403   5.347955
    17  H    3.563076   4.805291   2.414941   4.815136   4.995296
    18  H    4.405660   6.149469   2.449368   6.384253   6.429113
    19  H    3.605979   5.193988   2.418274   5.193767   5.008895
    20  C    3.554047   5.794904   1.831224   6.680465   6.619393
    21  H    4.496513   6.703173   2.464125   7.496908   7.463814
    22  H    3.731707   5.952958   2.422001   7.083495   7.067431
    23  H    3.729100   5.910380   2.422164   6.640195   6.400949
    24  C    3.438392   5.174970   1.825231   6.158806   6.552828
    25  H    3.611305   5.321459   2.418357   6.568166   6.994011
    26  H    4.404531   6.203926   2.449158   7.063974   7.408771
    27  H    3.556653   4.877311   2.415824   5.751904   6.293899
    28  H    2.151190   3.736940   3.255054   5.003182   4.845311
    29  H    2.150772   3.256274   3.735495   4.571480   4.423494
                    6          7          8          9         10
     6  H    0.000000
     7  H    1.784516   0.000000
     8  C    2.932643   3.792474   0.000000
     9  H    3.938914   4.677778   1.092611   0.000000
    10  H    2.651704   3.955635   1.094413   1.780671   0.000000
    11  H    3.278978   4.089784   1.092643   1.766581   1.780975
    12  C    2.968743   3.074927   2.819537   3.063126   2.954468
    13  H    3.311177   2.908415   3.790470   4.091651   3.949306
    14  H    2.691415   3.325836   2.927171   3.274888   2.642651
    15  H    3.973582   4.095028   3.078786   2.921699   3.325843
    16  C    6.353701   4.722347   6.735286   7.108757   7.518502
    17  H    5.782798   4.062501   6.553616   7.011009   7.215088
    18  H    7.410011   5.743693   7.788859   8.111669   8.582886
    19  H    6.257277   4.677304   6.698616   7.165731   7.487599
    20  C    7.741931   6.488904   6.994698   6.998653   8.002689
    21  H    8.562576   7.184859   8.003835   8.023679   8.986601
    22  H    8.103203   7.013741   6.972046   6.807765   8.015474
    23  H    7.719413   6.518978   6.982419   7.067034   8.004497
    24  C    7.073640   5.744422   6.710757   6.682800   7.529989
    25  H    7.436147   6.299784   6.667618   6.462058   7.517357
    26  H    8.000293   6.562347   7.767709   7.760449   8.590491
    27  H    6.579788   5.239339   6.519664   6.558133   7.219366
    28  H    5.894667   5.393837   4.159411   4.011815   5.251414
    29  H    5.383957   5.094067   3.444795   3.289710   4.538334
                   11         12         13         14         15
    11  H    0.000000
    12  C    3.792572   0.000000
    13  H    4.675691   1.091489   0.000000
    14  H    3.933279   1.094416   1.784724   0.000000
    15  H    4.100901   1.092040   1.765804   1.781635   0.000000
    16  C    6.813892   5.905860   5.400229   6.835661   6.284299
    17  H    6.743935   5.396719   4.756513   6.255866   5.889020
    18  H    7.877995   6.842934   6.266347   7.792602   7.158515
    19  H    6.610146   6.270449   5.880729   7.135106   6.738527
    20  C    6.958893   6.753214   6.571549   7.802514   6.732780
    21  H    8.001713   7.540928   7.237818   8.600721   7.528553
    22  H    6.964649   6.840933   6.768410   7.903042   6.653312
    23  H    6.778463   7.112941   7.017502   8.109642   7.185284
    24  C    7.101736   5.359299   4.858290   6.429410   5.254483
    25  H    7.101938   5.410452   5.051565   6.493361   5.087976
    26  H    8.115488   6.397254   5.823955   7.452394   6.318611
    27  H    7.034434   4.768458   4.107728   5.790073   4.733800
    28  H    3.945477   5.092522   5.483794   5.964717   4.993496
    29  H    3.207659   4.668852   5.188117   5.459991   4.586554
                   16         17         18         19         20
    16  C    0.000000
    17  H    1.091439   0.000000
    18  H    1.094423   1.784782   0.000000
    19  H    1.092024   1.765851   1.781668   0.000000
    20  C    2.819094   3.790138   2.927488   3.077046   0.000000
    21  H    2.953623   3.949008   2.642499   3.323376   1.094402
    22  H    3.792133   4.675402   3.933268   4.099419   1.092622
    23  H    3.062933   4.091109   3.275945   2.920043   1.092619
    24  C    2.835891   3.070691   2.973504   3.806958   2.821282
    25  H    3.806241   4.094080   3.973288   4.689080   3.072790
    26  H    2.966814   3.309286   2.688481   3.971669   2.935513
    27  H    3.078784   2.913647   3.329402   4.098627   3.793149
    28  H    4.682118   5.200198   5.469855   4.610371   3.441216
    29  H    5.101380   5.492305   5.971116   5.009680   4.155323
                   21         22         23         24         25
    21  H    0.000000
    22  H    1.780973   0.000000
    23  H    1.780638   1.766623   0.000000
    24  C    2.959304   3.062002   3.794338   0.000000
    25  H    3.321593   2.912094   4.095036   1.092044   0.000000
    26  H    2.654742   3.282463   3.941413   1.094352   1.781673
    27  H    3.957446   4.088814   4.678739   1.091488   1.765725
    28  H    4.534141   3.190723   3.299462   4.554216   4.395446
    29  H    5.247063   3.933067   4.015479   4.991183   4.826529
                   26         27         28         29
    26  H    0.000000
    27  H    1.784541   0.000000
    28  H    5.370593   5.076325   0.000000
    29  H    5.885410   5.380585   0.776450   0.000000
 Stoichiometry    C6H20P2Pt
 Framework group  C1[X(C6H20P2Pt)]
 Deg. of freedom    81
 Full point group                 C1      NOp   1
 RotChk:  IX=2 Diff= 2.02D-01
 Largest Abelian subgroup         C1      NOp   1
 Largest concise Abelian subgroup C1      NOp   1
                         Standard orientation:                         
 ---------------------------------------------------------------------
 Center     Atomic      Atomic             Coordinates (Angstroms)
 Number     Number       Type             X           Y           Z
 ---------------------------------------------------------------------
      1         78           0        0.000106   -0.382978   -0.001705
      2         15           0        2.164010    0.229828   -0.000232
      3         15           0       -2.163814    0.230496    0.001625
      4          6           0        2.683737    1.174899    1.472132
      5          1           0        2.552973    0.558947    2.364298
      6          1           0        3.730410    1.486518    1.401204
      7          1           0        2.048355    2.056303    1.575950
      8          6           0        3.496978   -1.022019   -0.099844
      9          1           0        3.378835   -1.601603   -1.018497
     10          1           0        4.493457   -0.569628   -0.089286
     11          1           0        3.408807   -1.709889    0.744507
     12          6           0        2.642463    1.352278   -1.357743
     13          1           0        2.011963    2.242686   -1.326258
     14          1           0        3.693900    1.647169   -1.285165
     15          1           0        2.475153    0.855416   -2.315703
     16          6           0       -2.622269    1.408855    1.317808
     17          1           0       -1.992997    2.297157    1.239234
     18          1           0       -3.674955    1.700191    1.248965
     19          1           0       -2.439926    0.952529    2.293018
     20          6           0       -3.492252   -1.017703    0.176651
     21          1           0       -4.489581   -0.567279    0.163716
     22          1           0       -3.416935   -1.740576   -0.639195
     23          1           0       -3.357705   -1.557683    1.116936
     24          6           0       -2.709491    1.111188   -1.501068
     25          1           0       -2.596816    0.455419   -2.366997
     26          1           0       -3.753985    1.428666   -1.424602
     27          1           0       -2.074359    1.985138   -1.656516
     28          1           0       -0.389579   -2.498406    0.025276
     29          1           0        0.386782   -2.498650    0.013550
 ---------------------------------------------------------------------
 Rotational constants (GHZ):           1.5524038           0.4053632           0.3896546
 Leave Link  202 at Sat Nov  9 01:39:29 2019, MaxMem=   104857600 cpu:               0.8 elap:               0.1
 (Enter /share/home/wli/program/opt/Chem_soft/g16/l301.exe)
 Standard basis: def2TZVP (5D, 7F)
 Ernie: Thresh=  0.10000D-02 Tol=  0.10000D-05 Strict=F.
 There are   466 symmetry adapted cartesian basis functions of A   symmetry.
 There are   420 symmetry adapted basis functions of A   symmetry.
   420 basis functions,   679 primitive gaussians,   466 cartesian basis functions
    52 alpha electrons       52 beta electrons
       nuclear repulsion energy       825.1220260374 Hartrees.
 IExCor= 1009 DFT=T Ex+Corr=PBE1PBE ExCW=0 ScaHFX=  0.250000
 ScaDFX=  0.750000  0.750000  1.000000  1.000000 ScalE2=  1.000000  1.000000
 IRadAn=      5 IRanWt=     -1 IRanGd=            0 ICorTp=0 IEmpDi=141
 NAtoms=   29 NActive=   29 NUniq=   29 SFac= 1.00D+00 NAtFMM=   60 NAOKFM=F Big=F
 Integral buffers will be    131072 words long.
 Raffenetti 2 integral format.
 Two-electron integral symmetry is turned on.
 R6Disp:  Grimme-D3(BJ) Dispersion energy=       -0.0308526044 Hartrees.
 Nuclear repulsion after empirical dispersion term =      825.0911734330 Hartrees.
 Force inversion solution in PCM.
 ------------------------------------------------------------------------------
 Polarizable Continuum Model (PCM)
 =================================
 Model                : PCM.
 Atomic radii         : SMD-Coulomb.
 Polarization charges : Total charges.
 Charge compensation  : None.
 Solution method      : Matrix inversion.
 Cavity type          : VdW (van der Waals Surface) (Alpha=1.000).
 Cavity algorithm     : GePol (No added spheres)
                        Default sphere list used, NSphG=   29.
                        Lebedev-Laikov grids with approx.  5.0 points / Ang**2.
                        Smoothing algorithm: York/Karplus (Gamma=1.0000).
                        Polarization charges: spherical gaussians, with
                                              point-specific exponents (IZeta= 3).
                        Self-potential: point-specific (ISelfS= 7).
                        Self-field    : sphere-specific E.n sum rule (ISelfD= 2).
 1st derivatives      : Analytical E(r).r(x)/FMM algorithm (CHGder, D1EAlg=3).
                        Cavity 1st derivative terms included.
 2nd derivatives      : Analytical E(r).r(xy)/FMM algorithm (CHGder, D2EAlg=3).
                        Cavity 2nd derivative terms included.
 Solvent              : Benzene, Eps=   2.270600 Eps(inf)=   2.253301
 ------------------------------------------------------------------------------
 GePol: Number of generator spheres                  =      29
 GePol: Total number of spheres                      =      29
 GePol: Number of exposed spheres                    =      29 (100.00%)
 GePol: Number of points                             =    2157
 GePol: Average weight of points                     =       0.12
 GePol: Minimum weight of points                     =   0.29D-11
 GePol: Maximum weight of points                     =    0.22001
 GePol: Number of points with low weight             =     138
 GePol: Fraction of low-weight points (<1% of avg)   =       6.40%
 GePol: Cavity surface area                          =    254.627 Ang**2
 GePol: Cavity volume                                =    208.319 Ang**3
 ------------------------------------------------------------------------------
 Atomic radii for non-electrostatic terms: SMD-CDS.
 ------------------------------------------------------------------------------
 PCM non-electrostatic energy =         0.0001537836 Hartrees.
 Nuclear repulsion after PCM non-electrostatic terms =      825.0913272166 Hartrees.
 Leave Link  301 at Sat Nov  9 01:39:29 2019, MaxMem=   104857600 cpu:               2.0 elap:               0.1
 (Enter /share/home/wli/program/opt/Chem_soft/g16/l302.exe)
 NPDir=0 NMtPBC=     1 NCelOv=     1 NCel=       1 NClECP=     1 NCelD=      1
         NCelK=      1 NCelE2=     1 NClLst=     1 CellRange=     0.0.
 One-electron integrals computed using PRISM.
 One-electron integral symmetry used in STVInt
 PrsmSu:  requested number of processors reduced to:  12 ShMem   1 Linda.
   1 Symmetry operations used in ECPInt.
 ECPInt:  NShTT=   17391 NPrTT=   50365 LenC2=   15908 LenP2D=   34674.
 LDataN:  DoStor=T MaxTD1= 8 Len=  415
 Number of processors reduced to  15 by ecpmxn.
 NBasis=   420 RedAO= T EigKep=  6.59D-04  NBF=   420
 NBsUse=   420 1.00D-06 EigRej= -1.00D+00 NBFU=   420
 Precomputing XC quadrature grid using
 IXCGrd= 4 IRadAn=           5 IRanWt=          -1 IRanGd=           0 AccXCQ= 0.00D+00.
 Defaulting to unpruned grid for atomic number  78.
 Generated NRdTot=       0 NPtTot=           0 NUsed=           0 NTot=          32
 NSgBfM=   464   464   464   464   464 MxSgAt=    29 MxSgA2=    29.
 Leave Link  302 at Sat Nov  9 01:39:30 2019, MaxMem=   104857600 cpu:              14.7 elap:               0.7
 (Enter /share/home/wli/program/opt/Chem_soft/g16/l303.exe)
 DipDrv:  MaxL=1.
 Leave Link  303 at Sat Nov  9 01:39:30 2019, MaxMem=   104857600 cpu:               1.3 elap:               0.1
 (Enter /share/home/wli/program/opt/Chem_soft/g16/l401.exe)
 ExpMin= 4.92D-02 ExpMax= 5.24D+04 ExpMxC= 1.79D+03 IAcc=3 IRadAn=         5 AccDes= 0.00D+00
 Harris functional with IExCor= 1009 and IRadAn=       5 diagonalized for initial guess.
 HarFok:  IExCor= 1009 AccDes= 0.00D+00 IRadAn=         5 IDoV= 1 UseB2=F ITyADJ=14
 ICtDFT=  3500011 ScaDFX=  1.000000  1.000000  1.000000  1.000000
 Defaulting to unpruned grid for atomic number  78.
 FoFCou: FMM=F IPFlag=           0 FMFlag=      100000 FMFlg1=           0
         NFxFlg=           0 DoJE=T BraDBF=F KetDBF=T FulRan=T
         wScrn=  0.000000 ICntrl=       500 IOpCl=  0 I1Cent=   200000004 NGrid=           0
         NMat0=    1 NMatS0=      1 NMatT0=    0 NMatD0=    1 NMtDS0=    0 NMtDT0=    0
 Petite list used in FoFCou.
 Harris En= -1042.49063887991    
 JPrj=0 DoOrth=F DoCkMO=F.
 Leave Link  401 at Sat Nov  9 01:39:32 2019, MaxMem=   104857600 cpu:              42.5 elap:               1.8
 (Enter /share/home/wli/program/opt/Chem_soft/g16/l502.exe)
 Integral symmetry usage will be decided dynamically.
 Closed shell SCF:
 Using DIIS extrapolation, IDIIS=  1040.
 NGot=   104857600 LenX=   104407631 LenY=   104190009
 Requested convergence on RMS density matrix=1.00D-08 within 128 cycles.
 Requested convergence on MAX density matrix=1.00D-06.
 Requested convergence on             energy=1.00D-06.
 No special actions if energy rises.
 Fock matrices will be formed incrementally for  20 cycles.

 Cycle   1  Pass 1  IDiag  1:
 FoFJK:  IHMeth= 1 ICntrl=       0 DoSepK=F KAlg= 0 I1Cent=           0 FoldK=F
 IRaf= 860000000 NMat=       1 IRICut=       1 DoRegI=T DoRafI=F ISym2E= 0 IDoP0=0 IntGTp=1.
 FoFCou: FMM=F IPFlag=           0 FMFlag=      100000 FMFlg1=           0
         NFxFlg=           0 DoJE=F BraDBF=F KetDBF=F FulRan=T
         wScrn=  0.000000 ICntrl=         0 IOpCl=  0 I1Cent=           0 NGrid=           0
         NMat0=    1 NMatS0=      1 NMatT0=    0 NMatD0=    1 NMtDS0=    0 NMtDT0=    0
 Symmetry not used in FoFCou.
 Defaulting to unpruned grid for atomic number  78.
 Defaulting to unpruned grid for atomic number  78.
 Defaulting to unpruned grid for atomic number  78.
 Defaulting to unpruned grid for atomic number  78.
 Defaulting to unpruned grid for atomic number  78.
 Defaulting to unpruned grid for atomic number  78.
 Defaulting to unpruned grid for atomic number  78.
 Defaulting to unpruned grid for atomic number  78.
 Defaulting to unpruned grid for atomic number  78.
 Defaulting to unpruned grid for atomic number  78.
 Defaulting to unpruned grid for atomic number  78.
 Defaulting to unpruned grid for atomic number  78.
 Defaulting to unpruned grid for atomic number  78.
 Defaulting to unpruned grid for atomic number  78.
 Defaulting to unpruned grid for atomic number  78.
 Defaulting to unpruned grid for atomic number  78.
 Defaulting to unpruned grid for atomic number  78.
 Defaulting to unpruned grid for atomic number  78.
 Defaulting to unpruned grid for atomic number  78.
 Defaulting to unpruned grid for atomic number  78.
 Defaulting to unpruned grid for atomic number  78.
 Defaulting to unpruned grid for atomic number  78.
 Defaulting to unpruned grid for atomic number  78.
 Defaulting to unpruned grid for atomic number  78.
 Inv3:  Mode=1 IEnd=    13957947.
 Iteration    1 A*A^-1 deviation from unit magnitude is 7.99D-15 for    163.
 Iteration    1 A*A^-1 deviation from orthogonality  is 5.03D-15 for   1173    157.
 Iteration    1 A^-1*A deviation from unit magnitude is 7.99D-15 for    163.
 Iteration    1 A^-1*A deviation from orthogonality  is 4.59D-15 for   2151   1688.
 E= -1041.70248105144    
 DIIS: error= 4.78D-02 at cycle   1 NSaved=   1.
 NSaved= 1 IEnMin= 1 EnMin= -1041.70248105144     IErMin= 1 ErrMin= 4.78D-02
 ErrMax= 4.78D-02  0.00D+00 EMaxC= 1.00D-01 BMatC= 8.57D-01 BMatP= 8.57D-01
 IDIUse=3 WtCom= 5.22D-01 WtEn= 4.78D-01
 Coeff-Com:  0.100D+01
 Coeff-En:   0.100D+01
 Coeff:      0.100D+01
 Gap=     0.381 Goal=   None    Shift=    0.000
 GapD=    0.381 DampG=1.000 DampE=0.250 DampFc=0.2500 IDamp=-1.
 Damping current iteration by 2.50D-01
 RMSDP=3.57D-03 MaxDP=2.96D-01              OVMax= 2.55D-01

 Cycle   2  Pass 1  IDiag  1:
 RMSU=  8.93D-04    CP:  1.00D+00
 E= -1041.96922377732     Delta-E=       -0.266742725881 Rises=F Damp=T
 DIIS: error= 2.20D-02 at cycle   2 NSaved=   2.
 NSaved= 2 IEnMin= 2 EnMin= -1041.96922377732     IErMin= 2 ErrMin= 2.20D-02
 ErrMax= 2.20D-02  0.00D+00 EMaxC= 1.00D-01 BMatC= 1.69D-01 BMatP= 8.57D-01
 IDIUse=3 WtCom= 7.80D-01 WtEn= 2.20D-01
 Coeff-Com: -0.656D+00 0.166D+01
 Coeff-En:   0.000D+00 0.100D+01
 Coeff:     -0.512D+00 0.151D+01
 Gap=     0.296 Goal=   None    Shift=    0.000
 RMSDP=1.23D-03 MaxDP=1.74D-01 DE=-2.67D-01 OVMax= 2.39D-01

 Cycle   3  Pass 1  IDiag  1:
 RMSU=  1.19D-03    CP:  9.84D-01  1.29D+00
 E= -1042.36436829964     Delta-E=       -0.395144522322 Rises=F Damp=F
 DIIS: error= 9.13D-03 at cycle   3 NSaved=   3.
 NSaved= 3 IEnMin= 3 EnMin= -1042.36436829964     IErMin= 3 ErrMin= 9.13D-03
 ErrMax= 9.13D-03  0.00D+00 EMaxC= 1.00D-01 BMatC= 3.46D-02 BMatP= 1.69D-01
 IDIUse=3 WtCom= 9.09D-01 WtEn= 9.13D-02
 Coeff-Com: -0.301D+00 0.777D+00 0.524D+00
 Coeff-En:   0.000D+00 0.000D+00 0.100D+01
 Coeff:     -0.273D+00 0.706D+00 0.568D+00
 Gap=     0.189 Goal=   None    Shift=    0.000
 RMSDP=6.48D-04 MaxDP=5.40D-02 DE=-3.95D-01 OVMax= 4.78D-02

 Cycle   4  Pass 1  IDiag  1:
 RMSU=  4.82D-04    CP:  9.85D-01  1.51D+00  6.75D-01
 E= -1042.38952235926     Delta-E=       -0.025154059623 Rises=F Damp=F
 DIIS: error= 4.10D-03 at cycle   4 NSaved=   4.
 NSaved= 4 IEnMin= 4 EnMin= -1042.38952235926     IErMin= 4 ErrMin= 4.10D-03
 ErrMax= 4.10D-03  0.00D+00 EMaxC= 1.00D-01 BMatC= 7.24D-03 BMatP= 3.46D-02
 IDIUse=3 WtCom= 9.59D-01 WtEn= 4.10D-02
 Coeff-Com:  0.739D-02 0.278D-01 0.309D+00 0.656D+00
 Coeff-En:   0.000D+00 0.000D+00 0.154D+00 0.846D+00
 Coeff:      0.709D-02 0.266D-01 0.303D+00 0.664D+00
 Gap=     0.181 Goal=   None    Shift=    0.000
 RMSDP=1.87D-04 MaxDP=2.01D-02 DE=-2.52D-02 OVMax= 1.46D-02

 Cycle   5  Pass 1  IDiag  1:
 RMSU=  8.75D-05    CP:  9.83D-01  1.43D+00  7.80D-01  8.31D-01
 E= -1042.39510598303     Delta-E=       -0.005583623774 Rises=F Damp=F
 DIIS: error= 6.93D-04 at cycle   5 NSaved=   5.
 NSaved= 5 IEnMin= 5 EnMin= -1042.39510598303     IErMin= 5 ErrMin= 6.93D-04
 ErrMax= 6.93D-04  0.00D+00 EMaxC= 1.00D-01 BMatC= 1.35D-04 BMatP= 7.24D-03
 IDIUse=3 WtCom= 9.93D-01 WtEn= 6.93D-03
 Coeff-Com:  0.180D-01-0.257D-01 0.926D-01 0.250D+00 0.666D+00
 Coeff-En:   0.000D+00 0.000D+00 0.000D+00 0.000D+00 0.100D+01
 Coeff:      0.179D-01-0.256D-01 0.919D-01 0.248D+00 0.668D+00
 Gap=     0.181 Goal=   None    Shift=    0.000
 RMSDP=2.62D-05 MaxDP=1.38D-03 DE=-5.58D-03 OVMax= 2.50D-03

 Cycle   6  Pass 1  IDiag  1:
 RMSU=  1.70D-05    CP:  9.83D-01  1.43D+00  7.85D-01  8.46D-01  8.04D-01
 E= -1042.39525027729     Delta-E=       -0.000144294251 Rises=F Damp=F
 DIIS: error= 7.74D-05 at cycle   6 NSaved=   6.
 NSaved= 6 IEnMin= 6 EnMin= -1042.39525027729     IErMin= 6 ErrMin= 7.74D-05
 ErrMax= 7.74D-05  0.00D+00 EMaxC= 1.00D-01 BMatC= 1.86D-06 BMatP= 1.35D-04
 IDIUse=1 WtCom= 1.00D+00 WtEn= 0.00D+00
 Coeff-Com:  0.344D-02-0.546D-02 0.986D-02 0.265D-01 0.132D+00 0.834D+00
 Coeff:      0.344D-02-0.546D-02 0.986D-02 0.265D-01 0.132D+00 0.834D+00
 Gap=     0.181 Goal=   None    Shift=    0.000
 RMSDP=5.85D-06 MaxDP=7.35D-04 DE=-1.44D-04 OVMax= 5.25D-04

 Cycle   7  Pass 1  IDiag  1:
 RMSU=  4.22D-06    CP:  9.83D-01  1.43D+00  7.88D-01  8.47D-01  8.19D-01
                    CP:  9.55D-01
 E= -1042.39525213517     Delta-E=       -0.000001857886 Rises=F Damp=F
 DIIS: error= 3.56D-05 at cycle   7 NSaved=   7.
 NSaved= 7 IEnMin= 7 EnMin= -1042.39525213517     IErMin= 7 ErrMin= 3.56D-05
 ErrMax= 3.56D-05  0.00D+00 EMaxC= 1.00D-01 BMatC= 2.50D-07 BMatP= 1.86D-06
 IDIUse=1 WtCom= 1.00D+00 WtEn= 0.00D+00
 Coeff-Com:  0.337D-03-0.731D-03-0.377D-03-0.104D-02 0.176D-01 0.314D+00
 Coeff-Com:  0.671D+00
 Coeff:      0.337D-03-0.731D-03-0.377D-03-0.104D-02 0.176D-01 0.314D+00
 Coeff:      0.671D+00
 Gap=     0.181 Goal=   None    Shift=    0.000
 RMSDP=1.91D-06 MaxDP=1.10D-04 DE=-1.86D-06 OVMax= 1.89D-04

 Cycle   8  Pass 1  IDiag  1:
 RMSU=  9.34D-07    CP:  9.83D-01  1.43D+00  7.88D-01  8.49D-01  8.27D-01
                    CP:  1.01D+00  8.53D-01
 E= -1042.39525239297     Delta-E=       -0.000000257801 Rises=F Damp=F
 DIIS: error= 5.52D-06 at cycle   8 NSaved=   8.
 NSaved= 8 IEnMin= 8 EnMin= -1042.39525239297     IErMin= 8 ErrMin= 5.52D-06
 ErrMax= 5.52D-06  0.00D+00 EMaxC= 1.00D-01 BMatC= 1.21D-08 BMatP= 2.50D-07
 IDIUse=1 WtCom= 1.00D+00 WtEn= 0.00D+00
 Coeff-Com: -0.229D-03 0.333D-03-0.103D-02-0.315D-02-0.599D-02 0.344D-01
 Coeff-Com:  0.201D+00 0.774D+00
 Coeff:     -0.229D-03 0.333D-03-0.103D-02-0.315D-02-0.599D-02 0.344D-01
 Coeff:      0.201D+00 0.774D+00
 Gap=     0.181 Goal=   None    Shift=    0.000
 RMSDP=4.32D-07 MaxDP=3.67D-05 DE=-2.58D-07 OVMax= 7.78D-05

 Cycle   9  Pass 1  IDiag  1:
 RMSU=  2.51D-07    CP:  9.83D-01  1.43D+00  7.88D-01  8.49D-01  8.27D-01
                    CP:  1.02D+00  9.10D-01  1.05D+00
 E= -1042.39525240768     Delta-E=       -0.000000014708 Rises=F Damp=F
 DIIS: error= 1.52D-06 at cycle   9 NSaved=   9.
 NSaved= 9 IEnMin= 9 EnMin= -1042.39525240768     IErMin= 9 ErrMin= 1.52D-06
 ErrMax= 1.52D-06  0.00D+00 EMaxC= 1.00D-01 BMatC= 9.63D-10 BMatP= 1.21D-08
 IDIUse=1 WtCom= 1.00D+00 WtEn= 0.00D+00
 Coeff-Com: -0.254D-04 0.436D-04-0.208D-03-0.740D-03-0.173D-02-0.526D-02
 Coeff-Com:  0.180D-01 0.152D+00 0.838D+00
 Coeff:     -0.254D-04 0.436D-04-0.208D-03-0.740D-03-0.173D-02-0.526D-02
 Coeff:      0.180D-01 0.152D+00 0.838D+00
 Gap=     0.181 Goal=   None    Shift=    0.000
 RMSDP=1.45D-07 MaxDP=1.42D-05 DE=-1.47D-08 OVMax= 2.53D-05

 Cycle  10  Pass 1  IDiag  1:
 RMSU=  6.83D-08    CP:  9.83D-01  1.43D+00  7.88D-01  8.49D-01  8.28D-01
                    CP:  1.02D+00  9.28D-01  1.12D+00  1.10D+00
 E= -1042.39525240882     Delta-E=       -0.000000001135 Rises=F Damp=F
 DIIS: error= 6.70D-07 at cycle  10 NSaved=  10.
 NSaved=10 IEnMin=10 EnMin= -1042.39525240882     IErMin=10 ErrMin= 6.70D-07
 ErrMax= 6.70D-07  0.00D+00 EMaxC= 1.00D-01 BMatC= 2.25D-10 BMatP= 9.63D-10
 IDIUse=1 WtCom= 1.00D+00 WtEn= 0.00D+00
 Coeff-Com:  0.248D-04-0.320D-04 0.469D-04 0.832D-04-0.754D-05-0.859D-02
 Coeff-Com: -0.221D-01-0.389D-01 0.465D+00 0.604D+00
 Coeff:      0.248D-04-0.320D-04 0.469D-04 0.832D-04-0.754D-05-0.859D-02
 Coeff:     -0.221D-01-0.389D-01 0.465D+00 0.604D+00
 Gap=     0.181 Goal=   None    Shift=    0.000
 RMSDP=4.97D-08 MaxDP=5.19D-06 DE=-1.13D-09 OVMax= 1.16D-05

 Cycle  11  Pass 1  IDiag  1:
 RMSU=  2.54D-08    CP:  9.83D-01  1.43D+00  7.88D-01  8.49D-01  8.28D-01
                    CP:  1.02D+00  9.32D-01  1.14D+00  1.19D+00  7.85D-01
 E= -1042.39525240903     Delta-E=       -0.000000000211 Rises=F Damp=F
 DIIS: error= 1.79D-07 at cycle  11 NSaved=  11.
 NSaved=11 IEnMin=11 EnMin= -1042.39525240903     IErMin=11 ErrMin= 1.79D-07
 ErrMax= 1.79D-07  0.00D+00 EMaxC= 1.00D-01 BMatC= 1.11D-11 BMatP= 2.25D-10
 IDIUse=1 WtCom= 1.00D+00 WtEn= 0.00D+00
 Coeff-Com:  0.703D-06-0.732D-06 0.173D-04 0.695D-04 0.641D-04-0.760D-03
 Coeff-Com: -0.351D-02-0.132D-01 0.165D-01 0.918D-01 0.909D+00
 Coeff:      0.703D-06-0.732D-06 0.173D-04 0.695D-04 0.641D-04-0.760D-03
 Coeff:     -0.351D-02-0.132D-01 0.165D-01 0.918D-01 0.909D+00
 Gap=     0.181 Goal=   None    Shift=    0.000
 RMSDP=1.37D-08 MaxDP=1.18D-06 DE=-2.11D-10 OVMax= 2.51D-06

 Cycle  12  Pass 1  IDiag  1:
 RMSU=  5.93D-09    CP:  9.83D-01  1.43D+00  7.88D-01  8.49D-01  8.28D-01
                    CP:  1.02D+00  9.33D-01  1.14D+00  1.21D+00  8.81D-01
                    CP:  1.08D+00
 E= -1042.39525240905     Delta-E=       -0.000000000027 Rises=F Damp=F
 DIIS: error= 3.20D-08 at cycle  12 NSaved=  12.
 NSaved=12 IEnMin=12 EnMin= -1042.39525240905     IErMin=12 ErrMin= 3.20D-08
 ErrMax= 3.20D-08  0.00D+00 EMaxC= 1.00D-01 BMatC= 8.17D-13 BMatP= 1.11D-11
 IDIUse=1 WtCom= 1.00D+00 WtEn= 0.00D+00
 Coeff-Com: -0.188D-05 0.263D-05 0.425D-05 0.258D-04 0.270D-04 0.277D-03
 Coeff-Com: -0.741D-04-0.313D-02-0.240D-01-0.740D-03 0.413D+00 0.615D+00
 Coeff:     -0.188D-05 0.263D-05 0.425D-05 0.258D-04 0.270D-04 0.277D-03
 Coeff:     -0.741D-04-0.313D-02-0.240D-01-0.740D-03 0.413D+00 0.615D+00
 Gap=     0.181 Goal=   None    Shift=    0.000
 RMSDP=3.19D-09 MaxDP=2.40D-07 DE=-2.66D-11 OVMax= 5.14D-07

 Error on total polarization charges =  0.04520
 SCF Done:  E(RPBE1PBE) =  -1042.39525241     A.U. after   12 cycles
            NFock= 12  Conv=0.32D-08     -V/T= 2.0849
 KE= 9.608323326053D+02 PE=-4.080075105289D+03 EE= 1.251756193058D+03
 SMD-CDS (non-electrostatic) energy       (kcal/mol) =       0.10
 (included in total energy above)
 Leave Link  502 at Sat Nov  9 01:40:45 2019, MaxMem=   104857600 cpu:            1710.9 elap:              72.7
 (Enter /share/home/wli/program/opt/Chem_soft/g16/l801.exe)
 DoSCS=F DFT=T ScalE2(SS,OS)=  1.000000  1.000000
 Range of M.O.s used for correlation:     1   420
 NBasis=   420 NAE=    52 NBE=    52 NFC=     0 NFV=     0
 NROrb=    420 NOA=    52 NOB=    52 NVA=   368 NVB=   368
 Leave Link  801 at Sat Nov  9 01:40:45 2019, MaxMem=   104857600 cpu:               0.9 elap:               0.1
 (Enter /share/home/wli/program/opt/Chem_soft/g16/l1101.exe)
 Using compressed storage, NAtomX=    29.
 Will process     30 centers per pass.
 PrsmSu:  requested number of processors reduced to:  12 ShMem   1 Linda.
 PrsmSu:  requested number of processors reduced to:   7 ShMem   1 Linda.
   1 Symmetry operations used in ECPInt.
 ECPInt:  NShTT=   17391 NPrTT=   50365 LenC2=   15908 LenP2D=   34674.
 LDataN:  DoStor=T MaxTD1= 9 Len=  602
 Number of processors reduced to   3 by ecpmxn.
 R6Disp: Adding Grimme-D3(BJ) dispersion energy 1st derivatives to the gradient.
 Leave Link 1101 at Sat Nov  9 01:40:48 2019, MaxMem=   104857600 cpu:              19.3 elap:               2.9
 (Enter /share/home/wli/program/opt/Chem_soft/g16/l1102.exe)
 Symmetrizing basis deriv contribution to polar:
 IMax=3 JMax=2 DiffMx= 0.00D+00
 Leave Link 1102 at Sat Nov  9 01:40:48 2019, MaxMem=   104857600 cpu:               1.9 elap:               0.1
 (Enter /share/home/wli/program/opt/Chem_soft/g16/l1110.exe)
 Forming Gx(P) for the SCF density, NAtomX=    29.
 Integral derivatives from FoFJK, PRISM(SPDF).
 Do as many integral derivatives as possible in FoFJK.
 G2DrvN: MDV=     104855376.
 G2DrvN: will do     1 centers at a time, making   30 passes.
 Estimated number of processors is:   23
 G2DrvN:  IPasSy=1 do centers    0 through    0.
 Calling FoFCou, ICntrl=  3107 FMM=F I1Cent=   0 AccDes= 0.00D+00.
 FoFJK:  IHMeth= 1 ICntrl=    3107 DoSepK=F KAlg= 0 I1Cent=           0 FoldK=F
 IRaf=         0 NMat=       1 IRICut=       1 DoRegI=T DoRafI=F ISym2E= 0 IDoP0=0 IntGTp=1.
 FoFCou: FMM=F IPFlag=           0 FMFlag=      100000 FMFlg1=           0
         NFxFlg=           0 DoJE=F BraDBF=F KetDBF=F FulRan=T
         wScrn=  0.000000 ICntrl=      3107 IOpCl=  0 I1Cent=           0 NGrid=           0
         NMat0=    1 NMatS0=      1 NMatT0=    0 NMatD0=    1 NMtDS0=    0 NMtDT0=    0
 Symmetry not used in FoFCou.
 Defaulting to unpruned grid for atomic number  78.
 Defaulting to unpruned grid for atomic number  78.
 Defaulting to unpruned grid for atomic number  78.
 Defaulting to unpruned grid for atomic number  78.
 Defaulting to unpruned grid for atomic number  78.
 Defaulting to unpruned grid for atomic number  78.
 Defaulting to unpruned grid for atomic number  78.
 Defaulting to unpruned grid for atomic number  78.
 Defaulting to unpruned grid for atomic number  78.
 Defaulting to unpruned grid for atomic number  78.
 Defaulting to unpruned grid for atomic number  78.
 Defaulting to unpruned grid for atomic number  78.
 Defaulting to unpruned grid for atomic number  78.
 Defaulting to unpruned grid for atomic number  78.
 Defaulting to unpruned grid for atomic number  78.
 Defaulting to unpruned grid for atomic number  78.
 Defaulting to unpruned grid for atomic number  78.
 Defaulting to unpruned grid for atomic number  78.
 Defaulting to unpruned grid for atomic number  78.
 Defaulting to unpruned grid for atomic number  78.
 Defaulting to unpruned grid for atomic number  78.
 Defaulting to unpruned grid for atomic number  78.
 Defaulting to unpruned grid for atomic number  78.
 Defaulting to unpruned grid for atomic number  78.
 G2DrvN:  IPasSy=1 do centers    1 through    1.
 Calling FoFCou, ICntrl=  3107 FMM=F I1Cent=   0 AccDes= 0.00D+00.
 CoulSu:  requested number of processors reduced to:  23 ShMem   1 Linda.
 G2DrvN:  IPasSy=1 do centers    2 through    2.
 Calling FoFCou, ICntrl=  3107 FMM=F I1Cent=   0 AccDes= 0.00D+00.
 CoulSu:  requested number of processors reduced to:  23 ShMem   1 Linda.
 G2DrvN:  IPasSy=1 do centers    3 through    3.
 Calling FoFCou, ICntrl=  3107 FMM=F I1Cent=   0 AccDes= 0.00D+00.
 CoulSu:  requested number of processors reduced to:  23 ShMem   1 Linda.
 G2DrvN:  IPasSy=1 do centers    4 through    4.
 Calling FoFCou, ICntrl=  3107 FMM=F I1Cent=   0 AccDes= 0.00D+00.
 CoulSu:  requested number of processors reduced to:  23 ShMem   1 Linda.
 G2DrvN:  IPasSy=1 do centers    5 through    5.
 Calling FoFCou, ICntrl=  3107 FMM=F I1Cent=   0 AccDes= 0.00D+00.
 CoulSu:  requested number of processors reduced to:  23 ShMem   1 Linda.
 G2DrvN:  IPasSy=1 do centers    6 through    6.
 Calling FoFCou, ICntrl=  3107 FMM=F I1Cent=   0 AccDes= 0.00D+00.
 CoulSu:  requested number of processors reduced to:  23 ShMem   1 Linda.
 G2DrvN:  IPasSy=1 do centers    7 through    7.
 Calling FoFCou, ICntrl=  3107 FMM=F I1Cent=   0 AccDes= 0.00D+00.
 CoulSu:  requested number of processors reduced to:  23 ShMem   1 Linda.
 G2DrvN:  IPasSy=1 do centers    8 through    8.
 Calling FoFCou, ICntrl=  3107 FMM=F I1Cent=   0 AccDes= 0.00D+00.
 CoulSu:  requested number of processors reduced to:  23 ShMem   1 Linda.
 G2DrvN:  IPasSy=1 do centers    9 through    9.
 Calling FoFCou, ICntrl=  3107 FMM=F I1Cent=   0 AccDes= 0.00D+00.
 CoulSu:  requested number of processors reduced to:  23 ShMem   1 Linda.
 G2DrvN:  IPasSy=1 do centers   10 through   10.
 Calling FoFCou, ICntrl=  3107 FMM=F I1Cent=   0 AccDes= 0.00D+00.
 CoulSu:  requested number of processors reduced to:  23 ShMem   1 Linda.
 G2DrvN:  IPasSy=1 do centers   11 through   11.
 Calling FoFCou, ICntrl=  3107 FMM=F I1Cent=   0 AccDes= 0.00D+00.
 CoulSu:  requested number of processors reduced to:  23 ShMem   1 Linda.
 G2DrvN:  IPasSy=1 do centers   12 through   12.
 Calling FoFCou, ICntrl=  3107 FMM=F I1Cent=   0 AccDes= 0.00D+00.
 CoulSu:  requested number of processors reduced to:  23 ShMem   1 Linda.
 G2DrvN:  IPasSy=1 do centers   13 through   13.
 Calling FoFCou, ICntrl=  3107 FMM=F I1Cent=   0 AccDes= 0.00D+00.
 CoulSu:  requested number of processors reduced to:  23 ShMem   1 Linda.
 G2DrvN:  IPasSy=1 do centers   14 through   14.
 Calling FoFCou, ICntrl=  3107 FMM=F I1Cent=   0 AccDes= 0.00D+00.
 CoulSu:  requested number of processors reduced to:  23 ShMem   1 Linda.
 G2DrvN:  IPasSy=1 do centers   15 through   15.
 Calling FoFCou, ICntrl=  3107 FMM=F I1Cent=   0 AccDes= 0.00D+00.
 CoulSu:  requested number of processors reduced to:  23 ShMem   1 Linda.
 G2DrvN:  IPasSy=1 do centers   16 through   16.
 Calling FoFCou, ICntrl=  3107 FMM=F I1Cent=   0 AccDes= 0.00D+00.
 CoulSu:  requested number of processors reduced to:  23 ShMem   1 Linda.
 G2DrvN:  IPasSy=1 do centers   17 through   17.
 Calling FoFCou, ICntrl=  3107 FMM=F I1Cent=   0 AccDes= 0.00D+00.
 CoulSu:  requested number of processors reduced to:  23 ShMem   1 Linda.
 G2DrvN:  IPasSy=1 do centers   18 through   18.
 Calling FoFCou, ICntrl=  3107 FMM=F I1Cent=   0 AccDes= 0.00D+00.
 CoulSu:  requested number of processors reduced to:  23 ShMem   1 Linda.
 G2DrvN:  IPasSy=1 do centers   19 through   19.
 Calling FoFCou, ICntrl=  3107 FMM=F I1Cent=   0 AccDes= 0.00D+00.
 CoulSu:  requested number of processors reduced to:  23 ShMem   1 Linda.
 G2DrvN:  IPasSy=1 do centers   20 through   20.
 Calling FoFCou, ICntrl=  3107 FMM=F I1Cent=   0 AccDes= 0.00D+00.
 CoulSu:  requested number of processors reduced to:  23 ShMem   1 Linda.
 G2DrvN:  IPasSy=1 do centers   21 through   21.
 Calling FoFCou, ICntrl=  3107 FMM=F I1Cent=   0 AccDes= 0.00D+00.
 CoulSu:  requested number of processors reduced to:  23 ShMem   1 Linda.
 G2DrvN:  IPasSy=1 do centers   22 through   22.
 Calling FoFCou, ICntrl=  3107 FMM=F I1Cent=   0 AccDes= 0.00D+00.
 CoulSu:  requested number of processors reduced to:  23 ShMem   1 Linda.
 G2DrvN:  IPasSy=1 do centers   23 through   23.
 Calling FoFCou, ICntrl=  3107 FMM=F I1Cent=   0 AccDes= 0.00D+00.
 CoulSu:  requested number of processors reduced to:  23 ShMem   1 Linda.
 G2DrvN:  IPasSy=1 do centers   24 through   24.
 Calling FoFCou, ICntrl=  3107 FMM=F I1Cent=   0 AccDes= 0.00D+00.
 CoulSu:  requested number of processors reduced to:  23 ShMem   1 Linda.
 G2DrvN:  IPasSy=1 do centers   25 through   25.
 Calling FoFCou, ICntrl=  3107 FMM=F I1Cent=   0 AccDes= 0.00D+00.
 CoulSu:  requested number of processors reduced to:  23 ShMem   1 Linda.
 G2DrvN:  IPasSy=1 do centers   26 through   26.
 Calling FoFCou, ICntrl=  3107 FMM=F I1Cent=   0 AccDes= 0.00D+00.
 CoulSu:  requested number of processors reduced to:  23 ShMem   1 Linda.
 G2DrvN:  IPasSy=1 do centers   27 through   27.
 Calling FoFCou, ICntrl=  3107 FMM=F I1Cent=   0 AccDes= 0.00D+00.
 CoulSu:  requested number of processors reduced to:  23 ShMem   1 Linda.
 G2DrvN:  IPasSy=1 do centers   28 through   28.
 Calling FoFCou, ICntrl=  3107 FMM=F I1Cent=   0 AccDes= 0.00D+00.
 CoulSu:  requested number of processors reduced to:  23 ShMem   1 Linda.
 G2DrvN:  IPasSy=1 do centers   29 through   29.
 Calling FoFCou, ICntrl=  3107 FMM=F I1Cent=   0 AccDes= 0.00D+00.
 CoulSu:  requested number of processors reduced to:  23 ShMem   1 Linda.
 NEqPCM:  Using equilibrium solvation (IEInf=0, Eps=   2.2706, EpsInf=   2.2533)
 G2PCM: DoFxE=T DoFxN=T DoGrad=T DoDP/DQ/DG/TGxP=FFFF NFrqRd=   0 IEInf=0 SqF1=F DoCFld=F IF1Alg=4.
 GePol: Maximum number of non-zero 1st derivatives   =     244
 CoulSu:  requested number of processors reduced to:  13 ShMem   1 Linda.
 CoulSu:  requested number of processors reduced to:  13 ShMem   1 Linda.
 CoulSu:  requested number of processors reduced to:  13 ShMem   1 Linda.
 CoulSu:  requested number of processors reduced to:  18 ShMem   1 Linda.
 CoulSu:  requested number of processors reduced to:  14 ShMem   1 Linda.
 CoulSu:  requested number of processors reduced to:  18 ShMem   1 Linda.
 CoulSu:  requested number of processors reduced to:  18 ShMem   1 Linda.
 CoulSu:  requested number of processors reduced to:  14 ShMem   1 Linda.
 CoulSu:  requested number of processors reduced to:  18 ShMem   1 Linda.
 CoulSu:  requested number of processors reduced to:  18 ShMem   1 Linda.
 CoulSu:  requested number of processors reduced to:  14 ShMem   1 Linda.
 CoulSu:  requested number of processors reduced to:  18 ShMem   1 Linda.
 CoulSu:  requested number of processors reduced to:  18 ShMem   1 Linda.
 CoulSu:  requested number of processors reduced to:  14 ShMem   1 Linda.
 CoulSu:  requested number of processors reduced to:  18 ShMem   1 Linda.
 CoulSu:  requested number of processors reduced to:  18 ShMem   1 Linda.
 CoulSu:  requested number of processors reduced to:  14 ShMem   1 Linda.
 CoulSu:  requested number of processors reduced to:  18 ShMem   1 Linda.
 CoulSu:  requested number of processors reduced to:  19 ShMem   1 Linda.
 CoulSu:  requested number of processors reduced to:  15 ShMem   1 Linda.
 CoulSu:  requested number of processors reduced to:  20 ShMem   1 Linda.
 CoulSu:  requested number of processors reduced to:  12 ShMem   1 Linda.
 CoulSu:  requested number of processors reduced to:  13 ShMem   1 Linda.
 CoulSu:  requested number of processors reduced to:  12 ShMem   1 Linda.
 CoulSu:  requested number of processors reduced to:  13 ShMem   1 Linda.
 End of G2Drv F.D. properties file   721 does not exist.
 End of G2Drv F.D. properties file   722 does not exist.
 End of G2Drv F.D. properties file   788 does not exist.
 Leave Link 1110 at Sat Nov  9 01:46:40 2019, MaxMem=   104857600 cpu:            8255.0 elap:             352.0
 (Enter /share/home/wli/program/opt/Chem_soft/g16/l1002.exe)
 Minotr:  Closed shell wavefunction.
          IDoAtm=11111111111111111111111111111
 NEqPCM:  Using equilibrium solvation (IEInf=0, Eps=   2.2706, EpsInf=   2.2533)
          Direct CPHF calculation.
          Differentiating once with respect to nuclear coordinates.
          Requested convergence is 1.0D-08 RMS, and 1.0D-07 maximum.
          Secondary convergence is 1.0D-12 RMS, and 1.0D-12 maximum.
          NewPWx=T KeepS1=F KeepF1=F KeepIn=T MapXYZ=F SortEE=F KeepMc=T.
 Defaulting to unpruned grid for atomic number  78.
         8720 words used for storage of precomputed grid.
 Two-electron integrals replicated using symmetry.
          MDV=     104857600 using IRadAn=       1.
          Solving linear equations simultaneously, MaxMat=     384.
 FoF2E skips out because all densities are zero.
 CalDSu exits because no D1Ps are significant.
 FoFJK:  IHMeth= 1 ICntrl=       0 DoSepK=F KAlg= 0 I1Cent=           0 FoldK=F
 IRaf= 840000000 NMat=       6 IRICut=       1 DoRegI=T DoRafI=F ISym2E= 2 IDoP0=0 IntGTp=1.
 Defaulting to unpruned grid for atomic number  78.
 Defaulting to unpruned grid for atomic number  78.
 Defaulting to unpruned grid for atomic number  78.
 Defaulting to unpruned grid for atomic number  78.
 Defaulting to unpruned grid for atomic number  78.
 Defaulting to unpruned grid for atomic number  78.
 Defaulting to unpruned grid for atomic number  78.
 Defaulting to unpruned grid for atomic number  78.
 Defaulting to unpruned grid for atomic number  78.
 Defaulting to unpruned grid for atomic number  78.
 Defaulting to unpruned grid for atomic number  78.
 Defaulting to unpruned grid for atomic number  78.
 Defaulting to unpruned grid for atomic number  78.
 Defaulting to unpruned grid for atomic number  78.
 Defaulting to unpruned grid for atomic number  78.
 Defaulting to unpruned grid for atomic number  78.
 Defaulting to unpruned grid for atomic number  78.
 Defaulting to unpruned grid for atomic number  78.
 Defaulting to unpruned grid for atomic number  78.
 Defaulting to unpruned grid for atomic number  78.
 Defaulting to unpruned grid for atomic number  78.
 Defaulting to unpruned grid for atomic number  78.
 Defaulting to unpruned grid for atomic number  78.
 Defaulting to unpruned grid for atomic number  78.
          There are    90 degrees of freedom in the 1st order CPHF.  IDoFFX=6 NUNeed=     0.
     87 vectors produced by pass  0 Test12= 2.13D-14 1.11D-09 XBig12= 9.80D-02 1.13D-01.
 AX will form     6 AO Fock derivatives at one time.
     86 vectors produced by pass  1 Test12= 2.13D-14 1.11D-09 XBig12= 2.46D-02 3.41D-02.
     84 vectors produced by pass  2 Test12= 2.13D-14 1.11D-09 XBig12= 3.48D-04 7.01D-03.
     84 vectors produced by pass  3 Test12= 2.13D-14 1.11D-09 XBig12= 5.23D-06 6.49D-04.
     84 vectors produced by pass  4 Test12= 2.13D-14 1.11D-09 XBig12= 9.20D-08 3.85D-05.
     84 vectors produced by pass  5 Test12= 2.13D-14 1.11D-09 XBig12= 2.08D-10 2.67D-06.
     35 vectors produced by pass  6 Test12= 2.13D-14 1.11D-09 XBig12= 2.90D-13 6.60D-08.
      6 vectors produced by pass  7 Test12= 2.13D-14 1.11D-09 XBig12= 5.33D-16 3.35D-09.
 InvSVY:  IOpt=1 It=  1 EMax= 5.00D-16
 Solved reduced A of dimension   550 with    90 vectors.
 End of Minotr F.D. properties file   721 does not exist.
 End of Minotr F.D. properties file   722 does not exist.
 End of Minotr F.D. properties file   788 does not exist.
 Leave Link 1002 at Sat Nov  9 01:59:46 2019, MaxMem=   104857600 cpu:           18853.0 elap:             786.5
 (Enter /share/home/wli/program/opt/Chem_soft/g16/l601.exe)
 Copying SCF densities to generalized density rwf, IOpCl= 0 IROHF=0.

 **********************************************************************

            Population analysis using the SCF density.

 **********************************************************************

 Orbital symmetries:
       Occupied  (A) (A) (A) (A) (A) (A) (A) (A) (A) (A) (A) (A)
                 (A) (A) (A) (A) (A) (A) (A) (A) (A) (A) (A) (A)
                 (A) (A) (A) (A) (A) (A) (A) (A) (A) (A) (A) (A)
                 (A) (A) (A) (A) (A) (A) (A) (A) (A) (A) (A) (A)
                 (A) (A) (A) (A)
       Virtual   (A) (A) (A) (A) (A) (A) (A) (A) (A) (A) (A) (A)
                 (A) (A) (A) (A) (A) (A) (A) (A) (A) (A) (A) (A)
                 (A) (A) (A) (A) (A) (A) (A) (A) (A) (A) (A) (A)
                 (A) (A) (A) (A) (A) (A) (A) (A) (A) (A) (A) (A)
                 (A) (A) (A) (A) (A) (A) (A) (A) (A) (A) (A) (A)
                 (A) (A) (A) (A) (A) (A) (A) (A) (A) (A) (A) (A)
                 (A) (A) (A) (A) (A) (A) (A) (A) (A) (A) (A) (A)
                 (A) (A) (A) (A) (A) (A) (A) (A) (A) (A) (A) (A)
                 (A) (A) (A) (A) (A) (A) (A) (A) (A) (A) (A) (A)
                 (A) (A) (A) (A) (A) (A) (A) (A) (A) (A) (A) (A)
                 (A) (A) (A) (A) (A) (A) (A) (A) (A) (A) (A) (A)
                 (A) (A) (A) (A) (A) (A) (A) (A) (A) (A) (A) (A)
                 (A) (A) (A) (A) (A) (A) (A) (A) (A) (A) (A) (A)
                 (A) (A) (A) (A) (A) (A) (A) (A) (A) (A) (A) (A)
                 (A) (A) (A) (A) (A) (A) (A) (A) (A) (A) (A) (A)
                 (A) (A) (A) (A) (A) (A) (A) (A) (A) (A) (A) (A)
                 (A) (A) (A) (A) (A) (A) (A) (A) (A) (A) (A) (A)
                 (A) (A) (A) (A) (A) (A) (A) (A) (A) (A) (A) (A)
                 (A) (A) (A) (A) (A) (A) (A) (A) (A) (A) (A) (A)
                 (A) (A) (A) (A) (A) (A) (A) (A) (A) (A) (A) (A)
                 (A) (A) (A) (A) (A) (A) (A) (A) (A) (A) (A) (A)
                 (A) (A) (A) (A) (A) (A) (A) (A) (A) (A) (A) (A)
                 (A) (A) (A) (A) (A) (A) (A) (A) (A) (A) (A) (A)
                 (A) (A) (A) (A) (A) (A) (A) (A) (A) (A) (A) (A)
                 (A) (A) (A) (A) (A) (A) (A) (A) (A) (A) (A) (A)
                 (A) (A) (A) (A) (A) (A) (A) (A) (A) (A) (A) (A)
                 (A) (A) (A) (A) (A) (A) (A) (A) (A) (A) (A) (A)
                 (A) (A) (A) (A) (A) (A) (A) (A) (A) (A) (A) (A)
                 (A) (A) (A) (A) (A) (A) (A) (A) (A) (A) (A) (A)
                 (A) (A) (A) (A) (A) (A) (A) (A) (A) (A) (A) (A)
                 (A) (A) (A) (A) (A) (A) (A) (A)
 The electronic state is 1-A.
 Alpha  occ. eigenvalues --  -77.21277 -77.21277 -10.20837 -10.20833 -10.20808
 Alpha  occ. eigenvalues --  -10.20807 -10.20804 -10.20801  -6.60554  -6.60554
 Alpha  occ. eigenvalues --   -4.74164  -4.74163  -4.74156  -4.74156  -4.73833
 Alpha  occ. eigenvalues --   -4.73832  -3.88201  -2.13272  -2.11181  -2.10628
 Alpha  occ. eigenvalues --   -0.78561  -0.78392  -0.70602  -0.70595  -0.70543
 Alpha  occ. eigenvalues --   -0.70541  -0.55921  -0.54599  -0.46146  -0.44815
 Alpha  occ. eigenvalues --   -0.44736  -0.43507  -0.43487  -0.43463  -0.43427
 Alpha  occ. eigenvalues --   -0.40805  -0.40795  -0.40760  -0.40677  -0.39053
 Alpha  occ. eigenvalues --   -0.39030  -0.35573  -0.34281  -0.34098  -0.33964
 Alpha  occ. eigenvalues --   -0.33684  -0.28543  -0.23408  -0.21058  -0.20706
 Alpha  occ. eigenvalues --   -0.20420  -0.18389
 Alpha virt. eigenvalues --   -0.00300   0.03651   0.04137   0.04968   0.07313
 Alpha virt. eigenvalues --    0.07706   0.09016   0.09347   0.09534   0.09590
 Alpha virt. eigenvalues --    0.09998   0.10457   0.10767   0.11402   0.11467
 Alpha virt. eigenvalues --    0.13059   0.13974   0.14532   0.14641   0.14973
 Alpha virt. eigenvalues --    0.15175   0.15212   0.15326   0.15447   0.15991
 Alpha virt. eigenvalues --    0.16445   0.17208   0.17564   0.18513   0.20906
 Alpha virt. eigenvalues --    0.20982   0.21354   0.21817   0.24919   0.25495
 Alpha virt. eigenvalues --    0.25805   0.26200   0.26515   0.26706   0.28249
 Alpha virt. eigenvalues --    0.29322   0.29580   0.30285   0.31232   0.31249
 Alpha virt. eigenvalues --    0.35314   0.35861   0.36132   0.36732   0.37140
 Alpha virt. eigenvalues --    0.38410   0.39546   0.39695   0.40112   0.40145
 Alpha virt. eigenvalues --    0.40687   0.41689   0.41922   0.42033   0.42882
 Alpha virt. eigenvalues --    0.44390   0.45067   0.45851   0.46538   0.46781
 Alpha virt. eigenvalues --    0.47226   0.47382   0.47535   0.47657   0.48020
 Alpha virt. eigenvalues --    0.49537   0.49699   0.50218   0.50431   0.52528
 Alpha virt. eigenvalues --    0.52696   0.53036   0.54237   0.55062   0.56413
 Alpha virt. eigenvalues --    0.56947   0.58754   0.59513   0.61714   0.64378
 Alpha virt. eigenvalues --    0.65226   0.68723   0.69006   0.69441   0.70701
 Alpha virt. eigenvalues --    0.70935   0.71899   0.72218   0.73953   0.74972
 Alpha virt. eigenvalues --    0.75815   0.76321   0.76538   0.76722   0.77459
 Alpha virt. eigenvalues --    0.81766   0.82367   0.82534   0.86253   0.88029
 Alpha virt. eigenvalues --    0.88547   0.91064   0.91233   0.91822   0.91984
 Alpha virt. eigenvalues --    0.94161   0.95571   0.96012   0.99641   1.00232
 Alpha virt. eigenvalues --    1.01136   1.02102   1.04659   1.04924   1.05724
 Alpha virt. eigenvalues --    1.06978   1.07301   1.07466   1.07718   1.08388
 Alpha virt. eigenvalues --    1.09219   1.09361   1.10331   1.11425   1.22310
 Alpha virt. eigenvalues --    1.25110   1.26488   1.30539   1.32452   1.33588
 Alpha virt. eigenvalues --    1.37064   1.37367   1.41361   1.42114   1.44047
 Alpha virt. eigenvalues --    1.44191   1.44376   1.45998   1.48733   1.51168
 Alpha virt. eigenvalues --    1.51420   1.51918   1.52091   1.53093   1.53334
 Alpha virt. eigenvalues --    1.53434   1.53536   1.53966   1.55177   1.55335
 Alpha virt. eigenvalues --    1.55386   1.55903   1.56023   1.57166   1.57656
 Alpha virt. eigenvalues --    1.58594   1.58926   1.59798   1.60049   1.60233
 Alpha virt. eigenvalues --    1.61006   1.61777   1.62041   1.62137   1.62761
 Alpha virt. eigenvalues --    1.62808   1.63836   1.64162   1.64402   1.64762
 Alpha virt. eigenvalues --    1.65174   1.66566   1.66852   1.67379   1.68076
 Alpha virt. eigenvalues --    1.69181   1.69291   1.69396   1.70988   1.74043
 Alpha virt. eigenvalues --    1.78719   1.84072   1.86969   1.87060   1.87891
 Alpha virt. eigenvalues --    1.88754   1.93054   1.93407   1.93489   1.94508
 Alpha virt. eigenvalues --    1.96321   1.98153   1.98997   2.01733   2.03631
 Alpha virt. eigenvalues --    2.03763   2.04004   2.04042   2.04274   2.07624
 Alpha virt. eigenvalues --    2.08358   2.08451   2.08576   2.08981   2.09325
 Alpha virt. eigenvalues --    2.11223   2.11669   2.11846   2.15641   2.17081
 Alpha virt. eigenvalues --    2.19481   2.20547   2.21215   2.21755   2.28642
 Alpha virt. eigenvalues --    2.29546   2.31180   2.31232   2.31792   2.33080
 Alpha virt. eigenvalues --    2.33636   2.34313   2.34665   2.35653   2.37449
 Alpha virt. eigenvalues --    2.37680   2.40120   2.40636   2.40742   2.42423
 Alpha virt. eigenvalues --    2.42921   2.44501   2.47911   2.48686   2.50541
 Alpha virt. eigenvalues --    2.50968   2.52259   2.52371   2.55358   2.55451
 Alpha virt. eigenvalues --    2.55473   2.55946   2.59473   2.59625   2.59665
 Alpha virt. eigenvalues --    2.61904   2.62003   2.62249   2.63584   2.64418
 Alpha virt. eigenvalues --    2.64938   2.66251   2.66705   2.67813   2.68522
 Alpha virt. eigenvalues --    2.70376   2.75160   2.78526   2.78661   2.78896
 Alpha virt. eigenvalues --    2.84872   2.85614   2.85739   2.87285   2.89803
 Alpha virt. eigenvalues --    2.91002   2.95019   2.95379   2.97372   2.97755
 Alpha virt. eigenvalues --    2.99999   3.10203   3.10392   3.11468   3.14007
 Alpha virt. eigenvalues --    3.14102   3.14518   3.18386   3.18574   3.19538
 Alpha virt. eigenvalues --    3.20210   3.20474   3.21443   3.23489   3.23545
 Alpha virt. eigenvalues --    3.29615   3.29999   3.30195   3.31077   3.32880
 Alpha virt. eigenvalues --    3.32933   3.35190   3.36370   3.36394   3.37013
 Alpha virt. eigenvalues --    3.37234   3.38024   3.38074   3.48737   3.49069
 Alpha virt. eigenvalues --    3.49220   3.49808   3.50327   3.50519   3.54357
 Alpha virt. eigenvalues --    3.54414   3.54529   3.55165   3.55365   3.56413
 Alpha virt. eigenvalues --    3.59900   3.60170   3.60860   3.61404   3.62292
 Alpha virt. eigenvalues --    3.62834   3.63749   3.63999   3.64196   3.64466
 Alpha virt. eigenvalues --    3.72523   3.72649   3.72842   3.73116   3.80547
 Alpha virt. eigenvalues --    3.80598   4.25671   4.25894   4.27622   4.27750
 Alpha virt. eigenvalues --    4.28148   4.28240   4.28356   4.28499   4.33172
 Alpha virt. eigenvalues --    4.33461   4.33524   4.34878   4.39743   4.40193
 Alpha virt. eigenvalues --    4.45799   4.45974   4.46121   4.46504   7.77458
 Alpha virt. eigenvalues --    7.80892   7.81619   7.81791   7.83322   7.87249
 Alpha virt. eigenvalues --   15.50062  15.52047  22.35612  22.36816  22.37943
 Alpha virt. eigenvalues --   22.38239  22.38342  22.38658  27.18281  29.03926
 Alpha virt. eigenvalues --   34.42976  52.13963 285.01125
          Condensed to atoms (all electrons):
               1          2          3          4          5          6
     1  Pt  17.821000   0.384655   0.384429  -0.042813  -0.000400   0.008392
     2  P    0.384655  13.760866  -0.046378   0.341692  -0.024029  -0.033451
     3  P    0.384429  -0.046378  13.761637   0.000528  -0.000007  -0.000045
     4  C   -0.042813   0.341692   0.000528   5.046480   0.392722   0.382113
     5  H   -0.000400  -0.024029  -0.000007   0.392722   0.509110  -0.022120
     6  H    0.008392  -0.033451  -0.000045   0.382113  -0.022120   0.552060
     7  H   -0.000066  -0.024888   0.000158   0.393221  -0.013391  -0.021155
     8  C   -0.030973   0.326730   0.001499  -0.042057  -0.000286  -0.005636
     9  H   -0.000350  -0.024458  -0.000063   0.005647  -0.000147  -0.000162
    10  H    0.005534  -0.031950  -0.000062  -0.005216  -0.000209   0.005878
    11  H   -0.000522  -0.024261  -0.000065  -0.000518   0.001461  -0.000407
    12  C   -0.047673   0.342164   0.000214  -0.038503   0.005455  -0.006167
    13  H    0.000723  -0.025077   0.000279  -0.000044  -0.000135  -0.000173
    14  H    0.008615  -0.033332  -0.000035  -0.006221  -0.000175   0.006173
    15  H    0.000109  -0.024072   0.000012   0.005413  -0.000161  -0.000165
    16  C   -0.048704   0.000122   0.342773  -0.000101   0.000031   0.000001
    17  H    0.000777   0.000291  -0.025136  -0.000059  -0.000006   0.000002
    18  H    0.008656  -0.000033  -0.033311   0.000002  -0.000000   0.000000
    19  H    0.000212   0.000018  -0.024117   0.000039  -0.000005  -0.000000
    20  C   -0.030898   0.001506   0.326727  -0.000035  -0.000000   0.000001
    21  H    0.005555  -0.000062  -0.031969   0.000001   0.000000  -0.000000
    22  H   -0.000592  -0.000066  -0.024174   0.000000   0.000000  -0.000000
    23  H   -0.000352  -0.000063  -0.024514   0.000003  -0.000000  -0.000000
    24  C   -0.041733   0.000610   0.340741   0.000074  -0.000004  -0.000001
    25  H   -0.000472  -0.000014  -0.023945  -0.000003   0.000000   0.000000
    26  H    0.008307  -0.000047  -0.033412  -0.000001   0.000000   0.000000
[...]
 Alpha virt. eigenvalues --    1.09237   1.09410   1.10429   1.11506   1.22710
 Alpha virt. eigenvalues --    1.25284   1.26479   1.30616   1.32532   1.33797
 Alpha virt. eigenvalues --    1.36815   1.37330   1.41397   1.42204   1.44121
 Alpha virt. eigenvalues --    1.44166   1.44598   1.46050   1.48768   1.51151
 Alpha virt. eigenvalues --    1.51451   1.52027   1.52133   1.53067   1.53343
 Alpha virt. eigenvalues --    1.53384   1.53494   1.54076   1.55260   1.55410
 Alpha virt. eigenvalues --    1.55412   1.55844   1.56062   1.57140   1.57657
 Alpha virt. eigenvalues --    1.58646   1.59044   1.59935   1.60174   1.60292
 Alpha virt. eigenvalues --    1.61054   1.61789   1.62214   1.62250   1.62799
 Alpha virt. eigenvalues --    1.62823   1.63884   1.64095   1.64479   1.64926
 Alpha virt. eigenvalues --    1.65252   1.66785   1.66921   1.67451   1.68285
 Alpha virt. eigenvalues --    1.69326   1.69414   1.69574   1.71042   1.73652
 Alpha virt. eigenvalues --    1.79061   1.84370   1.86937   1.87012   1.87834
 Alpha virt. eigenvalues --    1.88743   1.93308   1.93508   1.93796   1.94292
 Alpha virt. eigenvalues --    1.96512   1.98305   1.98921   2.01724   2.03777
 Alpha virt. eigenvalues --    2.03850   2.04160   2.04191   2.04367   2.07718
 Alpha virt. eigenvalues --    2.08487   2.08586   2.08718   2.09093   2.09365
 Alpha virt. eigenvalues --    2.11304   2.11677   2.11859   2.15844   2.17366
 Alpha virt. eigenvalues --    2.19509   2.20677   2.21118   2.22193   2.28619
 Alpha virt. eigenvalues --    2.29556   2.31219   2.31246   2.31867   2.33267
 Alpha virt. eigenvalues --    2.33742   2.34347   2.34741   2.35723   2.37380
 Alpha virt. eigenvalues --    2.37618   2.40242   2.40601   2.40820   2.42381
 Alpha virt. eigenvalues --    2.42908   2.44509   2.47622   2.48788   2.50720
 Alpha virt. eigenvalues --    2.51032   2.52365   2.52474   2.55414   2.55520
 Alpha virt. eigenvalues --    2.55552   2.56029   2.59522   2.59691   2.59898
 Alpha virt. eigenvalues --    2.61971   2.62030   2.62343   2.63632   2.64478
 Alpha virt. eigenvalues --    2.64983   2.66447   2.66908   2.68061   2.68743
 Alpha virt. eigenvalues --    2.70565   2.75499   2.77783   2.79084   2.79340
 Alpha virt. eigenvalues --    2.84998   2.85748   2.85889   2.87352   2.89786
 Alpha virt. eigenvalues --    2.91024   2.94979   2.95568   2.97263   2.97654
 Alpha virt. eigenvalues --    2.99967   3.10279   3.10493   3.11463   3.14067
 Alpha virt. eigenvalues --    3.14203   3.14524   3.18551   3.18772   3.19625
 Alpha virt. eigenvalues --    3.20311   3.20593   3.21583   3.23484   3.23542
 Alpha virt. eigenvalues --    3.29692   3.30087   3.30286   3.31185   3.33164
 Alpha virt. eigenvalues --    3.33257   3.34835   3.36500   3.36526   3.37156
 Alpha virt. eigenvalues --    3.37382   3.38163   3.38202   3.48856   3.49164
 Alpha virt. eigenvalues --    3.49220   3.49769   3.50294   3.50638   3.54483
 Alpha virt. eigenvalues --    3.54520   3.54696   3.55338   3.55513   3.56624
 Alpha virt. eigenvalues --    3.60024   3.60319   3.60939   3.61579   3.62481
 Alpha virt. eigenvalues --    3.63016   3.63984   3.64176   3.64412   3.64685
 Alpha virt. eigenvalues --    3.72614   3.72713   3.72898   3.73196   3.80602
 Alpha virt. eigenvalues --    3.80660   4.25724   4.25926   4.27592   4.27725
 Alpha virt. eigenvalues --    4.28117   4.28194   4.28309   4.28538   4.33215
 Alpha virt. eigenvalues --    4.33514   4.33523   4.34955   4.39938   4.40410
 Alpha virt. eigenvalues --    4.46025   4.46165   4.46365   4.46687   7.77560
 Alpha virt. eigenvalues --    7.81304   7.81821   7.82052   7.83520   7.87550
 Alpha virt. eigenvalues --   15.51860  15.53817  22.35786  22.36974  22.38022
 Alpha virt. eigenvalues --   22.38261  22.38467  22.38727  27.20250  29.01648
 Alpha virt. eigenvalues --   34.48945  52.14283 285.01305
          Condensed to atoms (all electrons):
               1          2          3          4          5          6
     1  Pt  17.823485   0.386874   0.386936  -0.043481  -0.000394   0.008520
     2  P    0.386874  13.761352  -0.047121   0.341774  -0.024172  -0.033673
     3  P    0.386936  -0.047121  13.761266   0.000543  -0.000006  -0.000047
     4  C   -0.043481   0.341774   0.000543   5.046133   0.392808   0.381963
     5  H   -0.000394  -0.024172  -0.000006   0.392808   0.509035  -0.022067
     6  H    0.008520  -0.033673  -0.000047   0.381963  -0.022067   0.552334
     7  H   -0.000028  -0.025083   0.000175   0.393260  -0.013354  -0.021128
     8  C   -0.031034   0.326280   0.001534  -0.041730  -0.000288  -0.005677
     9  H   -0.000448  -0.024669  -0.000064   0.005681  -0.000148  -0.000167
    10  H    0.005642  -0.032133  -0.000064  -0.005282  -0.000214   0.005951
    11  H   -0.000590  -0.024483  -0.000065  -0.000499   0.001464  -0.000419
    12  C   -0.047669   0.342818   0.000260  -0.038834   0.005486  -0.006121
    13  H    0.000531  -0.025232   0.000268  -0.000000  -0.000137  -0.000187
    14  H    0.008741  -0.033604  -0.000039  -0.006165  -0.000177   0.006212
    15  H    0.000006  -0.024256   0.000012   0.005457  -0.000163  -0.000171
    16  C   -0.047622   0.000263   0.342806  -0.000120   0.000034   0.000002
    17  H    0.000526   0.000268  -0.025233  -0.000053  -0.000007   0.000002
    18  H    0.008739  -0.000039  -0.033606   0.000003  -0.000000   0.000000
    19  H    0.000000   0.000012  -0.024256   0.000039  -0.000005  -0.000000
    20  C   -0.031048   0.001534   0.326283  -0.000033  -0.000000   0.000001
    21  H    0.005642  -0.000064  -0.032131   0.000001   0.000000  -0.000000
    22  H   -0.000586  -0.000065  -0.024489   0.000000   0.000000  -0.000000
    23  H   -0.000448  -0.000064  -0.024669   0.000003  -0.000000  -0.000000
    24  C   -0.043514   0.000541   0.341793   0.000079  -0.000004  -0.000001
    25  H   -0.000388  -0.000006  -0.024173  -0.000004   0.000000   0.000000
    26  H    0.008522  -0.000047  -0.033678  -0.000001   0.000000   0.000000
    27  H   -0.000025   0.000175  -0.025084  -0.000027   0.000000   0.000000
    28  H   -0.033218  -0.016384   0.007333   0.000426   0.000005  -0.000029
    29  H   -0.033324   0.007324  -0.016378   0.000655  -0.000011  -0.000041
               7          8          9         10         11         12
     1  Pt  -0.000028  -0.031034  -0.000448   0.005642  -0.000590  -0.047669
     2  P   -0.025083   0.326280  -0.024669  -0.032133  -0.024483   0.342818
     3  P    0.000175   0.001534  -0.000064  -0.000064  -0.000065   0.000260
     4  C    0.393260  -0.041730   0.005681  -0.005282  -0.000499  -0.038834
     5  H   -0.013354  -0.000288  -0.000148  -0.000214   0.001464   0.005486
     6  H   -0.021128  -0.005677  -0.000167   0.005951  -0.000419  -0.006121
     7  H    0.505797   0.005765  -0.000174  -0.000161  -0.000157   0.000071
     8  C    0.005765   5.076588   0.391321   0.380714   0.390573  -0.042767
     9  H   -0.000174   0.391321   0.512025  -0.020110  -0.015159  -0.000388
    10  H   -0.000161   0.380714  -0.020110   0.550701  -0.020052  -0.005103
    11  H   -0.000157   0.390573  -0.015159  -0.020052   0.513145   0.005774
    12  C    0.000071  -0.042767  -0.000388  -0.005103   0.005774   5.049639
    13  H    0.001486   0.005828  -0.000159  -0.000162  -0.000180   0.392849
    14  H   -0.000197  -0.005534  -0.000425   0.005864  -0.000183   0.381107
    15  H   -0.000138  -0.000174   0.001412  -0.000235  -0.000147   0.392652
    16  C   -0.000025  -0.000025   0.000000   0.000000   0.000002   0.000103
    17  H    0.000148   0.000004  -0.000000   0.000000  -0.000000  -0.000044
    18  H    0.000002   0.000001  -0.000000  -0.000000  -0.000000  -0.000002
    19  H   -0.000011  -0.000001   0.000000   0.000000  -0.000000  -0.000005
    20  C    0.000003  -0.000009  -0.000001   0.000000  -0.000000  -0.000025
    21  H    0.000000   0.000000  -0.000000  -0.000000  -0.000000   0.000000
    22  H   -0.000000  -0.000000   0.000000  -0.000000   0.000000   0.000002
    23  H   -0.000000  -0.000001   0.000000  -0.000000   0.000000   0.000000
    24  C   -0.000027  -0.000033   0.000003   0.000001   0.000000  -0.000120
    25  H    0.000000  -0.000000  -0.000000   0.000000   0.000000   0.000034
    26  H    0.000000   0.000001  -0.000000  -0.000000  -0.000000   0.000002
    27  H    0.000007   0.000003  -0.000000   0.000000  -0.000000  -0.000025
    28  H   -0.000009  -0.000550   0.000153  -0.000093   0.000151   0.000375
    29  H   -0.000030  -0.007953   0.001105   0.000300   0.001324   0.000764
              13         14         15         16         17         18
     1  Pt   0.000531   0.008741   0.000006  -0.047622   0.000526   0.008739
     2  P   -0.025232  -0.033604  -0.024256   0.000263   0.000268  -0.000039
     3  P    0.000268  -0.000039   0.000012   0.342806  -0.025233  -0.033606
     4  C   -0.000000  -0.006165   0.005457  -0.000120  -0.000053   0.000003
     5  H   -0.000137  -0.000177  -0.000163   0.000034  -0.000007  -0.000000
     6  H   -0.000187   0.006212  -0.000171   0.000002   0.000002   0.000000
     7  H    0.001486  -0.000197  -0.000138  -0.000025   0.000148   0.000002
     8  C    0.005828  -0.005534  -0.000174  -0.000025   0.000004   0.000001
     9  H   -0.000159  -0.000425   0.001412   0.000000  -0.000000  -0.000000
    10  H   -0.000162   0.005864  -0.000235   0.000000   0.000000  -0.000000
    11  H   -0.000180  -0.000183  -0.000147   0.000002  -0.000000  -0.000000
    12  C    0.392849   0.381107   0.392652   0.000103  -0.000044  -0.000002
    13  H    0.506413  -0.021011  -0.013407  -0.000044   0.000027   0.000001
    14  H   -0.021011   0.553011  -0.021984  -0.000002   0.000001   0.000000
    15  H   -0.013407  -0.021984   0.508849  -0.000005   0.000000   0.000000
    16  C   -0.000044  -0.000002  -0.000005   5.049612   0.392852   0.381114
    17  H    0.000027   0.000001   0.000000   0.392852   0.506411  -0.021012
    18  H    0.000001   0.000000   0.000000   0.381114  -0.021012   0.553006
    19  H    0.000000   0.000000   0.000000   0.392655  -0.013406  -0.021985
    20  C    0.000004   0.000001  -0.000001  -0.042749   0.005828  -0.005535
    21  H    0.000000  -0.000000   0.000000  -0.005104  -0.000162   0.005865
    22  H   -0.000000  -0.000000  -0.000000   0.005773  -0.000180  -0.000183
    23  H   -0.000000  -0.000000   0.000000  -0.000389  -0.000159  -0.000425
    24  C   -0.000053   0.000003   0.000039  -0.038839  -0.000001  -0.006162
    25  H   -0.000007  -0.000000  -0.000005   0.005486  -0.000137  -0.000176
    26  H    0.000002   0.000000  -0.000000  -0.006120  -0.000187   0.006211
    27  H    0.000148   0.000002  -0.000011   0.000070   0.001486  -0.000197
    28  H   -0.000009  -0.000027   0.000005   0.000763  -0.000032  -0.000044
    29  H   -0.000032  -0.000044  -0.000025   0.000376  -0.000009  -0.000027
              19         20         21         22         23         24
     1  Pt   0.000000  -0.031048   0.005642  -0.000586  -0.000448  -0.043514
     2  P    0.000012   0.001534  -0.000064  -0.000065  -0.000064   0.000541
     3  P   -0.024256   0.326283  -0.032131  -0.024489  -0.024669   0.341793
     4  C    0.000039  -0.000033   0.000001   0.000000   0.000003   0.000079
     5  H   -0.000005  -0.000000   0.000000   0.000000  -0.000000  -0.000004
     6  H   -0.000000   0.000001  -0.000000  -0.000000  -0.000000  -0.000001
     7  H   -0.000011   0.000003   0.000000  -0.000000  -0.000000  -0.000027
     8  C   -0.000001  -0.000009   0.000000  -0.000000  -0.000001  -0.000033
     9  H    0.000000  -0.000001  -0.000000   0.000000   0.000000   0.000003
    10  H    0.000000   0.000000  -0.000000  -0.000000  -0.000000   0.000001
    11  H   -0.000000  -0.000000  -0.000000   0.000000   0.000000   0.000000
    12  C   -0.000005  -0.000025   0.000000   0.000002   0.000000  -0.000120
    13  H    0.000000   0.000004   0.000000  -0.000000  -0.000000  -0.000053
    14  H    0.000000   0.000001  -0.000000  -0.000000  -0.000000   0.000003
    15  H    0.000000  -0.000001   0.000000  -0.000000   0.000000   0.000039
    16  C    0.392655  -0.042749  -0.005104   0.005773  -0.000389  -0.038839
    17  H   -0.013406   0.005828  -0.000162  -0.000180  -0.000159  -0.000001
    18  H   -0.021985  -0.005535   0.005865  -0.000183  -0.000425  -0.006162
    19  H    0.508850  -0.000174  -0.000235  -0.000147   0.001412   0.005457
    20  C   -0.000174   5.076606   0.380714   0.390585   0.391316  -0.041752
    21  H   -0.000235   0.380714   0.550696  -0.020052  -0.020108  -0.005278
    22  H   -0.000147   0.390585  -0.020052   0.513133  -0.015161  -0.000497
    23  H    0.001412   0.391316  -0.020108  -0.015161   0.512040   0.005682
    24  C    0.005457  -0.041752  -0.005278  -0.000497   0.005682   5.046150
    25  H   -0.000163  -0.000286  -0.000214   0.001462  -0.000148   0.392808
    26  H   -0.000171  -0.005674   0.005950  -0.000420  -0.000167   0.381961
    27  H   -0.000138   0.005766  -0.000161  -0.000157  -0.000174   0.393256
    28  H   -0.000025  -0.007960   0.000300   0.001320   0.001107   0.000657
    29  H    0.000005  -0.000552  -0.000093   0.000152   0.000153   0.000425
              25         26         27         28         29
     1  Pt  -0.000388   0.008522  -0.000025  -0.033218  -0.033324
     2  P   -0.000006  -0.000047   0.000175  -0.016384   0.007324
     3  P   -0.024173  -0.033678  -0.025084   0.007333  -0.016378
     4  C   -0.000004  -0.000001  -0.000027   0.000426   0.000655
     5  H    0.000000   0.000000   0.000000   0.000005  -0.000011
     6  H    0.000000   0.000000   0.000000  -0.000029  -0.000041
     7  H    0.000000   0.000000   0.000007  -0.000009  -0.000030
     8  C   -0.000000   0.000001   0.000003  -0.000550  -0.007953
     9  H   -0.000000  -0.000000  -0.000000   0.000153   0.001105
    10  H    0.000000  -0.000000   0.000000  -0.000093   0.000300
    11  H    0.000000  -0.000000  -0.000000   0.000151   0.001324
    12  C    0.000034   0.000002  -0.000025   0.000375   0.000764
    13  H   -0.000007   0.000002   0.000148  -0.000009  -0.000032
    14  H   -0.000000   0.000000   0.000002  -0.000027  -0.000044
    15  H   -0.000005  -0.000000  -0.000011   0.000005  -0.000025
    16  C    0.005486  -0.006120   0.000070   0.000763   0.000376
    17  H   -0.000137  -0.000187   0.001486  -0.000032  -0.000009
    18  H   -0.000176   0.006211  -0.000197  -0.000044  -0.000027
    19  H   -0.000163  -0.000171  -0.000138  -0.000025   0.000005
    20  C   -0.000286  -0.005674   0.005766  -0.007960  -0.000552
    21  H   -0.000214   0.005950  -0.000161   0.000300  -0.000093
    22  H    0.001462  -0.000420  -0.000157   0.001320   0.000152
    23  H   -0.000148  -0.000167  -0.000174   0.001107   0.000153
    24  C    0.392808   0.381961   0.393256   0.000657   0.000425
    25  H    0.509027  -0.022066  -0.013355  -0.000012   0.000005
    26  H   -0.022066   0.552342  -0.021128  -0.000041  -0.000029
    27  H   -0.013355  -0.021128   0.505806  -0.000030  -0.000009
    28  H   -0.000012  -0.000041  -0.000030   0.637715   0.393435
    29  H    0.000005  -0.000029  -0.000009   0.393435   0.637776
 Mulliken charges:
               1
     1  Pt  -0.330348
     2  P    0.141879
     3  P    0.141894
     4  C   -0.432594
     5  H    0.152319
     6  H    0.134744
     7  H    0.153810
     8  C   -0.442836
     9  H    0.150210
    10  H    0.134435
    11  H    0.149502
    12  C   -0.430836
    13  H    0.153064
    14  H    0.134449
    15  H    0.152291
    16  C   -0.430866
    17  H    0.153069
    18  H    0.134452
    19  H    0.152294
    20  C   -0.442840
    21  H    0.134434
    22  H    0.149510
    23  H    0.150200
    24  C   -0.432572
    25  H    0.152320
    26  H    0.134739
    27  H    0.153802
    28  H    0.014717
    29  H    0.014759
 Sum of Mulliken charges =  -0.00000
 Mulliken charges with hydrogens summed into heavy atoms:
               1
     1  Pt  -0.300873
     2  P    0.141879
     3  P    0.141894
     4  C    0.008279
     8  C   -0.008689
    12  C    0.008969
    16  C    0.008948
    20  C   -0.008696
    24  C    0.008289
 Electronic spatial extent (au):  <R**2>=           3183.3624
 Charge=             -0.0000 electrons
 Dipole moment (field-independent basis, Debye):
    X=              0.0003    Y=              1.0502    Z=              0.0003  Tot=              1.0502
 Quadrupole moment (field-independent basis, Debye-Ang):
   XX=            -77.5579   YY=            -91.7820   ZZ=            -92.2735
   XY=             -0.0003   XZ=              0.0373   YZ=             -0.0003
 Traceless Quadrupole moment (field-independent basis, Debye-Ang):
   XX=              9.6466   YY=             -4.5776   ZZ=             -5.0690
   XY=             -0.0003   XZ=              0.0373   YZ=             -0.0003
 Octapole moment (field-independent basis, Debye-Ang**2):
  XXX=              0.0024  YYY=            -37.4578  ZZZ=             -0.0108  XYY=              0.0022
  XXY=             -7.8174  XXZ=              0.0007  XZZ=             -0.0001  YZZ=            -16.4629
  YYZ=              0.0064  XYZ=             -0.1978
 Hexadecapole moment (field-independent basis, Debye-Ang**3):
 XXXX=          -3086.5166 YYYY=           -671.3858 ZZZZ=           -540.0940 XXXY=             -0.0005
 XXXZ=              1.2687 YYYX=             -0.0082 YYYZ=              0.0104 ZZZX=             -1.8076
 ZZZY=             -0.0049 XXYY=           -646.7760 XXZZ=           -623.0812 YYZZ=           -206.4925
 XXYZ=             -0.0116 YYXZ=              1.6433 ZZXY=              0.0033
 N-N= 8.262593614842D+02 E-N=-4.082448873891D+03  KE= 9.608642483310D+02
 No NMR shielding tensors so no spin-rotation constants.
 Leave Link  601 at Sat Nov  9 02:06:18 2019, MaxMem=   104857600 cpu:               6.7 elap:               0.3
 (Enter /share/home/wli/program/opt/Chem_soft/g16/l9999.exe)
 1\1\GINC-C07N04\FTS\RPBE1PBE\def2TZVP\C6H20P2Pt1\ROOT\09-Nov-2019\0\\#
 p opt=(ts,calcfc,noeigen) pbe1pbe/def2tzvp em=gd3bj geom=allcheck scrf
 =(smd,solvent=benzene)\\Title Card Required\\0,1\Pt,-0.000087484,-0.37
 36730556,0.0156970064\P,2.1602409009,0.2325337268,-0.0019436654\P,-2.1
 606660526,0.2317099682,0.0086200397\C,2.6844933,1.2135326036,1.4424907
 414\H,2.5517819794,0.6208721659,2.3498107733\H,3.7319777265,1.51939524
 42,1.3619641783\H,2.0514869572,2.098862228,1.5228167917\C,3.4869864395
 ,-1.0244162697,-0.0738320726\H,3.3616477818,-1.6264624599,-0.976733754
 1\H,4.4847268237,-0.57515867,-0.0788044419\H,3.3982772549,-1.689129119
 8,0.7885852735\C,2.6321346804,1.3175629616,-1.3890117967\H,1.99872065,
 2.2061634594,-1.3792249056\H,3.6829153116,1.6164929646,-1.3268842546\H
 ,2.4626434087,0.7933504292,-2.3316684358\C,-2.6335502408,1.3704561692,
 1.351598175\H,-2.0005321026,2.2582720275,1.3069421373\H,-3.6844412793,
 1.6662169956,1.2773584643\H,-2.4641607713,0.8839612725,2.314281695\C,-
 3.4868653248,-1.0220542239,0.129633501\H,-4.4848172692,-0.5734307297,0
 .1165079475\H,-3.3975325237,-1.7202759458,-0.7058210506\H,-3.361572081
 8,-1.5879048054,1.0556548312\C,-2.6848798937,1.1546624894,-1.473584823
 \H,-2.5513733301,0.5268027035,-2.3567913757\H,-3.7325967938,1.46277383
 72,-1.4056242314\H,-2.0523999631,2.0365524231,-1.588458073\H,-0.388273
 4233,-2.5048777885,0.0643276899\H,0.3889789278,-2.5055228417,0.0541545
 132\\Version=ES64L-G16RevA.03\State=1-A\HF=-1042.3952912\RMSD=5.654e-0
 9\RMSF=1.526e-06\Dipole=0.0000261,0.4131082,-0.0083226\Quadrupole=7.17
 206,-3.4034698,-3.7685903,0.0023806,0.0030643,-0.0076583\PG=C01 [X(C6H
 20P2Pt1)]\\@


 BE NOT THE FIRST BY WHOM THE NEW ARE TRIED,
 NOR YET THE THE LAST TO LAY THE OLD ASIDE.

                          -- ALEXANDER POPE
 Job cpu time:       0 days 10 hours 22 minutes 47.5 seconds.
 Elapsed time:       0 days  0 hours 26 minutes 49.1 seconds.
 File lengths (MBytes):  RWF=   1600 Int=      0 D2E=      0 Chk=     48 Scr=     32
 Normal termination of Gaussian 16 at Sat Nov  9 02:06:18 2019.
