 Entering Gaussian System, Link 0=g16
 Input=Pt_tsb_sp.gjf
 Output=Pt_tsb_sp.log
 Initial command:
 /share/home/wli/program/opt/Chem_soft/g16/l1.exe "/scratch/wli/Gau-27781.inp" -scrdir="/scratch/wli/"
 Entering Link 1 = /share/home/wli/program/opt/Chem_soft/g16/l1.exe PID=     27782.
  
 Copyright (c) 1988,1990,1992,1993,1995,1998,2003,2009,2016,
            Gaussian, Inc.  All Rights Reserved.
  
 This is part of the Gaussian(R) 16 program.  It is based on
 the Gaussian(R) 09 system (copyright 2009, Gaussian, Inc.),
 the Gaussian(R) 03 system (copyright 2003, Gaussian, Inc.),
 the Gaussian(R) 98 system (copyright 1998, Gaussian, Inc.),
 the Gaussian(R) 94 system (copyright 1995, Gaussian, Inc.),
 the Gaussian 92(TM) system (copyright 1992, Gaussian, Inc.),
 the Gaussian 90(TM) system (copyright 1990, Gaussian, Inc.),
 the Gaussian 88(TM) system (copyright 1988, Gaussian, Inc.),
 the Gaussian 86(TM) system (copyright 1986, Carnegie Mellon
 University), and the Gaussian 82(TM) system (copyright 1983,
 Carnegie Mellon University). Gaussian is a federally registered
 trademark of Gaussian, Inc.
  
 This software contains proprietary and confidential information,
 including trade secrets, belonging to Gaussian, Inc.
  
 This software is provided under written license and may be
 used, copied, transmitted, or stored only in accord with that
 written license.
  
 The following legend is applicable only to US Government
 contracts under FAR:
  
                    RESTRICTED RIGHTS LEGEND
  
 Use, reproduction and disclosure by the US Government is
 subject to restrictions as set forth in subparagraphs (a)
 and (c) of the Commercial Computer Software - Restricted
 Rights clause in FAR 52.227-19.
  
 Gaussian, Inc.
 340 Quinnipiac St., Bldg. 40, Wallingford CT 06492
  
  
 ---------------------------------------------------------------
 Warning -- This program may not be used in any manner that
 competes with the business of Gaussian, Inc. or will provide
 assistance to any competitor of Gaussian, Inc.  The licensee
 of this program is prohibited from giving any competitor of
 Gaussian, Inc. access to this program.  By using this program,
 the user acknowledges that Gaussian, Inc. is engaged in the
 business of creating and licensing software in the field of
 computational chemistry and represents and warrants to the
 licensee that it is not a competitor of Gaussian, Inc. and that
 it will not use this program in any manner prohibited above.
 ---------------------------------------------------------------
  

 Cite this work as:
 Gaussian 16, Revision A.03,
 M. J. Frisch, G. W. Trucks, H. B. Schlegel, G. E. Scuseria, 
 M. A. Robb, J. R. Cheeseman, G. Scalmani, V. Barone, 
 G. A. Petersson, H. Nakatsuji, X. Li, M. Caricato, A. V. Marenich, 
 J. Bloino, B. G. Janesko, R. Gomperts, B. Mennucci, H. P. Hratchian, 
 J. V. Ortiz, A. F. Izmaylov, J. L. Sonnenberg, D. Williams-Young, 
 F. Ding, F. Lipparini, F. Egidi, J. Goings, B. Peng, A. Petrone, 
 T. Henderson, D. Ranasinghe, V. G. Zakrzewski, J. Gao, N. Rega, 
 G. Zheng, W. Liang, M. Hada, M. Ehara, K. Toyota, R. Fukuda, 
 J. Hasegawa, M. Ishida, T. Nakajima, Y. Honda, O. Kitao, H. Nakai, 
 T. Vreven, K. Throssell, J. A. Montgomery, Jr., J. E. Peralta, 
 F. Ogliaro, M. J. Bearpark, J. J. Heyd, E. N. Brothers, K. N. Kudin, 
 V. N. Staroverov, T. A. Keith, R. Kobayashi, J. Normand, 
 K. Raghavachari, A. P. Rendell, J. C. Burant, S. S. Iyengar, 
 J. Tomasi, M. Cossi, J. M. Millam, M. Klene, C. Adamo, R. Cammi, 
 J. W. Ochterski, R. L. Martin, K. Morokuma, O. Farkas, 
 J. B. Foresman, and D. J. Fox, Gaussian, Inc., Wallingford CT, 2016.
 
 ******************************************
 Gaussian 16:  ES64L-G16RevA.03 25-Dec-2016
                 9-Nov-2019 
 ******************************************
 %oldchk=Pt_tsb.chk
 %chk=Pt_tsb_sp.chk
 %rwf=/share/home/wli/srwang/ICC/1030/Pt/pbe0/Pt_tsb_sp
 %mem=200gb
 %nprocshared=24
 Will use up to   24 processors via shared memory.
 Copying data from "Pt_tsb.chk" to current chk file "Pt_tsb_sp.chk"
 IOpt=  2 FromEx=T IUOpen= 4 IOptOp= 5 NList=   0 IFRang= 0 IUIn= 4 IUOut= 2.
 ---------------------------------------------------------
 #p dsdpbep86/genecp geom=check scrf=(smd,solvent=benzene)
 ---------------------------------------------------------
 1/29=2,38=1,172=1/1;
 2/12=2,40=1/2;
 3/5=7,11=9,14=-4,16=1,17=8,25=1,30=1,70=32201,72=12,74=-77/1,2,3;
 4//1;
 5/5=2,38=5,53=12/2;
 8/10=1/1;
 9/16=-3/6;
 6/7=2,8=2,9=2,10=2/1;
 99/5=1,9=1/99;
 Leave Link    1 at Sat Nov  9 16:51:32 2019, MaxMem= 26843545600 cpu:               6.3 elap:               0.3
 (Enter /share/home/wli/program/opt/Chem_soft/g16/l101.exe)
 -----
 title
 -----
 Structure from the checkpoint file:  "Pt_tsb_sp.chk"
 Charge =  0 Multiplicity = 1
 Redundant internal coordinates found in file.  (old form).
 Pt,0,-0.000087484,-0.3736730556,0.0156970064
 P,0,2.1602409009,0.2325337268,-0.0019436654
 P,0,-2.1606660526,0.2317099682,0.0086200397
 C,0,2.6844933,1.2135326036,1.4424907414
 H,0,2.5517819794,0.6208721659,2.3498107733
 H,0,3.7319777265,1.5193952442,1.3619641783
 H,0,2.0514869572,2.098862228,1.5228167917
 C,0,3.4869864395,-1.0244162697,-0.0738320726
 H,0,3.3616477818,-1.6264624599,-0.9767337541
 H,0,4.4847268237,-0.57515867,-0.0788044419
 H,0,3.3982772549,-1.6891291198,0.7885852735
 C,0,2.6321346804,1.3175629616,-1.3890117967
 H,0,1.99872065,2.2061634594,-1.3792249056
 H,0,3.6829153116,1.6164929646,-1.3268842546
 H,0,2.4626434087,0.7933504292,-2.3316684358
 C,0,-2.6335502408,1.3704561692,1.351598175
 H,0,-2.0005321026,2.2582720275,1.3069421373
 H,0,-3.6844412793,1.6662169956,1.2773584643
 H,0,-2.4641607713,0.8839612725,2.314281695
 C,0,-3.4868653248,-1.0220542239,0.129633501
 H,0,-4.4848172692,-0.5734307297,0.1165079475
 H,0,-3.3975325237,-1.7202759458,-0.7058210506
 H,0,-3.3615720818,-1.5879048054,1.0556548312
 C,0,-2.6848798937,1.1546624894,-1.473584823
 H,0,-2.5513733301,0.5268027035,-2.3567913757
 H,0,-3.7325967938,1.4627738372,-1.4056242314
 H,0,-2.0523999631,2.0365524231,-1.588458073
 H,0,-0.3882734233,-2.5048777885,0.0643276899
 H,0,0.3889789278,-2.5055228417,0.0541545132
 Recover connectivity data from disk.
 ITRead=  0  0  0  0  0  0  0  0  0  0  0  0  0  0  0  0  0  0  0  0
 ITRead=  0  0  0  0  0  0  0  0  0
 MicOpt= -1 -1 -1 -1 -1 -1 -1 -1 -1 -1 -1 -1 -1 -1 -1 -1 -1 -1 -1 -1
 MicOpt= -1 -1 -1 -1 -1 -1 -1 -1 -1
                           ----------------------------
                           !    Current Parameters    !
                           ! (Angstroms and Degrees)  !
 --------------------------                            --------------------------
 ! Name  Definition              Value                                          !
 --------------------------------------------------------------------------------
 ! R1    R(1,2)                  2.2438                                         !
 ! R2    R(1,3)                  2.2438                                         !
 ! R3    R(1,28)                 2.1668                                         !
 ! R4    R(1,29)                 2.1674                                         !
 ! R5    R(2,4)                  1.8231                                         !
 ! R6    R(2,8)                  1.829                                          !
 ! R7    R(2,12)                 1.8232                                         !
 ! R8    R(3,16)                 1.8232                                         !
 ! R9    R(3,20)                 1.829                                          !
 ! R10   R(3,24)                 1.8231                                         !
 ! R11   R(4,5)                  1.0918                                         !
 ! R12   R(4,6)                  1.0942                                         !
 ! R13   R(4,7)                  1.0913                                         !
 ! R14   R(8,9)                  1.0924                                         !
 ! R15   R(8,10)                 1.0942                                         !
 ! R16   R(8,11)                 1.0925                                         !
 ! R17   R(12,13)                1.0913                                         !
 ! R18   R(12,14)                1.0942                                         !
 ! R19   R(12,15)                1.0918                                         !
 ! R20   R(16,17)                1.0913                                         !
 ! R21   R(16,18)                1.0942                                         !
 ! R22   R(16,19)                1.0918                                         !
 ! R23   R(20,21)                1.0942                                         !
 ! R24   R(20,22)                1.0925                                         !
 ! R25   R(20,23)                1.0924                                         !
 ! R26   R(24,25)                1.0918                                         !
 ! R27   R(24,26)                1.0942                                         !
 ! R28   R(24,27)                1.0913                                         !
 ! R29   R(28,29)                0.7773                                         !
 ! A1    A(2,1,3)              148.6667                                         !
 ! A2    A(2,1,28)             116.0008                                         !
 ! A3    A(2,1,29)              95.3388                                         !
 ! A4    A(3,1,28)              95.3324                                         !
 ! A5    A(3,1,29)             115.9944                                         !
 ! A6    A(1,2,4)              114.5829                                         !
 ! A7    A(1,2,8)              120.8659                                         !
 ! A8    A(1,2,12)             114.5801                                         !
 ! A9    A(4,2,8)              101.0895                                         !
 ! A10   A(4,2,12)             102.0119                                         !
 ! A11   A(8,2,12)             101.0307                                         !
 ! A12   A(1,3,16)             114.5791                                         !
 ! A13   A(1,3,20)             120.8662                                         !
 ! A14   A(1,3,24)             114.5846                                         !
 ! A15   A(16,3,20)            101.0312                                         !
 ! A16   A(16,3,24)            102.0109                                         !
 ! A17   A(20,3,24)            101.0889                                         !
 ! A18   A(2,4,5)              109.3521                                         !
 ! A19   A(2,4,6)              111.5552                                         !
 ! A20   A(2,4,7)              109.1508                                         !
 ! A21   A(5,4,6)              109.2234                                         !
 ! A22   A(5,4,7)              107.9803                                         !
 ! A23   A(6,4,7)              109.5073                                         !
 ! A24   A(2,8,9)              109.147                                          !
 ! A25   A(2,8,10)             112.2992                                         !
 ! A26   A(2,8,11)             109.1604                                         !
 ! A27   A(9,8,10)             109.0946                                         !
 ! A28   A(9,8,11)             107.9283                                         !
 ! A29   A(10,8,11)            109.1135                                         !
 ! A30   A(2,12,13)            109.1196                                         !
 ! A31   A(2,12,14)            111.5885                                         !
 ! A32   A(2,12,15)            109.3254                                         !
 ! A33   A(13,12,14)           109.5372                                         !
 ! A34   A(13,12,15)           107.9738                                         !
 ! A35   A(14,12,15)           109.2231                                         !
 ! A36   A(3,16,17)            109.1196                                         !
 ! A37   A(3,16,18)            111.5889                                         !
 ! A38   A(3,16,19)            109.3255                                         !
 ! A39   A(17,16,18)           109.5369                                         !
 ! A40   A(17,16,19)           107.9737                                         !
 ! A41   A(18,16,19)           109.2231                                         !
 ! A42   A(3,20,21)            112.2996                                         !
 ! A43   A(3,20,22)            109.1607                                         !
 ! A44   A(3,20,23)            109.1464                                         !
 ! A45   A(21,20,22)           109.1134                                         !
 ! A46   A(21,20,23)           109.0948                                         !
 ! A47   A(22,20,23)           107.928                                          !
 ! A48   A(3,24,25)            109.3531                                         !
 ! A49   A(3,24,26)            111.5548                                         !
 ! A50   A(3,24,27)            109.1501                                         !
 ! A51   A(25,24,26)           109.2235                                         !
 ! A52   A(25,24,27)           107.9801                                         !
 ! A53   A(26,24,27)           109.5074                                         !
 ! D1    D(3,1,2,4)             62.1212                                         !
 ! D2    D(3,1,2,8)           -176.5575                                         !
 ! D3    D(3,1,2,12)           -55.3254                                         !
 ! D4    D(28,1,2,4)          -117.7552                                         !
 ! D5    D(28,1,2,8)             3.5662                                         !
 ! D6    D(28,1,2,12)          124.7983                                         !
 ! D7    D(29,1,2,4)          -117.9873                                         !
 ! D8    D(29,1,2,8)             3.3341                                         !
 ! D9    D(29,1,2,12)          124.5662                                         !
 ! D10   D(2,1,3,16)           -55.402                                          !
 ! D11   D(2,1,3,20)          -176.6341                                         !
 ! D12   D(2,1,3,24)            62.0437                                         !
 ! D13   D(28,1,3,16)          124.4864                                         !
 ! D14   D(28,1,3,20)            3.2543                                         !
 ! D15   D(28,1,3,24)         -118.0679                                         !
 ! D16   D(29,1,3,16)          124.7181                                         !
 ! D17   D(29,1,3,20)            3.4861                                         !
 ! D18   D(29,1,3,24)         -117.8362                                         !
 ! D19   D(1,2,4,5)             61.601                                          !
 ! D20   D(1,2,4,6)           -177.4717                                         !
 ! D21   D(1,2,4,7)            -56.3237                                         !
 ! D22   D(8,2,4,5)            -70.0481                                         !
 ! D23   D(8,2,4,6)             50.8791                                         !
 ! D24   D(8,2,4,7)            172.0272                                         !
 ! D25   D(12,2,4,5)          -173.9963                                         !
 ! D26   D(12,2,4,6)           -53.0691                                         !
 ! D27   D(12,2,4,7)            68.0789                                         !
 ! D28   D(1,2,8,9)             58.7119                                         !
 ! D29   D(1,2,8,10)           179.8208                                         !
 ! D30   D(1,2,8,11)           -59.0372                                         !
 ! D31   D(4,2,8,9)           -173.6249                                         !
 ! D32   D(4,2,8,10)           -52.5159                                         !
 ! D33   D(4,2,8,11)            68.626                                          !
 ! D34   D(12,2,8,9)           -68.8942                                         !
 ! D35   D(12,2,8,10)           52.2147                                         !
 ! D36   D(12,2,8,11)          173.3567                                         !
 ! D37   D(1,2,12,13)           56.4264                                         !
 ! D38   D(1,2,12,14)          177.6125                                         !
 ! D39   D(1,2,12,15)          -61.457                                          !
 ! D40   D(4,2,12,13)          -67.9782                                         !
 ! D41   D(4,2,12,14)           53.208                                          !
 ! D42   D(4,2,12,15)          174.1385                                         !
 ! D43   D(8,2,12,13)         -171.9725                                         !
 ! D44   D(8,2,12,14)          -50.7864                                         !
 ! D45   D(8,2,12,15)           70.1441                                         !
 ! D46   D(1,3,16,17)           56.426                                          !
 ! D47   D(1,3,16,18)          177.612                                          !
 ! D48   D(1,3,16,19)          -61.4572                                         !
 ! D49   D(20,3,16,17)        -171.9728                                         !
 ! D50   D(20,3,16,18)         -50.7868                                         !
 ! D51   D(20,3,16,19)          70.144                                          !
 ! D52   D(24,3,16,17)         -67.9793                                         !
 ! D53   D(24,3,16,18)          53.2068                                         !
 ! D54   D(24,3,16,19)         174.1375                                         !
 ! D55   D(1,3,20,21)          179.8207                                         !
 ! D56   D(1,3,20,22)          -59.037                                          !
 ! D57   D(1,3,20,23)           58.7116                                         !
 ! D58   D(16,3,20,21)          52.2153                                         !
 ! D59   D(16,3,20,22)         173.3576                                         !
 ! D60   D(16,3,20,23)         -68.8938                                         !
 ! D61   D(24,3,20,21)         -52.5142                                         !
 ! D62   D(24,3,20,22)          68.6281                                         !
 ! D63   D(24,3,20,23)        -173.6233                                         !
 ! D64   D(1,3,24,25)           61.5891                                         !
 ! D65   D(1,3,24,26)         -177.4831                                         !
 ! D66   D(1,3,24,27)          -56.3356                                         !
 ! D67   D(16,3,24,25)        -174.0093                                         !
 ! D68   D(16,3,24,26)         -53.0815                                         !
 ! D69   D(16,3,24,27)          68.066                                          !
 ! D70   D(20,3,24,25)         -70.0611                                         !
 ! D71   D(20,3,24,26)          50.8668                                         !
 ! D72   D(20,3,24,27)         172.0143                                         !
 --------------------------------------------------------------------------------
 NAtoms=     29 NQM=       29 NQMF=       0 NMMI=      0 NMMIF=      0
                NMic=       0 NMicF=      0.
                    Isotopes and Nuclear Properties:
 (Nuclear quadrupole moments (NQMom) in fm**2, nuclear magnetic moments (NMagM)
  in nuclear magnetons)

  Atom         1           2           3           4           5           6           7           8           9          10
 IAtWgt=         195          31          31          12           1           1           1          12           1           1
 AtmWgt= 194.9648000  30.9737634  30.9737634  12.0000000   1.0078250   1.0078250   1.0078250  12.0000000   1.0078250   1.0078250
 NucSpn=           1           1           1           0           1           1           1           0           1           1
 AtZEff=1176.2400000  12.9400000  12.9400000   3.6000000   1.0000000   1.0000000   1.0000000   3.6000000   1.0000000   1.0000000
 NQMom=    0.0000000   0.0000000   0.0000000   0.0000000   0.0000000   0.0000000   0.0000000   0.0000000   0.0000000   0.0000000
 NMagM=    0.6095000   1.1316000   1.1316000   0.0000000   2.7928460   2.7928460   2.7928460   0.0000000   2.7928460   2.7928460
 AtZNuc=  78.0000000  15.0000000  15.0000000   6.0000000   1.0000000   1.0000000   1.0000000   6.0000000   1.0000000   1.0000000

  Atom        11          12          13          14          15          16          17          18          19          20
 IAtWgt=           1          12           1           1           1          12           1           1           1          12
 AtmWgt=   1.0078250  12.0000000   1.0078250   1.0078250   1.0078250  12.0000000   1.0078250   1.0078250   1.0078250  12.0000000
 NucSpn=           1           0           1           1           1           0           1           1           1           0
 AtZEff=   1.0000000   3.6000000   1.0000000   1.0000000   1.0000000   3.6000000   1.0000000   1.0000000   1.0000000   3.6000000
 NQMom=    0.0000000   0.0000000   0.0000000   0.0000000   0.0000000   0.0000000   0.0000000   0.0000000   0.0000000   0.0000000
 NMagM=    2.7928460   0.0000000   2.7928460   2.7928460   2.7928460   0.0000000   2.7928460   2.7928460   2.7928460   0.0000000
 AtZNuc=   1.0000000   6.0000000   1.0000000   1.0000000   1.0000000   6.0000000   1.0000000   1.0000000   1.0000000   6.0000000

  Atom        21          22          23          24          25          26          27          28          29
 IAtWgt=           1           1           1          12           1           1           1           1           1
 AtmWgt=   1.0078250   1.0078250   1.0078250  12.0000000   1.0078250   1.0078250   1.0078250   1.0078250   1.0078250
 NucSpn=           1           1           1           0           1           1           1           1           1
 AtZEff=   1.0000000   1.0000000   1.0000000   3.6000000   1.0000000   1.0000000   1.0000000   1.0000000   1.0000000
 NQMom=    0.0000000   0.0000000   0.0000000   0.0000000   0.0000000   0.0000000   0.0000000   0.0000000   0.0000000
 NMagM=    2.7928460   2.7928460   2.7928460   0.0000000   2.7928460   2.7928460   2.7928460   2.7928460   2.7928460
 AtZNuc=   1.0000000   1.0000000   1.0000000   6.0000000   1.0000000   1.0000000   1.0000000   1.0000000   1.0000000
 Leave Link  101 at Sat Nov  9 16:51:33 2019, MaxMem= 26843545600 cpu:               7.3 elap:               0.3
 (Enter /share/home/wli/program/opt/Chem_soft/g16/l202.exe)
                          Input orientation:                          
 ---------------------------------------------------------------------
 Center     Atomic      Atomic             Coordinates (Angstroms)
 Number     Number       Type             X           Y           Z
 ---------------------------------------------------------------------
      1         78           0       -0.000087   -0.373673    0.015697
      2         15           0        2.160241    0.232534   -0.001944
      3         15           0       -2.160666    0.231710    0.008620
      4          6           0        2.684493    1.213533    1.442491
      5          1           0        2.551782    0.620872    2.349811
      6          1           0        3.731978    1.519395    1.361964
      7          1           0        2.051487    2.098862    1.522817
      8          6           0        3.486986   -1.024416   -0.073832
      9          1           0        3.361648   -1.626462   -0.976734
     10          1           0        4.484727   -0.575159   -0.078804
     11          1           0        3.398277   -1.689129    0.788585
     12          6           0        2.632135    1.317563   -1.389012
     13          1           0        1.998721    2.206163   -1.379225
     14          1           0        3.682915    1.616493   -1.326884
     15          1           0        2.462643    0.793350   -2.331668
     16          6           0       -2.633550    1.370456    1.351598
     17          1           0       -2.000532    2.258272    1.306942
     18          1           0       -3.684441    1.666217    1.277358
     19          1           0       -2.464161    0.883961    2.314282
     20          6           0       -3.486865   -1.022054    0.129634
     21          1           0       -4.484817   -0.573431    0.116508
     22          1           0       -3.397533   -1.720276   -0.705821
     23          1           0       -3.361572   -1.587905    1.055655
     24          6           0       -2.684880    1.154662   -1.473585
     25          1           0       -2.551373    0.526803   -2.356791
     26          1           0       -3.732597    1.462774   -1.405624
     27          1           0       -2.052400    2.036552   -1.588458
     28          1           0       -0.388273   -2.504878    0.064328
     29          1           0        0.388979   -2.505523    0.054155
 ---------------------------------------------------------------------
                    Distance matrix (angstroms):
                    1          2          3          4          5
     1  Pt   0.000000
     2  P    2.243840   0.000000
     3  P    2.243800   4.320920   0.000000
     4  C    3.429568   1.823072   5.147381   0.000000
     5  H    3.598506   2.415546   5.276342   1.091828   0.000000
     6  H    4.395959   2.446756   6.181660   1.094194   1.782147
     7  H    3.548774   2.412448   4.849874   1.091310   1.765975
     8  C    3.548403   1.829028   5.786245   2.819866   3.075000
     9  H    3.722320   2.418566   5.909287   3.791669   4.095399
    10  H    4.490333   2.462013   6.694769   2.958817   3.326400
    11  H    3.725139   2.418772   5.932944   3.059824   2.913775
    12  C    3.429589   1.823165   5.109148   2.833897   3.804028
    13  H    3.549169   2.412096   4.808854   3.068824   4.089588
    14  H    4.396339   2.447314   6.152125   2.971306   3.973514
    15  H    3.596820   2.415281   5.212234   3.803952   4.685503
    16  C    3.429540   5.109538   1.823171   5.321135   5.333477
    17  H    3.549116   4.809244   2.412102   4.802012   4.948961
    18  H    4.396294   6.152428   2.447325   6.387137   6.413531
    19  H    3.596775   5.212902   2.415288   5.232330   5.022963
    20  C    3.548380   5.786287   1.829036   6.693811   6.640305
    21  H    4.490308   6.694805   2.462026   7.506696   7.478484
    22  H    3.725126   5.932770   2.418784   7.086149   7.086057
    23  H    3.722291   5.909563   2.418565   6.674773   6.443702
    24  C    3.429560   5.146965   1.823067   6.110412   6.505837
    25  H    3.598419   5.275529   2.415554   6.505416   6.942849
    26  H    4.395943   6.181371   2.446747   7.025164   7.369227
    27  H    3.548871   4.849521   2.412434   5.683500   6.221945
    28  H    2.166815   3.740687   3.260888   5.016752   4.861859
    29  H    2.167403   3.261513   3.741017   4.585656   4.440957
                    6          7          8          9         10
     6  H    0.000000
     7  H    1.784854   0.000000
     8  C    2.931298   3.790094   0.000000
     9  H    3.937394   4.673577   1.092429   0.000000
    10  H    2.651340   3.954268   1.094232   1.781242   0.000000
    11  H    3.276393   4.086786   1.092463   1.766811   1.781479
    12  C    2.969555   3.070232   2.818747   3.060955   2.954850
    13  H    3.315109   2.904504   3.788883   4.087614   3.950579
    14  H    2.691048   3.318891   2.929664   3.277587   2.646496
    15  H    3.972565   4.090289   3.074310   2.915399   3.322203
    16  C    6.367279   4.744414   6.725194   7.095425   7.516737
    17  H    5.780193   4.060895   6.541822   7.004235   7.211602
    18  H    7.418355   5.757456   7.777827   8.097533   8.578942
    19  H    6.301017   4.742729   6.690377   7.146541   7.492859
    20  C    7.751729   6.508028   6.976820   6.963583   7.986829
    21  H    8.570111   7.200148   7.986819   7.991938   8.971670
    22  H    8.099452   7.017439   6.948398   6.765258   7.989647
    23  H    7.750328   6.565950   6.963908   7.023801   7.992312
    24  C    7.024915   5.683582   6.693252   6.673980   7.506061
    25  H    7.368506   6.221660   6.639275   6.442432   7.477316
    26  H    7.961321   6.514292   7.751269   7.749557   8.569599
    27  H    6.513944   5.150321   6.507567   6.565348   7.199591
    28  H    5.903821   5.410549   4.150722   3.989653   5.243132
    29  H    5.393141   5.110897   3.436235   3.266839   4.529805
                   11         12         13         14         15
    11  H    0.000000
    12  C    3.790660   0.000000
    13  H    4.672415   1.091293   0.000000
    14  H    3.934891   1.094239   1.785207   0.000000
    15  H    4.095619   1.091846   1.765903   1.782195   0.000000
    16  C    6.786825   5.936428   5.441850   6.865314   6.314324
    17  H    6.708041   5.441939   4.817907   6.296864   5.941836
    18  H    7.852525   6.865145   6.296611   7.814250   7.181478
    19  H    6.581544   6.314635   5.942013   7.182008   6.772478
    20  C    6.948697   6.724749   6.541383   7.777476   6.689571
    21  H    7.989972   7.516213   7.211077   8.578520   7.491920
    22  H    6.958251   6.786170   6.707455   7.851910   6.580529
    23  H    6.765880   7.095256   7.004023   8.097497   7.146035
    24  C    7.085857   5.320182   4.801112   6.386206   5.231047
    25  H    7.085343   5.332040   4.947650   6.412058   5.021159
    26  H    8.099285   6.366409   5.779388   7.417523   6.299737
    27  H    7.017187   4.743584   4.060065   5.756623   4.741680
    28  H    3.940553   5.083907   5.474988   5.957831   4.974619
    29  H    3.203399   4.661594   5.181296   5.454200   4.568895
                   16         17         18         19         20
    16  C    0.000000
    17  H    1.091294   0.000000
    18  H    1.094239   1.785204   0.000000
    19  H    1.091847   1.765903   1.782195   0.000000
    20  C    2.818768   3.788903   2.929695   3.074330   0.000000
    21  H    2.954883   3.950613   2.646544   3.322236   1.094232
    22  H    3.790682   4.672437   3.934927   4.095639   1.092464
    23  H    3.060964   4.087622   3.277607   2.915409   1.092429
    24  C    2.833877   3.068813   2.971279   3.803936   2.819856
    25  H    3.804032   4.089542   3.973557   4.685519   3.075128
    26  H    2.969630   3.315250   2.691116   3.972613   2.931172
    27  H    3.070073   2.904340   3.318676   4.090158   3.790067
    28  H    4.660102   5.179871   5.452907   4.566819   3.435739
    29  H    5.083528   5.474759   5.957549   4.973649   4.150728
                   21         22         23         24         25
    21  H    0.000000
    22  H    1.781479   0.000000
    23  H    1.781245   1.766809   0.000000
    24  C    2.958796   3.059838   3.791654   0.000000
    25  H    3.326549   2.913941   4.095510   1.091827   0.000000
    26  H    2.651198   3.276248   3.937283   1.094195   1.782148
    27  H    3.954185   4.086831   4.673538   1.091310   1.765971
    28  H    4.529336   3.203805   3.265589   4.586045   4.442061
    29  H    5.243163   3.941046   3.988942   5.017923   4.863469
                   26         27         28         29
    26  H    0.000000
    27  H    1.784856   0.000000
    28  H    5.393284   5.111321   0.000000
    29  H    5.904720   5.411927   0.777319   0.000000
 Stoichiometry    C6H20P2Pt
 Framework group  C1[X(C6H20P2Pt)]
 Deg. of freedom    81
 Full point group                 C1      NOp   1
 RotChk:  IX=0 Diff= 5.82D-16
 Largest Abelian subgroup         C1      NOp   1
 Largest concise Abelian subgroup C1      NOp   1
                         Standard orientation:                         
 ---------------------------------------------------------------------
 Center     Atomic      Atomic             Coordinates (Angstroms)
 Number     Number       Type             X           Y           Z
 ---------------------------------------------------------------------
      1         78           0       -0.000009   -0.378523   -0.000028
      2         15           0        2.160472    0.227398   -0.000412
      3         15           0       -2.160448    0.227397    0.000397
      4          6           0        2.681652    1.178556    1.464941
      5          1           0        2.546778    0.567514    2.359662
      6          1           0        3.729375    1.485748    1.393041
      7          1           0        2.048638    2.062211    1.561912
      8          6           0        3.487132   -1.028139   -0.094977
      9          1           0        3.363715   -1.611583   -1.010271
     10          1           0        4.484968   -0.579114   -0.088521
     11          1           0        3.396347   -1.710312    0.753477
     12          6           0        2.635706    1.340427   -1.363956
     13          1           0        2.002444    2.228794   -1.337443
     14          1           0        3.686402    1.637772   -1.293366
     15          1           0        2.468242    0.835623   -2.317505
     16          6           0       -2.636142    1.338581    1.365292
     17          1           0       -2.002852    2.226972    1.340210
     18          1           0       -3.686805    1.636049    1.294742
     19          1           0       -2.469021    0.832479    2.318214
     20          6           0       -3.487161   -1.028259    0.092780
     21          1           0       -4.484993   -0.579221    0.086575
     22          1           0       -3.396078   -1.709288   -0.756562
     23          1           0       -3.364068   -1.612941    1.007327
     24          6           0       -2.681135    1.180565   -1.463819
     25          1           0       -2.545757    0.570849   -2.359366
     26          1           0       -3.728943    1.487476   -1.391938
     27          1           0       -2.048226    2.064466   -1.559225
     28          1           0       -0.388717   -2.510183    0.004174
     29          1           0        0.388556   -2.510807   -0.004259
 ---------------------------------------------------------------------
 Rotational constants (GHZ):           1.5580151           0.4069172           0.3913240
 Leave Link  202 at Sat Nov  9 16:51:33 2019, MaxMem= 26843545600 cpu:               0.3 elap:               0.0
 (Enter /share/home/wli/program/opt/Chem_soft/g16/l301.exe)
 General basis read from cards:  (5D, 7F)
 Centers:       1
 def2qzvp
 ****
 Centers:       2      3      4      8     12     16     20     24      5      6
 Centers:       7      9     10     11     13     14     15     17     18     19
 Centers:      21     22     23     25     26     27     28     29
 def2tzvp
 ****
 ======================================================================================================
                                       Pseudopotential Parameters
 ======================================================================================================
  Center     Atomic      Valence      Angular      Power
  Number     Number     Electrons     Momentum     of R      Exponent        Coefficient   SO-Coeffient
 ======================================================================================================
    1         78           18
                                      H and up 
                                                     2        1.0000000        0.00000000    0.00000000
                                      S - H
                                                     2       13.4286510      579.22386100    0.00000000
                                                     2        6.7143260       29.66949100    0.00000000
                                      P - H
                                                     2       10.3659440      280.86077400    0.00000000
                                                     2        5.1829720       26.74538200    0.00000000
                                      D - H
                                                     2        7.6004790      120.39644400    0.00000000
                                                     2        3.8002400       15.81092100    0.00000000
                                      F - H
                                                     2        3.3095690       24.31437600    0.00000000
                                      G - H
                                                     2        5.2772890      -24.21867500    0.00000000
    2         15
                                   No pseudopotential on this center.
    3         15
                                   No pseudopotential on this center.
    4          6
                                   No pseudopotential on this center.
    5          1
                                   No pseudopotential on this center.
    6          1
                                   No pseudopotential on this center.
    7          1
                                   No pseudopotential on this center.
    8          6
                                   No pseudopotential on this center.
    9          1
                                   No pseudopotential on this center.
   10          1
                                   No pseudopotential on this center.
   11          1
                                   No pseudopotential on this center.
   12          6
                                   No pseudopotential on this center.
   13          1
                                   No pseudopotential on this center.
   14          1
                                   No pseudopotential on this center.
   15          1
                                   No pseudopotential on this center.
   16          6
                                   No pseudopotential on this center.
   17          1
                                   No pseudopotential on this center.
   18          1
                                   No pseudopotential on this center.
   19          1
                                   No pseudopotential on this center.
   20          6
                                   No pseudopotential on this center.
   21          1
                                   No pseudopotential on this center.
   22          1
                                   No pseudopotential on this center.
   23          1
                                   No pseudopotential on this center.
   24          6
                                   No pseudopotential on this center.
   25          1
                                   No pseudopotential on this center.
   26          1
                                   No pseudopotential on this center.
   27          1
                                   No pseudopotential on this center.
   28          1
                                   No pseudopotential on this center.
   29          1
                                   No pseudopotential on this center.
 ======================================================================================================
 Ernie: Thresh=  0.10000D-02 Tol=  0.10000D-05 Strict=F.
 There are   511 symmetry adapted cartesian basis functions of A   symmetry.
 There are   452 symmetry adapted basis functions of A   symmetry.
   452 basis functions,   719 primitive gaussians,   511 cartesian basis functions
    52 alpha electrons       52 beta electrons
       nuclear repulsion energy       826.2901299655 Hartrees.
 IExCor= 1004 DFT=T Ex+Corr=DSDPBEP86 ExCW=0 ScaHFX=  0.690000
 ScaDFX=  0.310000  0.310000  0.440000  0.440000 ScalE2=  0.220000  0.520000
 IRadAn=      5 IRanWt=     -1 IRanGd=            0 ICorTp=0 IEmpDi=141
 NAtoms=   29 NActive=   29 NUniq=   29 SFac= 1.00D+00 NAtFMM=   60 NAOKFM=F Big=F
 Integral buffers will be    131072 words long.
 Regular integral format.
 Two-electron integral symmetry is turned on.
 R6Disp:  Grimme-D3(BJ) Dispersion energy=       -0.0272824432 Hartrees.
 Nuclear repulsion after empirical dispersion term =      826.2628475223 Hartrees.
 ------------------------------------------------------------------------------
 Polarizable Continuum Model (PCM)
 =================================
 Model                : PCM.
 Atomic radii         : SMD-Coulomb.
 Polarization charges : Total charges.
 Charge compensation  : None.
 Solution method      : On-the-fly selection.
 Cavity type          : VdW (van der Waals Surface) (Alpha=1.000).
 Cavity algorithm     : GePol (No added spheres)
                        Default sphere list used, NSphG=   29.
                        Lebedev-Laikov grids with approx.  5.0 points / Ang**2.
                        Smoothing algorithm: York/Karplus (Gamma=1.0000).
                        Polarization charges: spherical gaussians, with
                                              point-specific exponents (IZeta= 3).
                        Self-potential: point-specific (ISelfS= 7).
                        Self-field    : sphere-specific E.n sum rule (ISelfD= 2).
 Solvent              : Benzene, Eps=   2.270600 Eps(inf)=   2.253301
 ------------------------------------------------------------------------------
 GePol: Number of generator spheres                  =      29
 GePol: Total number of spheres                      =      29
 GePol: Number of exposed spheres                    =      29 (100.00%)
 GePol: Number of points                             =    2153
 GePol: Average weight of points                     =       0.12
 GePol: Minimum weight of points                     =   0.83D-09
 GePol: Maximum weight of points                     =    0.22001
 GePol: Number of points with low weight             =     138
 GePol: Fraction of low-weight points (<1% of avg)   =       6.41%
 GePol: Cavity surface area                          =    254.869 Ang**2
 GePol: Cavity volume                                =    208.637 Ang**3
 ------------------------------------------------------------------------------
 Atomic radii for non-electrostatic terms: SMD-CDS.
 ------------------------------------------------------------------------------
 PCM non-electrostatic energy =         0.0001471467 Hartrees.
 Nuclear repulsion after PCM non-electrostatic terms =      826.2629946690 Hartrees.
 Leave Link  301 at Sat Nov  9 16:51:33 2019, MaxMem= 26843545600 cpu:               2.2 elap:               0.1
 (Enter /share/home/wli/program/opt/Chem_soft/g16/l302.exe)
 NPDir=0 NMtPBC=     1 NCelOv=     1 NCel=       1 NClECP=     1 NCelD=      1
         NCelK=      1 NCelE2=     1 NClLst=     1 CellRange=     0.0.
 One-electron integrals computed using PRISM.
 One-electron integral symmetry used in STVInt
   1 Symmetry operations used in ECPInt.
 ECPInt:  NShTT=   18528 NPrTT=   52282 LenC2=   17160 LenP2D=   36713.
 LDataN:  DoStor=T MaxTD1= 9 Len=  602
 NBasis=   452 RedAO= T EigKep=  3.71D-04  NBF=   452
 NBsUse=   452 1.00D-06 EigRej= -1.00D+00 NBFU=   452
 Precomputing XC quadrature grid using
 IXCGrd= 4 IRadAn=           5 IRanWt=          -1 IRanGd=           0 AccXCQ= 0.00D+00.
 Defaulting to unpruned grid for atomic number  78.
 Generated NRdTot=       0 NPtTot=           0 NUsed=           0 NTot=          32
 NSgBfM=   509   509   509   509   509 MxSgAt=    29 MxSgA2=    29.
 Leave Link  302 at Sat Nov  9 16:51:34 2019, MaxMem= 26843545600 cpu:              21.8 elap:               0.9
 (Enter /share/home/wli/program/opt/Chem_soft/g16/l303.exe)
 DipDrv:  MaxL=1.
 Leave Link  303 at Sat Nov  9 16:51:34 2019, MaxMem= 26843545600 cpu:               2.1 elap:               0.3
 (Enter /share/home/wli/program/opt/Chem_soft/g16/l401.exe)
 ExpMin= 3.50D-02 ExpMax= 5.24D+04 ExpMxC= 1.79D+03 IAcc=3 IRadAn=         5 AccDes= 0.00D+00
 Harris functional with IExCor= 1004 and IRadAn=       5 diagonalized for initial guess.
 HarFok:  IExCor= 1004 AccDes= 0.00D+00 IRadAn=         5 IDoV= 1 UseB2=F ITyADJ=14
 ICtDFT=  3500011 ScaDFX=  1.000000  1.000000  1.000000  1.000000
 Defaulting to unpruned grid for atomic number  78.
 FoFCou: FMM=F IPFlag=           0 FMFlag=      100000 FMFlg1=           0
         NFxFlg=           0 DoJE=T BraDBF=F KetDBF=T FulRan=T
         wScrn=  0.000000 ICntrl=       500 IOpCl=  0 I1Cent=   200000004 NGrid=           0
         NMat0=    1 NMatS0=      1 NMatT0=    0 NMatD0=    1 NMtDS0=    0 NMtDT0=    0
 Petite list used in FoFCou.
 Harris En= -1042.83260720741    
 JPrj=0 DoOrth=F DoCkMO=F.
 Leave Link  401 at Sat Nov  9 16:51:36 2019, MaxMem= 26843545600 cpu:              49.7 elap:               2.1
 (Enter /share/home/wli/program/opt/Chem_soft/g16/l502.exe)
 Integral symmetry usage will be decided dynamically.
 Closed shell SCF:
 Using DIIS extrapolation, IDIIS=  1040.
 NGot= 26843545600 LenX= 26843006313 LenY= 26842744681
 Requested convergence on RMS density matrix=1.00D-08 within 128 cycles.
 Requested convergence on MAX density matrix=1.00D-06.
 Requested convergence on             energy=1.00D-06.
 No special actions if energy rises.
 Fock matrices will be formed incrementally for  20 cycles.

 Cycle   1  Pass 1  IDiag  1:
 FoFJK:  IHMeth= 1 ICntrl=       0 DoSepK=F KAlg= 0 I1Cent=           0 FoldK=F
 IRaf= 880000000 NMat=       1 IRICut=       1 DoRegI=T DoRafI=F ISym2E= 0 IDoP0=0 IntGTp=1.
 FoFCou: FMM=F IPFlag=           0 FMFlag=      100000 FMFlg1=           0
         NFxFlg=           0 DoJE=F BraDBF=F KetDBF=F FulRan=T
         wScrn=  0.000000 ICntrl=         0 IOpCl=  0 I1Cent=           0 NGrid=           0
         NMat0=    1 NMatS0=      1 NMatT0=    0 NMatD0=    1 NMtDS0=    0 NMtDT0=    0
 Symmetry not used in FoFCou.
 Defaulting to unpruned grid for atomic number  78.
 Defaulting to unpruned grid for atomic number  78.
 Defaulting to unpruned grid for atomic number  78.
 Defaulting to unpruned grid for atomic number  78.
 Defaulting to unpruned grid for atomic number  78.
 Defaulting to unpruned grid for atomic number  78.
 Defaulting to unpruned grid for atomic number  78.
 Defaulting to unpruned grid for atomic number  78.
 Defaulting to unpruned grid for atomic number  78.
 Defaulting to unpruned grid for atomic number  78.
 Defaulting to unpruned grid for atomic number  78.
 Defaulting to unpruned grid for atomic number  78.
 Defaulting to unpruned grid for atomic number  78.
 Defaulting to unpruned grid for atomic number  78.
 Defaulting to unpruned grid for atomic number  78.
 Defaulting to unpruned grid for atomic number  78.
 Defaulting to unpruned grid for atomic number  78.
 Defaulting to unpruned grid for atomic number  78.
 Defaulting to unpruned grid for atomic number  78.
 Defaulting to unpruned grid for atomic number  78.
 Defaulting to unpruned grid for atomic number  78.
 Defaulting to unpruned grid for atomic number  78.
 Defaulting to unpruned grid for atomic number  78.
 Defaulting to unpruned grid for atomic number  78.
 Inv3:  Mode=1 IEnd=    13906227.
 Iteration    1 A*A^-1 deviation from unit magnitude is 5.77D-15 for    247.
 Iteration    1 A*A^-1 deviation from orthogonality  is 3.00D-15 for    270    247.
 Iteration    1 A^-1*A deviation from unit magnitude is 4.88D-15 for    247.
 Iteration    1 A^-1*A deviation from orthogonality  is 1.84D-15 for   1413    974.
 E= -1039.79525056313    
 DIIS: error= 4.70D-02 at cycle   1 NSaved=   1.
 NSaved= 1 IEnMin= 1 EnMin= -1039.79525056313     IErMin= 1 ErrMin= 4.70D-02
 ErrMax= 4.70D-02  0.00D+00 EMaxC= 1.00D-01 BMatC= 1.05D+00 BMatP= 1.05D+00
 IDIUse=3 WtCom= 5.30D-01 WtEn= 4.70D-01
 Coeff-Com:  0.100D+01
 Coeff-En:   0.100D+01
 Coeff:      0.100D+01
 Gap=     0.507 Goal=   None    Shift=    0.000
 GapD=    0.507 DampG=2.000 DampE=0.250 DampFc=0.5000 IDamp=-1.
 Damping current iteration by 5.00D-01
 RMSDP=2.32D-03 MaxDP=1.75D-01              OVMax= 2.20D-01

 Cycle   2  Pass 1  IDiag  1:
 RMSU=  1.15D-03    CP:  9.84D-01
 E= -1040.19619947259     Delta-E=       -0.400948909451 Rises=F Damp=T
 DIIS: error= 1.56D-02 at cycle   2 NSaved=   2.
 NSaved= 2 IEnMin= 2 EnMin= -1040.19619947259     IErMin= 2 ErrMin= 1.56D-02
 ErrMax= 1.56D-02  0.00D+00 EMaxC= 1.00D-01 BMatC= 7.72D-02 BMatP= 1.05D+00
 IDIUse=3 WtCom= 8.44D-01 WtEn= 1.56D-01
 Coeff-Com: -0.564D-01 0.106D+01
 Coeff-En:   0.000D+00 0.100D+01
 Coeff:     -0.476D-01 0.105D+01
 Gap=     0.371 Goal=   None    Shift=    0.000
 RMSDP=9.27D-04 MaxDP=1.12D-01 DE=-4.01D-01 OVMax= 1.88D-01

 Cycle   3  Pass 1  IDiag  1:
 RMSU=  8.99D-04    CP:  9.68D-01  8.62D-01
 E= -1040.56068862628     Delta-E=       -0.364489153696 Rises=F Damp=F
 DIIS: error= 1.24D-02 at cycle   3 NSaved=   3.
 NSaved= 3 IEnMin= 3 EnMin= -1040.56068862628     IErMin= 3 ErrMin= 1.24D-02
 ErrMax= 1.24D-02  0.00D+00 EMaxC= 1.00D-01 BMatC= 4.46D-02 BMatP= 7.72D-02
 IDIUse=3 WtCom= 8.76D-01 WtEn= 1.24D-01
 Coeff-Com: -0.913D-01 0.469D+00 0.622D+00
 Coeff-En:   0.000D+00 0.000D+00 0.100D+01
 Coeff:     -0.799D-01 0.411D+00 0.669D+00
 Gap=     0.289 Goal=   None    Shift=    0.000
 RMSDP=5.21D-04 MaxDP=3.44D-02 DE=-3.64D-01 OVMax= 5.84D-02

 Cycle   4  Pass 1  IDiag  1:
 RMSU=  3.60D-04    CP:  9.66D-01  1.08D+00  6.94D-01
 E= -1040.58956188632     Delta-E=       -0.028873260039 Rises=F Damp=F
 DIIS: error= 5.24D-03 at cycle   4 NSaved=   4.
 NSaved= 4 IEnMin= 4 EnMin= -1040.58956188632     IErMin= 4 ErrMin= 5.24D-03
 ErrMax= 5.24D-03  0.00D+00 EMaxC= 1.00D-01 BMatC= 8.26D-03 BMatP= 4.46D-02
 IDIUse=3 WtCom= 9.48D-01 WtEn= 5.24D-02
 Coeff-Com:  0.371D-03-0.332D-01 0.292D+00 0.741D+00
 Coeff-En:   0.000D+00 0.000D+00 0.122D+00 0.878D+00
 Coeff:      0.351D-03-0.314D-01 0.283D+00 0.748D+00
 Gap=     0.274 Goal=   None    Shift=    0.000
 RMSDP=1.48D-04 MaxDP=1.76D-02 DE=-2.89D-02 OVMax= 1.55D-02

 Cycle   5  Pass 1  IDiag  1:
 RMSU=  6.81D-05    CP:  9.64D-01  1.05D+00  8.27D-01  9.43D-01
 E= -1040.59545646695     Delta-E=       -0.005894580627 Rises=F Damp=F
 DIIS: error= 2.93D-04 at cycle   5 NSaved=   5.
 NSaved= 5 IEnMin= 5 EnMin= -1040.59545646695     IErMin= 5 ErrMin= 2.93D-04
 ErrMax= 2.93D-04  0.00D+00 EMaxC= 1.00D-01 BMatC= 3.84D-05 BMatP= 8.26D-03
 IDIUse=3 WtCom= 9.97D-01 WtEn= 2.93D-03
 Coeff-Com:  0.433D-02-0.187D-01 0.215D-01 0.802D-01 0.913D+00
 Coeff-En:   0.000D+00 0.000D+00 0.000D+00 0.000D+00 0.100D+01
 Coeff:      0.432D-02-0.186D-01 0.214D-01 0.800D-01 0.913D+00
 Gap=     0.274 Goal=   None    Shift=    0.000
 RMSDP=2.73D-05 MaxDP=1.87D-03 DE=-5.89D-03 OVMax= 2.51D-03

 Cycle   6  Pass 1  IDiag  1:
 RMSU=  1.81D-05    CP:  9.63D-01  1.05D+00  8.36D-01  9.89D-01  1.12D+00
 E= -1040.59552480244     Delta-E=       -0.000068335499 Rises=F Damp=F
 DIIS: error= 1.12D-04 at cycle   6 NSaved=   6.
 NSaved= 6 IEnMin= 6 EnMin= -1040.59552480244     IErMin= 6 ErrMin= 1.12D-04
 ErrMax= 1.12D-04  0.00D+00 EMaxC= 1.00D-01 BMatC= 4.14D-06 BMatP= 3.84D-05
 IDIUse=3 WtCom= 9.99D-01 WtEn= 1.12D-03
 Coeff-Com:  0.496D-03 0.166D-02-0.209D-01-0.622D-01 0.404D-01 0.104D+01
 Coeff-En:   0.000D+00 0.000D+00 0.000D+00 0.000D+00 0.000D+00 0.100D+01
 Coeff:      0.495D-03 0.166D-02-0.209D-01-0.621D-01 0.403D-01 0.104D+01
 Gap=     0.273 Goal=   None    Shift=    0.000
 RMSDP=1.20D-05 MaxDP=9.17D-04 DE=-6.83D-05 OVMax= 1.44D-03

 Cycle   7  Pass 1  IDiag  1:
 RMSU=  4.93D-06    CP:  9.63D-01  1.05D+00  8.39D-01  1.00D+00  1.23D+00
                    CP:  1.20D+00
 E= -1040.59553343913     Delta-E=       -0.000008636690 Rises=F Damp=F
 DIIS: error= 3.14D-05 at cycle   7 NSaved=   7.
 NSaved= 7 IEnMin= 7 EnMin= -1040.59553343913     IErMin= 7 ErrMin= 3.14D-05
 ErrMax= 3.14D-05  0.00D+00 EMaxC= 1.00D-01 BMatC= 2.47D-07 BMatP= 4.14D-06
 IDIUse=1 WtCom= 1.00D+00 WtEn= 0.00D+00
 Coeff-Com: -0.239D-04 0.721D-03-0.368D-02-0.126D-01-0.302D-01 0.147D+00
 Coeff-Com:  0.899D+00
 Coeff:     -0.239D-04 0.721D-03-0.368D-02-0.126D-01-0.302D-01 0.147D+00
 Coeff:      0.899D+00
 Gap=     0.273 Goal=   None    Shift=    0.000
 RMSDP=2.55D-06 MaxDP=1.49D-04 DE=-8.64D-06 OVMax= 4.41D-04

 Cycle   8  Pass 1  IDiag  1:
 RMSU=  1.55D-06    CP:  9.63D-01  1.05D+00  8.38D-01  1.01D+00  1.25D+00
                    CP:  1.26D+00  1.15D+00
 E= -1040.59553412687     Delta-E=       -0.000000687737 Rises=F Damp=F
 DIIS: error= 1.46D-05 at cycle   8 NSaved=   8.
 NSaved= 8 IEnMin= 8 EnMin= -1040.59553412687     IErMin= 8 ErrMin= 1.46D-05
 ErrMax= 1.46D-05  0.00D+00 EMaxC= 1.00D-01 BMatC= 5.75D-08 BMatP= 2.47D-07
 IDIUse=1 WtCom= 1.00D+00 WtEn= 0.00D+00
 Coeff-Com: -0.572D-04-0.123D-03 0.273D-02 0.717D-02-0.138D-01-0.149D+00
 Coeff-Com:  0.225D+00 0.928D+00
 Coeff:     -0.572D-04-0.123D-03 0.273D-02 0.717D-02-0.138D-01-0.149D+00
 Coeff:      0.225D+00 0.928D+00
 Gap=     0.273 Goal=   None    Shift=    0.000
 RMSDP=1.24D-06 MaxDP=1.32D-04 DE=-6.88D-07 OVMax= 3.16D-04

 Cycle   9  Pass 1  IDiag  1:
 RMSU=  4.25D-07    CP:  9.63D-01  1.05D+00  8.39D-01  1.01D+00  1.26D+00
                    CP:  1.29D+00  1.33D+00  1.18D+00
 E= -1040.59553428674     Delta-E=       -0.000000159870 Rises=F Damp=F
 DIIS: error= 4.11D-06 at cycle   9 NSaved=   9.
 NSaved= 9 IEnMin= 9 EnMin= -1040.59553428674     IErMin= 9 ErrMin= 4.11D-06
 ErrMax= 4.11D-06  0.00D+00 EMaxC= 1.00D-01 BMatC= 4.30D-09 BMatP= 5.75D-08
 IDIUse=1 WtCom= 1.00D+00 WtEn= 0.00D+00
 Coeff-Com: -0.936D-05-0.953D-04 0.964D-03 0.282D-02 0.619D-03-0.455D-01
 Coeff-Com: -0.417D-01 0.173D+00 0.910D+00
 Coeff:     -0.936D-05-0.953D-04 0.964D-03 0.282D-02 0.619D-03-0.455D-01
 Coeff:     -0.417D-01 0.173D+00 0.910D+00
 Gap=     0.273 Goal=   None    Shift=    0.000
 RMSDP=3.54D-07 MaxDP=2.48D-05 DE=-1.60D-07 OVMax= 1.01D-04

 Cycle  10  Pass 1  IDiag  1:
 RMSU=  1.61D-07    CP:  9.63D-01  1.05D+00  8.39D-01  1.01D+00  1.26D+00
                    CP:  1.29D+00  1.38D+00  1.27D+00  1.30D+00
 E= -1040.59553430115     Delta-E=       -0.000000014407 Rises=F Damp=F
 DIIS: error= 1.69D-06 at cycle  10 NSaved=  10.
 NSaved=10 IEnMin=10 EnMin= -1040.59553430115     IErMin=10 ErrMin= 1.69D-06
 ErrMax= 1.69D-06  0.00D+00 EMaxC= 1.00D-01 BMatC= 7.66D-10 BMatP= 4.30D-09
 IDIUse=1 WtCom= 1.00D+00 WtEn= 0.00D+00
 Coeff-Com: -0.341D-06-0.796D-06-0.125D-03-0.191D-03 0.210D-02 0.948D-02
 Coeff-Com: -0.448D-01-0.841D-01 0.213D+00 0.904D+00
 Coeff:     -0.341D-06-0.796D-06-0.125D-03-0.191D-03 0.210D-02 0.948D-02
 Coeff:     -0.448D-01-0.841D-01 0.213D+00 0.904D+00
 Gap=     0.273 Goal=   None    Shift=    0.000
 RMSDP=1.21D-07 MaxDP=1.11D-05 DE=-1.44D-08 OVMax= 4.30D-05

 Cycle  11  Pass 1  IDiag  1:
 RMSU=  5.02D-08    CP:  9.63D-01  1.05D+00  8.39D-01  1.01D+00  1.26D+00
                    CP:  1.29D+00  1.39D+00  1.31D+00  1.49D+00  1.20D+00
 E= -1040.59553430377     Delta-E=       -0.000000002618 Rises=F Damp=F
 DIIS: error= 5.22D-07 at cycle  11 NSaved=  11.
 NSaved=11 IEnMin=11 EnMin= -1040.59553430377     IErMin=11 ErrMin= 5.22D-07
 ErrMax= 5.22D-07  0.00D+00 EMaxC= 1.00D-01 BMatC= 4.51D-11 BMatP= 7.66D-10
 IDIUse=1 WtCom= 1.00D+00 WtEn= 0.00D+00
 Coeff-Com: -0.241D-05 0.172D-04-0.903D-04-0.256D-03-0.299D-03 0.367D-02
 Coeff-Com:  0.535D-02-0.545D-02-0.836D-01-0.119D+00 0.120D+01
 Coeff:     -0.241D-05 0.172D-04-0.903D-04-0.256D-03-0.299D-03 0.367D-02
 Coeff:      0.535D-02-0.545D-02-0.836D-01-0.119D+00 0.120D+01
 Gap=     0.273 Goal=   None    Shift=    0.000
 RMSDP=4.45D-08 MaxDP=4.13D-06 DE=-2.62D-09 OVMax= 1.51D-05

 Cycle  12  Pass 1  IDiag  1:
 RMSU=  1.55D-08    CP:  9.63D-01  1.05D+00  8.39D-01  1.01D+00  1.26D+00
                    CP:  1.29D+00  1.39D+00  1.32D+00  1.54D+00  1.35D+00
                    CP:  1.43D+00
 E= -1040.59553430435     Delta-E=       -0.000000000584 Rises=F Damp=F
 DIIS: error= 1.36D-07 at cycle  12 NSaved=  12.
 NSaved=12 IEnMin=12 EnMin= -1040.59553430435     IErMin=12 ErrMin= 1.36D-07
 ErrMax= 1.36D-07  0.00D+00 EMaxC= 1.00D-01 BMatC= 2.58D-12 BMatP= 4.51D-11
 IDIUse=1 WtCom= 1.00D+00 WtEn= 0.00D+00
 Coeff-Com:  0.880D-06-0.386D-05 0.211D-04 0.512D-04-0.772D-04-0.131D-02
 Coeff-Com:  0.205D-02 0.626D-02 0.453D-03-0.386D-01-0.183D+00 0.121D+01
 Coeff:      0.880D-06-0.386D-05 0.211D-04 0.512D-04-0.772D-04-0.131D-02
 Coeff:      0.205D-02 0.626D-02 0.453D-03-0.386D-01-0.183D+00 0.121D+01
 Gap=     0.273 Goal=   None    Shift=    0.000
 RMSDP=1.24D-08 MaxDP=1.19D-06 DE=-5.84D-10 OVMax= 4.07D-06

 Cycle  13  Pass 1  IDiag  1:
 RMSU=  4.61D-09    CP:  9.63D-01  1.05D+00  8.39D-01  1.01D+00  1.26D+00
                    CP:  1.29D+00  1.39D+00  1.32D+00  1.55D+00  1.38D+00
                    CP:  1.57D+00  1.46D+00
 E= -1040.59553430436     Delta-E=       -0.000000000007 Rises=F Damp=F
 DIIS: error= 3.96D-08 at cycle  13 NSaved=  13.
 NSaved=13 IEnMin=13 EnMin= -1040.59553430436     IErMin=13 ErrMin= 3.96D-08
 ErrMax= 3.96D-08  0.00D+00 EMaxC= 1.00D-01 BMatC= 5.02D-13 BMatP= 2.58D-12
 IDIUse=1 WtCom= 1.00D+00 WtEn= 0.00D+00
 Coeff-Com:  0.232D-06-0.181D-05 0.108D-04 0.319D-04 0.168D-04-0.489D-03
 Coeff-Com: -0.258D-03 0.127D-02 0.757D-02 0.726D-02-0.140D+00 0.166D+00
 Coeff-Com:  0.958D+00
 Coeff:      0.232D-06-0.181D-05 0.108D-04 0.319D-04 0.168D-04-0.489D-03
 Coeff:     -0.258D-03 0.127D-02 0.757D-02 0.726D-02-0.140D+00 0.166D+00
 Coeff:      0.958D+00
 Gap=     0.273 Goal=   None    Shift=    0.000
 RMSDP=3.96D-09 MaxDP=3.14D-07 DE=-6.82D-12 OVMax= 1.04D-06

 Error on total polarization charges =  0.04498
 SCF Done:  E(RDSDPBEP86) =  -1040.59553430     A.U. after   13 cycles
            NFock= 13  Conv=0.40D-08     -V/T= 2.0829
 KE= 9.609252139938D+02 PE=-4.081932028672D+03 EE= 1.254148285705D+03
 SMD-CDS (non-electrostatic) energy       (kcal/mol) =       0.09
 (included in total energy above)
 Leave Link  502 at Sat Nov  9 16:53:22 2019, MaxMem= 26843545600 cpu:            2502.9 elap:             105.8
 (Enter /share/home/wli/program/opt/Chem_soft/g16/l801.exe)
 DoSCS=T DFT=T ScalE2(SS,OS)=  0.220000  0.520000
 ExpMin= 3.50D-02 ExpMax= 5.24D+04 ExpMxC= 1.79D+03 IAcc=3 IRadAn=         5 AccDes= 0.00D+00
 HarFok:  IExCor=  205 AccDes= 0.00D+00 IRadAn=         5 IDoV=-2 UseB2=F ITyADJ=14
 ICtDFT= 12500011 ScaDFX=  1.000000  1.000000  1.000000  1.000000
 Defaulting to unpruned grid for atomic number  78.
 Largest valence mixing into a core orbital is  2.60D-04
 Largest core mixing into a valence orbital is  1.02D-04
 Range of M.O.s used for correlation:    17   452
 NBasis=   452 NAE=    52 NBE=    52 NFC=    16 NFV=     0
 NROrb=    436 NOA=    36 NOB=    36 NVA=   400 NVB=   400
 Leave Link  801 at Sat Nov  9 16:53:22 2019, MaxMem= 26843545600 cpu:               2.5 elap:               0.1
 (Enter /share/home/wli/program/opt/Chem_soft/g16/l906.exe)
 DoSCS=T DFT=T ScalE2(SS,OS)=  0.220000  0.520000
 FulOut=F Deriv=F AODrv=F NAtomX=    29
   MMem=         147  MDisk=          36 MDiskD=          36
  W3Min=     7358400 MinDsk=     8029784 NBas6D=         511
 NBas2D=      131875    NTT=      130816    LW2=     4508827
    MDV= 26842393011 MDiskM=      116722 NBas2p=      112645
 Fully direct method using O(OVN) memory.
 IMap=   1   2   3   4   5   6   7   8   9  10  11  12  13  14  15  16  17  18  19  20
 IMap=  21  22  23  24  25  26  27  28  29  30  31  32  33  34  35  36
 JobTyp=1 Pass  1:  I=   1 to  36 NPSUse= 24 ParTrn=T ParDer=T DoDerP=F.
 Spin components of T(2) and E(2):
     alpha-alpha T2 =       0.1262443875D+00 E2=     -0.6969564609D-01
     alpha-beta  T2 =       0.6511988282D+00 E2=     -0.9084375452D+00
     beta-beta   T2 =       0.1262443875D+00 E2=     -0.6969564609D-01
 The integrals were generated   1 times.
 E2(DSDPBEP86) =    -0.1047828837D+01 E(DSDPBEP86) =    -0.10416433631417D+04
 Leave Link  906 at Sat Nov  9 16:56:35 2019, MaxMem= 26843545600 cpu:            4627.1 elap:             193.1
 (Enter /share/home/wli/program/opt/Chem_soft/g16/l601.exe)
 Copying SCF densities to generalized density rwf, IOpCl= 0 IROHF=0.

 **********************************************************************

            Population analysis using the SCF density.

 **********************************************************************

 Orbital symmetries:
       Occupied  (A) (A) (A) (A) (A) (A) (A) (A) (A) (A) (A) (A)
                 (A) (A) (A) (A) (A) (A) (A) (A) (A) (A) (A) (A)
                 (A) (A) (A) (A) (A) (A) (A) (A) (A) (A) (A) (A)
                 (A) (A) (A) (A) (A) (A) (A) (A) (A) (A) (A) (A)
                 (A) (A) (A) (A)
       Virtual   (A) (A) (A) (A) (A) (A) (A) (A) (A) (A) (A) (A)
                 (A) (A) (A) (A) (A) (A) (A) (A) (A) (A) (A) (A)
                 (A) (A) (A) (A) (A) (A) (A) (A) (A) (A) (A) (A)
                 (A) (A) (A) (A) (A) (A) (A) (A) (A) (A) (A) (A)
                 (A) (A) (A) (A) (A) (A) (A) (A) (A) (A) (A) (A)
                 (A) (A) (A) (A) (A) (A) (A) (A) (A) (A) (A) (A)
                 (A) (A) (A) (A) (A) (A) (A) (A) (A) (A) (A) (A)
                 (A) (A) (A) (A) (A) (A) (A) (A) (A) (A) (A) (A)
                 (A) (A) (A) (A) (A) (A) (A) (A) (A) (A) (A) (A)
                 (A) (A) (A) (A) (A) (A) (A) (A) (A) (A) (A) (A)
                 (A) (A) (A) (A) (A) (A) (A) (A) (A) (A) (A) (A)
                 (A) (A) (A) (A) (A) (A) (A) (A) (A) (A) (A) (A)
                 (A) (A) (A) (A) (A) (A) (A) (A) (A) (A) (A) (A)
                 (A) (A) (A) (A) (A) (A) (A) (A) (A) (A) (A) (A)
                 (A) (A) (A) (A) (A) (A) (A) (A) (A) (A) (A) (A)
                 (A) (A) (A) (A) (A) (A) (A) (A) (A) (A) (A) (A)
                 (A) (A) (A) (A) (A) (A) (A) (A) (A) (A) (A) (A)
                 (A) (A) (A) (A) (A) (A) (A) (A) (A) (A) (A) (A)
                 (A) (A) (A) (A) (A) (A) (A) (A) (A) (A) (A) (A)
                 (A) (A) (A) (A) (A) (A) (A) (A) (A) (A) (A) (A)
                 (A) (A) (A) (A) (A) (A) (A) (A) (A) (A) (A) (A)
                 (A) (A) (A) (A) (A) (A) (A) (A) (A) (A) (A) (A)
                 (A) (A) (A) (A) (A) (A) (A) (A) (A) (A) (A) (A)
                 (A) (A) (A) (A) (A) (A) (A) (A) (A) (A) (A) (A)
                 (A) (A) (A) (A) (A) (A) (A) (A) (A) (A) (A) (A)
                 (A) (A) (A) (A) (A) (A) (A) (A) (A) (A) (A) (A)
                 (A) (A) (A) (A) (A) (A) (A) (A) (A) (A) (A) (A)
                 (A) (A) (A) (A) (A) (A) (A) (A) (A) (A) (A) (A)
                 (A) (A) (A) (A) (A) (A) (A) (A) (A) (A) (A) (A)
                 (A) (A) (A) (A) (A) (A) (A) (A) (A) (A) (A) (A)
                 (A) (A) (A) (A) (A) (A) (A) (A) (A) (A) (A) (A)
                 (A) (A) (A) (A) (A) (A) (A) (A) (A) (A) (A) (A)
                 (A) (A) (A) (A) (A) (A) (A) (A) (A) (A) (A) (A)
                 (A) (A) (A) (A)
 The electronic state is 1-A.
 Alpha  occ. eigenvalues --  -78.82180 -78.82180 -10.79784 -10.79783 -10.79783
 Alpha  occ. eigenvalues --  -10.79782 -10.79762 -10.79761  -7.12119  -7.12119
 Alpha  occ. eigenvalues --   -5.11551  -5.11550  -5.11543  -5.11543  -5.11355
 Alpha  occ. eigenvalues --   -5.11355  -4.16860  -2.33510  -2.31948  -2.31558
 Alpha  occ. eigenvalues --   -0.92730  -0.92554  -0.83980  -0.83974  -0.83935
 Alpha  occ. eigenvalues --   -0.83933  -0.66139  -0.64662  -0.54950  -0.53575
 Alpha  occ. eigenvalues --   -0.53469  -0.52042  -0.52020  -0.51988  -0.51950
 Alpha  occ. eigenvalues --   -0.49142  -0.49141  -0.49116  -0.49027  -0.47315
 Alpha  occ. eigenvalues --   -0.47287  -0.42457  -0.41460  -0.41268  -0.41023
 Alpha  occ. eigenvalues --   -0.40712  -0.34663  -0.29605  -0.28150  -0.27133
 Alpha  occ. eigenvalues --   -0.25598  -0.23044
 Alpha virt. eigenvalues --    0.04297   0.08416   0.08761   0.08940   0.12795
 Alpha virt. eigenvalues --    0.13147   0.13175   0.14014   0.15233   0.15379
 Alpha virt. eigenvalues --    0.15874   0.15968   0.16547   0.17492   0.17593
 Alpha virt. eigenvalues --    0.19446   0.19669   0.20138   0.20567   0.20735
 Alpha virt. eigenvalues --    0.21518   0.21754   0.21760   0.21936   0.22009
 Alpha virt. eigenvalues --    0.22216   0.22379   0.24525   0.24920   0.26163
 Alpha virt. eigenvalues --    0.26539   0.27394   0.27771   0.28370   0.28974
 Alpha virt. eigenvalues --    0.29990   0.30030   0.31108   0.33419   0.33515
 Alpha virt. eigenvalues --    0.34370   0.35110   0.36166   0.37290   0.37541
 Alpha virt. eigenvalues --    0.37671   0.39678   0.41921   0.43005   0.44931
 Alpha virt. eigenvalues --    0.45303   0.45693   0.46396   0.46712   0.47122
 Alpha virt. eigenvalues --    0.47611   0.48342   0.48473   0.49562   0.49719
 Alpha virt. eigenvalues --    0.50090   0.50864   0.52724   0.54016   0.54342
 Alpha virt. eigenvalues --    0.54892   0.55541   0.55607   0.55829   0.57721
 Alpha virt. eigenvalues --    0.57843   0.57976   0.58324   0.59946   0.60192
 Alpha virt. eigenvalues --    0.61189   0.61628   0.62316   0.63079   0.65303
 Alpha virt. eigenvalues --    0.65705   0.67504   0.67724   0.69171   0.69249
 Alpha virt. eigenvalues --    0.69826   0.73308   0.75056   0.76108   0.76699
 Alpha virt. eigenvalues --    0.77487   0.79741   0.81136   0.81929   0.82859
 Alpha virt. eigenvalues --    0.84406   0.84814   0.85409   0.86357   0.87114
 Alpha virt. eigenvalues --    0.87442   0.87482   0.87948   0.93096   0.93251
 Alpha virt. eigenvalues --    0.93281   0.94169   0.95958   1.00029   1.01283
 Alpha virt. eigenvalues --    1.02653   1.02722   1.03538   1.03713   1.04206
 Alpha virt. eigenvalues --    1.06661   1.07577   1.08568   1.08772   1.10814
 Alpha virt. eigenvalues --    1.13280   1.15564   1.15665   1.16252   1.16931
 Alpha virt. eigenvalues --    1.18578   1.18583   1.19207   1.19245   1.19886
 Alpha virt. eigenvalues --    1.20230   1.20431   1.21526   1.22836   1.23090
 Alpha virt. eigenvalues --    1.23405   1.25456   1.29300   1.31452   1.35382
 Alpha virt. eigenvalues --    1.45788   1.47969   1.48599   1.52741   1.57014
 Alpha virt. eigenvalues --    1.57963   1.58574   1.62128   1.62235   1.62276
 Alpha virt. eigenvalues --    1.64755   1.65704   1.66505   1.67304   1.67514
 Alpha virt. eigenvalues --    1.67837   1.67921   1.68101   1.68431   1.70799
 Alpha virt. eigenvalues --    1.70812   1.70980   1.71403   1.71831   1.72033
 Alpha virt. eigenvalues --    1.73180   1.73917   1.74073   1.74744   1.75384
 Alpha virt. eigenvalues --    1.76504   1.76636   1.76672   1.76897   1.77844
 Alpha virt. eigenvalues --    1.78082   1.78339   1.78827   1.79488   1.80038
 Alpha virt. eigenvalues --    1.81835   1.81907   1.82218   1.82377   1.83317
 Alpha virt. eigenvalues --    1.83535   1.84597   1.89078   1.89872   1.96715
 Alpha virt. eigenvalues --    1.97909   1.99066   2.00338   2.04222   2.04570
 Alpha virt. eigenvalues --    2.05385   2.05913   2.06492   2.07119   2.11901
 Alpha virt. eigenvalues --    2.12707   2.14013   2.17263   2.17795   2.18963
 Alpha virt. eigenvalues --    2.19569   2.19792   2.20957   2.21439   2.23913
 Alpha virt. eigenvalues --    2.24569   2.24602   2.26129   2.26182   2.26223
 Alpha virt. eigenvalues --    2.27172   2.27995   2.28143   2.31936   2.33085
 Alpha virt. eigenvalues --    2.33315   2.34363   2.35243   2.37522   2.38298
 Alpha virt. eigenvalues --    2.39466   2.40891   2.44076   2.45093   2.48197
 Alpha virt. eigenvalues --    2.48260   2.48463   2.49841   2.50038   2.50191
 Alpha virt. eigenvalues --    2.52633   2.52941   2.54827   2.55023   2.55158
 Alpha virt. eigenvalues --    2.57237   2.57884   2.61507   2.62250   2.63559
 Alpha virt. eigenvalues --    2.64065   2.65240   2.66000   2.67959   2.68802
 Alpha virt. eigenvalues --    2.68940   2.70074   2.72191   2.72335   2.74102
 Alpha virt. eigenvalues --    2.74488   2.76183   2.76234   2.76418   2.79384
 Alpha virt. eigenvalues --    2.79642   2.79896   2.80138   2.80604   2.82270
 Alpha virt. eigenvalues --    2.82699   2.83832   2.84352   2.86550   2.86673
 Alpha virt. eigenvalues --    2.88409   2.93394   2.95817   2.95935   3.03421
 Alpha virt. eigenvalues --    3.03443   3.04346   3.04750   3.05166   3.07556
 Alpha virt. eigenvalues --    3.08953   3.10250   3.14854   3.14894   3.17811
 Alpha virt. eigenvalues --    3.18490   3.29763   3.30609   3.33117   3.33641
 Alpha virt. eigenvalues --    3.33834   3.35425   3.35697   3.38415   3.40333
 Alpha virt. eigenvalues --    3.40660   3.41884   3.42311   3.42470   3.42689
 Alpha virt. eigenvalues --    3.49057   3.49571   3.50351   3.50535   3.52679
 Alpha virt. eigenvalues --    3.53005   3.53520   3.55361   3.55374   3.56593
 Alpha virt. eigenvalues --    3.56738   3.57127   3.58649   3.68624   3.68842
 Alpha virt. eigenvalues --    3.69643   3.69647   3.70053   3.70501   3.73364
 Alpha virt. eigenvalues --    3.74020   3.74492   3.74778   3.75236   3.75488
 Alpha virt. eigenvalues --    3.78601   3.80064   3.80992   3.81010   3.82644
 Alpha virt. eigenvalues --    3.83032   3.83417   3.83854   3.83989   3.84009
 Alpha virt. eigenvalues --    3.88311   3.89061   3.89572   3.90842   3.92037
 Alpha virt. eigenvalues --    3.92237   3.93130   3.95166   3.97504   3.99835
 Alpha virt. eigenvalues --    4.00074   4.00091   4.05119   4.08004   4.13339
 Alpha virt. eigenvalues --    4.27518   4.46469   4.48662   4.48860   4.49432
 Alpha virt. eigenvalues --    4.49602   4.49723   4.49980   4.52246   4.54616
 Alpha virt. eigenvalues --    4.55724   4.56175   4.56357   4.61299   4.61473
 Alpha virt. eigenvalues --    4.66730   4.66924   4.67162   4.67292   5.43837
 Alpha virt. eigenvalues --    5.55404   5.64277   5.70238   5.75311   5.76101
 Alpha virt. eigenvalues --    5.84129   5.85113   5.88552   5.97701   6.08230
 Alpha virt. eigenvalues --    6.09642   8.17138   8.18738   8.19312   8.20364
 Alpha virt. eigenvalues --    8.20653   8.25153  15.95528  15.97076  22.99081
 Alpha virt. eigenvalues --   22.99209  22.99340  22.99640  22.99818  23.00254
 Alpha virt. eigenvalues --   29.52351  31.05638  37.00073  58.14559 296.13043
          Condensed to atoms (all electrons):
               1          2          3          4          5          6
     1  Pt  17.858824   0.407440   0.407485  -0.046409  -0.004262   0.010384
     2  P    0.407440  13.581331  -0.018297   0.345769  -0.022576  -0.033148
     3  P    0.407485  -0.018297  13.581229   0.000325  -0.000050  -0.000006
     4  C   -0.046409   0.345769   0.000325   5.018073   0.402805   0.399069
     5  H   -0.004262  -0.022576  -0.000050   0.402805   0.511821  -0.023377
     6  H    0.010384  -0.033148  -0.000006   0.399069  -0.023377   0.546119
     7  H   -0.006536  -0.023726  -0.000066   0.403663  -0.013403  -0.023586
     8  C   -0.036300   0.337384   0.000905  -0.042348  -0.000351  -0.005849
     9  H   -0.002106  -0.022432  -0.000005   0.005097  -0.000134  -0.000173
    10  H    0.008815  -0.032744  -0.000033  -0.005657  -0.000257   0.004275
    11  H   -0.002142  -0.022338  -0.000007  -0.001261   0.001083  -0.000185
    12  C   -0.048623   0.347561   0.000097  -0.040476   0.005064  -0.005613
    13  H   -0.006556  -0.023776  -0.000029   0.000160  -0.000082  -0.000391
    14  H    0.010533  -0.033359  -0.000001  -0.005735  -0.000239   0.003961
    15  H   -0.004395  -0.022499  -0.000063   0.005097  -0.000102  -0.000250
    16  C   -0.048604   0.000100   0.347545  -0.000183   0.000042   0.000003
    17  H   -0.006556  -0.000029  -0.023776   0.000041  -0.000001  -0.000004
    18  H    0.010533  -0.000001  -0.033357   0.000004  -0.000001   0.000000
    19  H   -0.004393  -0.000062  -0.022499   0.000048  -0.000001  -0.000001
    20  C   -0.036300   0.000905   0.337388  -0.000026  -0.000002   0.000000
    21  H    0.008815  -0.000033  -0.032743   0.000001   0.000000  -0.000000
    22  H   -0.002142  -0.000007  -0.022340  -0.000000   0.000000   0.000000
    23  H   -0.002106  -0.000005  -0.022432   0.000001  -0.000000  -0.000000
    24  C   -0.046434   0.000322   0.345800   0.000042  -0.000002  -0.000000
    25  H   -0.004263  -0.000050  -0.022575  -0.000002   0.000000  -0.000000
    26  H    0.010387  -0.000006  -0.033152  -0.000000  -0.000000   0.000000
    27  H   -0.006538  -0.000066  -0.023726  -0.000005   0.000000  -0.000001
    28  H   -0.031056  -0.009085   0.003045   0.000305   0.000048  -0.000018
    29  H   -0.031113   0.003038  -0.009079   0.000312   0.000048  -0.000031
               7          8          9         10         11         12
     1  Pt  -0.006536  -0.036300  -0.002106   0.008815  -0.002142  -0.048623
     2  P   -0.023726   0.337384  -0.022432  -0.032744  -0.022338   0.347561
     3  P   -0.000066   0.000905  -0.000005  -0.000033  -0.000007   0.000097
     4  C    0.403663  -0.042348   0.005097  -0.005657  -0.001261  -0.040476
     5  H   -0.013403  -0.000351  -0.000134  -0.000257   0.001083   0.005064
     6  H   -0.023586  -0.005849  -0.000173   0.004275  -0.000185  -0.005613
     7  H    0.510123   0.005017  -0.000094  -0.000233  -0.000081   0.000224
     8  C    0.005017   5.039671   0.403285   0.399370   0.402834  -0.043690
     9  H   -0.000094   0.403285   0.513173  -0.022798  -0.016663  -0.001256
    10  H   -0.000233   0.399370  -0.022798   0.545585  -0.022766  -0.005468
    11  H   -0.000081   0.402834  -0.016663  -0.022766   0.514209   0.005127
    12  C    0.000224  -0.043690  -0.001256  -0.005468   0.005127   5.018156
    13  H    0.001340   0.005040  -0.000082  -0.000232  -0.000095   0.403791
    14  H   -0.000385  -0.005790  -0.000171   0.004234  -0.000168   0.399427
    15  H   -0.000088  -0.000438   0.001099  -0.000269  -0.000126   0.402894
    16  C    0.000065  -0.000019  -0.000000   0.000000   0.000001   0.000060
    17  H    0.000073  -0.000001   0.000000   0.000000  -0.000000  -0.000000
    18  H   -0.000003   0.000000   0.000000  -0.000000  -0.000000  -0.000001
    19  H   -0.000004  -0.000003   0.000000   0.000000  -0.000000  -0.000002
    20  C   -0.000001  -0.000002  -0.000001   0.000000  -0.000001  -0.000019
    21  H    0.000000   0.000000   0.000000  -0.000000   0.000000   0.000000
    22  H    0.000000  -0.000001   0.000000   0.000000   0.000000   0.000001
    23  H   -0.000000  -0.000001   0.000000   0.000000   0.000000  -0.000000
    24  C   -0.000005  -0.000026   0.000001   0.000001  -0.000000  -0.000182
    25  H    0.000000  -0.000002  -0.000000   0.000000   0.000000   0.000042
    26  H   -0.000001   0.000000  -0.000000  -0.000000   0.000000   0.000003
    27  H    0.000005  -0.000001  -0.000000   0.000000   0.000000   0.000065
    28  H    0.000015  -0.000680   0.000211  -0.000070   0.000201   0.000251
    29  H    0.000009  -0.006154   0.000500   0.000175   0.000590   0.000400
              13         14         15         16         17         18
     1  Pt  -0.006556   0.010533  -0.004395  -0.048604  -0.006556   0.010533
     2  P   -0.023776  -0.033359  -0.022499   0.000100  -0.000029  -0.000001
     3  P   -0.000029  -0.000001  -0.000063   0.347545  -0.023776  -0.033357
     4  C    0.000160  -0.005735   0.005097  -0.000183   0.000041   0.000004
     5  H   -0.000082  -0.000239  -0.000102   0.000042  -0.000001  -0.000001
     6  H   -0.000391   0.003961  -0.000250   0.000003  -0.000004   0.000000
     7  H    0.001340  -0.000385  -0.000088   0.000065   0.000073  -0.000003
     8  C    0.005040  -0.005790  -0.000438  -0.000019  -0.000001   0.000000
     9  H   -0.000082  -0.000171   0.001099  -0.000000   0.000000   0.000000
    10  H   -0.000232   0.004234  -0.000269   0.000000   0.000000  -0.000000
    11  H   -0.000095  -0.000168  -0.000126   0.000001  -0.000000  -0.000000
    12  C    0.403791   0.399427   0.402894   0.000060  -0.000000  -0.000001
    13  H    0.510602  -0.023768  -0.013434  -0.000000   0.000017  -0.000001
    14  H   -0.023768   0.546453  -0.023534  -0.000001  -0.000001   0.000000
    15  H   -0.013434  -0.023534   0.511813  -0.000002   0.000001  -0.000000
    16  C   -0.000000  -0.000001  -0.000002   5.018169   0.403790   0.399422
    17  H    0.000017  -0.000001   0.000001   0.403790   0.510600  -0.023766
    18  H   -0.000001   0.000000  -0.000000   0.399422  -0.023766   0.546449
    19  H    0.000001  -0.000000   0.000000   0.402893  -0.013433  -0.023532
    20  C   -0.000001   0.000000  -0.000003  -0.043675   0.005040  -0.005790
    21  H    0.000000  -0.000000   0.000000  -0.005470  -0.000232   0.004234
    22  H   -0.000000  -0.000000  -0.000000   0.005126  -0.000095  -0.000168
    23  H    0.000000   0.000000   0.000000  -0.001257  -0.000082  -0.000171
    24  C    0.000041   0.000004   0.000049  -0.040475   0.000160  -0.005732
    25  H   -0.000001  -0.000001  -0.000001   0.005064  -0.000082  -0.000239
    26  H   -0.000004   0.000000  -0.000001  -0.005614  -0.000391   0.003961
    27  H    0.000073  -0.000003  -0.000004   0.000224   0.001341  -0.000386
    28  H    0.000013  -0.000017   0.000043   0.000399   0.000006  -0.000032
    29  H    0.000006  -0.000032   0.000038   0.000252   0.000013  -0.000017
              19         20         21         22         23         24
     1  Pt  -0.004393  -0.036300   0.008815  -0.002142  -0.002106  -0.046434
     2  P   -0.000062   0.000905  -0.000033  -0.000007  -0.000005   0.000322
     3  P   -0.022499   0.337388  -0.032743  -0.022340  -0.022432   0.345800
     4  C    0.000048  -0.000026   0.000001  -0.000000   0.000001   0.000042
     5  H   -0.000001  -0.000002   0.000000   0.000000  -0.000000  -0.000002
     6  H   -0.000001   0.000000  -0.000000   0.000000  -0.000000  -0.000000
     7  H   -0.000004  -0.000001   0.000000   0.000000  -0.000000  -0.000005
     8  C   -0.000003  -0.000002   0.000000  -0.000001  -0.000001  -0.000026
     9  H    0.000000  -0.000001   0.000000   0.000000   0.000000   0.000001
    10  H    0.000000   0.000000  -0.000000   0.000000   0.000000   0.000001
    11  H   -0.000000  -0.000001   0.000000   0.000000   0.000000  -0.000000
    12  C   -0.000002  -0.000019   0.000000   0.000001  -0.000000  -0.000182
    13  H    0.000001  -0.000001   0.000000  -0.000000   0.000000   0.000041
    14  H   -0.000000   0.000000  -0.000000  -0.000000   0.000000   0.000004
    15  H    0.000000  -0.000003   0.000000  -0.000000   0.000000   0.000049
    16  C    0.402893  -0.043675  -0.005470   0.005126  -0.001257  -0.040475
    17  H   -0.013433   0.005040  -0.000232  -0.000095  -0.000082   0.000160
    18  H   -0.023532  -0.005790   0.004234  -0.000168  -0.000171  -0.005732
    19  H    0.511811  -0.000437  -0.000268  -0.000126   0.001099   0.005097
    20  C   -0.000437   5.039693   0.399368   0.402841   0.403280  -0.042375
    21  H   -0.000268   0.399368   0.545583  -0.022765  -0.022796  -0.005654
    22  H   -0.000126   0.402841  -0.022765   0.514197  -0.016666  -0.001259
    23  H    0.001099   0.403280  -0.022796  -0.016666   0.513189   0.005098
    24  C    0.005097  -0.042375  -0.005654  -0.001259   0.005098   5.018064
    25  H   -0.000102  -0.000352  -0.000256   0.001083  -0.000134   0.402808
    26  H   -0.000250  -0.005848   0.004275  -0.000185  -0.000173   0.399075
    27  H   -0.000088   0.005017  -0.000233  -0.000081  -0.000094   0.403663
    28  H    0.000039  -0.006164   0.000175   0.000589   0.000502   0.000314
    29  H    0.000043  -0.000682  -0.000070   0.000201   0.000211   0.000304
              25         26         27         28         29
     1  Pt  -0.004263   0.010387  -0.006538  -0.031056  -0.031113
     2  P   -0.000050  -0.000006  -0.000066  -0.009085   0.003038
     3  P   -0.022575  -0.033152  -0.023726   0.003045  -0.009079
     4  C   -0.000002  -0.000000  -0.000005   0.000305   0.000312
     5  H    0.000000  -0.000000   0.000000   0.000048   0.000048
     6  H   -0.000000   0.000000  -0.000001  -0.000018  -0.000031
     7  H    0.000000  -0.000001   0.000005   0.000015   0.000009
     8  C   -0.000002   0.000000  -0.000001  -0.000680  -0.006154
     9  H   -0.000000  -0.000000  -0.000000   0.000211   0.000500
    10  H    0.000000  -0.000000   0.000000  -0.000070   0.000175
    11  H    0.000000   0.000000   0.000000   0.000201   0.000590
    12  C    0.000042   0.000003   0.000065   0.000251   0.000400
    13  H   -0.000001  -0.000004   0.000073   0.000013   0.000006
    14  H   -0.000001   0.000000  -0.000003  -0.000017  -0.000032
    15  H   -0.000001  -0.000001  -0.000004   0.000043   0.000038
    16  C    0.005064  -0.005614   0.000224   0.000399   0.000252
    17  H   -0.000082  -0.000391   0.001341   0.000006   0.000013
    18  H   -0.000239   0.003961  -0.000386  -0.000032  -0.000017
    19  H   -0.000102  -0.000250  -0.000088   0.000039   0.000043
    20  C   -0.000352  -0.005848   0.005017  -0.006164  -0.000682
    21  H   -0.000256   0.004275  -0.000233   0.000175  -0.000070
    22  H    0.001083  -0.000185  -0.000081   0.000589   0.000201
    23  H   -0.000134  -0.000173  -0.000094   0.000502   0.000211
    24  C    0.402808   0.399075   0.403663   0.000314   0.000304
    25  H    0.511817  -0.023379  -0.013403   0.000048   0.000048
    26  H   -0.023379   0.546125  -0.023589  -0.000031  -0.000018
    27  H   -0.013403  -0.023589   0.510133   0.000009   0.000015
    28  H    0.000048  -0.000031   0.000009   0.623222   0.404513
    29  H    0.000048  -0.000018   0.000015   0.404513   0.623236
 Mulliken charges:
               1
     1  Pt  -0.356380
     2  P    0.240388
     3  P    0.240417
     4  C   -0.438711
     5  H    0.143929
     6  H    0.128821
     7  H    0.147676
     8  C   -0.451850
     9  H    0.142549
    10  H    0.128070
    11  H    0.141790
    12  C   -0.437833
    13  H    0.147368
    14  H    0.128592
    15  H    0.144173
    16  C   -0.437857
    17  H    0.147370
    18  H    0.128595
    19  H    0.144171
    20  C   -0.451854
    21  H    0.128068
    22  H    0.141799
    23  H    0.142538
    24  C   -0.438698
    25  H    0.143933
    26  H    0.128817
    27  H    0.147670
    28  H    0.013207
    29  H    0.013242
 Sum of Mulliken charges =  -0.00000
 Mulliken charges with hydrogens summed into heavy atoms:
               1
     1  Pt  -0.329931
     2  P    0.240388
     3  P    0.240417
     4  C   -0.018284
     8  C   -0.039441
    12  C   -0.017700
    16  C   -0.017721
    20  C   -0.039449
    24  C   -0.018278
 Electronic spatial extent (au):  <R**2>=           3185.7455
 Charge=             -0.0000 electrons
 Dipole moment (field-independent basis, Debye):
    X=              0.0003    Y=              0.9074    Z=              0.0003  Tot=              0.9074
 Quadrupole moment (field-independent basis, Debye-Ang):
   XX=            -79.0821   YY=            -92.7046   ZZ=            -93.0320
   XY=             -0.0003   XZ=              0.0376   YZ=             -0.0002
 Traceless Quadrupole moment (field-independent basis, Debye-Ang):
   XX=              9.1908   YY=             -4.4317   ZZ=             -4.7591
   XY=             -0.0003   XZ=              0.0376   YZ=             -0.0002
 Octapole moment (field-independent basis, Debye-Ang**2):
  XXX=              0.0021  YYY=            -38.5496  ZZZ=             -0.0119  XYY=              0.0025
  XXY=             -8.3631  XXZ=              0.0007  XZZ=             -0.0002  YZZ=            -17.6662
  YYZ=              0.0073  XYZ=             -0.2168
 Hexadecapole moment (field-independent basis, Debye-Ang**3):
 XXXX=          -3129.5451 YYYY=           -678.9352 ZZZZ=           -546.0838 XXXY=             -0.0002
 XXXZ=              1.3349 YYYX=             -0.0095 YYYZ=              0.0116 ZZZX=             -2.0619
 ZZZY=             -0.0052 XXYY=           -655.9395 XXZZ=           -631.4778 YYZZ=           -208.9524
 XXYZ=             -0.0126 YYXZ=              1.8420 ZZXY=              0.0038
 N-N= 8.262629946690D+02 E-N=-4.081932027593D+03  KE= 9.609252139938D+02
 Leave Link  601 at Sat Nov  9 16:56:36 2019, MaxMem= 26843545600 cpu:               3.0 elap:               0.2
 (Enter /share/home/wli/program/opt/Chem_soft/g16/l9999.exe)
 1\1\GINC-C01N07\SP\RDSDPBEP86-FC\GenECP\C6H20P2Pt1\ROOT\09-Nov-2019\0\
 \#p dsdpbep86/genecp geom=check scrf=(smd,solvent=benzene)\\title\\0,1
 \Pt,0,-0.000087484,-0.3736730556,0.0156970064\P,0,2.1602409009,0.23253
 37268,-0.0019436654\P,0,-2.1606660526,0.2317099682,0.0086200397\C,0,2.
 6844933,1.2135326036,1.4424907414\H,0,2.5517819794,0.6208721659,2.3498
 107733\H,0,3.7319777265,1.5193952442,1.3619641783\H,0,2.0514869572,2.0
 98862228,1.5228167917\C,0,3.4869864395,-1.0244162697,-0.0738320726\H,0
 ,3.3616477818,-1.6264624599,-0.9767337541\H,0,4.4847268237,-0.57515867
 ,-0.0788044419\H,0,3.3982772549,-1.6891291198,0.7885852735\C,0,2.63213
 46804,1.3175629616,-1.3890117967\H,0,1.99872065,2.2061634594,-1.379224
 9056\H,0,3.6829153116,1.6164929646,-1.3268842546\H,0,2.4626434087,0.79
 33504292,-2.3316684358\C,0,-2.6335502408,1.3704561692,1.351598175\H,0,
 -2.0005321026,2.2582720275,1.3069421373\H,0,-3.6844412793,1.6662169956
 ,1.2773584643\H,0,-2.4641607713,0.8839612725,2.314281695\C,0,-3.486865
 3248,-1.0220542239,0.129633501\H,0,-4.4848172692,-0.5734307297,0.11650
 79475\H,0,-3.3975325237,-1.7202759458,-0.7058210506\H,0,-3.3615720818,
 -1.5879048054,1.0556548312\C,0,-2.6848798937,1.1546624894,-1.473584823
 \H,0,-2.5513733301,0.5268027035,-2.3567913757\H,0,-3.7325967938,1.4627
 738372,-1.4056242314\H,0,-2.0523999631,2.0365524231,-1.588458073\H,0,-
 0.3882734233,-2.5048777885,0.0643276899\H,0,0.3889789278,-2.5055228417
 ,0.0541545132\\Version=ES64L-G16RevA.03\State=1-A\HF=-1040.5955343\MP2
 =-1041.6433631\RMSD=3.955e-09\PG=C01 [X(C6H20P2Pt1)]\\@


     SCHOPENHAUER'S LAW OF ENTROPY
 IF YOU PUT A SPOONFUL OF WINE IN A BARREL FULL
 OF SEWAGE, YOU GET SEWAGE.
 IF YOU PUT A SPOONFUL OF SEWAGE IN A BARREL FULL
 OF WINE, YOU GET SEWAGE.
 Job cpu time:       0 days  2 hours  0 minutes 26.5 seconds.
 Elapsed time:       0 days  0 hours  5 minutes  3.3 seconds.
 File lengths (MBytes):  RWF=    416 Int=      0 D2E=      0 Chk=   1072 Scr=     32
 Normal termination of Gaussian 16 at Sat Nov  9 16:56:36 2019.
