 Entering Gaussian System, Link 0=g16
 Input=Pt_tsb_optfreq.gjf
 Output=Pt_tsb_optfreq.log
 Initial command:
 /share/home/wli/program/opt/Chem_soft/g16/l1.exe "/scratch/wli/Gau-13795.inp" -scrdir="/scratch/wli/"
 Entering Link 1 = /share/home/wli/program/opt/Chem_soft/g16/l1.exe PID=     13796.
  
 Copyright (c) 1988,1990,1992,1993,1995,1998,2003,2009,2016,
            Gaussian, Inc.  All Rights Reserved.
  
 This is part of the Gaussian(R) 16 program.  It is based on
 the Gaussian(R) 09 system (copyright 2009, Gaussian, Inc.),
 the Gaussian(R) 03 system (copyright 2003, Gaussian, Inc.),
 the Gaussian(R) 98 system (copyright 1998, Gaussian, Inc.),
 the Gaussian(R) 94 system (copyright 1995, Gaussian, Inc.),
 the Gaussian 92(TM) system (copyright 1992, Gaussian, Inc.),
 the Gaussian 90(TM) system (copyright 1990, Gaussian, Inc.),
 the Gaussian 88(TM) system (copyright 1988, Gaussian, Inc.),
 the Gaussian 86(TM) system (copyright 1986, Carnegie Mellon
 University), and the Gaussian 82(TM) system (copyright 1983,
 Carnegie Mellon University). Gaussian is a federally registered
 trademark of Gaussian, Inc.
  
 This software contains proprietary and confidential information,
 including trade secrets, belonging to Gaussian, Inc.
  
 This software is provided under written license and may be
 used, copied, transmitted, or stored only in accord with that
 written license.
  
 The following legend is applicable only to US Government
 contracts under FAR:
  
                    RESTRICTED RIGHTS LEGEND
  
 Use, reproduction and disclosure by the US Government is
 subject to restrictions as set forth in subparagraphs (a)
 and (c) of the Commercial Computer Software - Restricted
 Rights clause in FAR 52.227-19.
  
 Gaussian, Inc.
 340 Quinnipiac St., Bldg. 40, Wallingford CT 06492
  
  
 ---------------------------------------------------------------
 Warning -- This program may not be used in any manner that
 competes with the business of Gaussian, Inc. or will provide
 assistance to any competitor of Gaussian, Inc.  The licensee
 of this program is prohibited from giving any competitor of
 Gaussian, Inc. access to this program.  By using this program,
 the user acknowledges that Gaussian, Inc. is engaged in the
 business of creating and licensing software in the field of
 computational chemistry and represents and warrants to the
 licensee that it is not a competitor of Gaussian, Inc. and that
 it will not use this program in any manner prohibited above.
 ---------------------------------------------------------------
  

 Cite this work as:
 Gaussian 16, Revision A.03,
 M. J. Frisch, G. W. Trucks, H. B. Schlegel, G. E. Scuseria, 
 M. A. Robb, J. R. Cheeseman, G. Scalmani, V. Barone, 
 G. A. Petersson, H. Nakatsuji, X. Li, M. Caricato, A. V. Marenich, 
 J. Bloino, B. G. Janesko, R. Gomperts, B. Mennucci, H. P. Hratchian, 
 J. V. Ortiz, A. F. Izmaylov, J. L. Sonnenberg, D. Williams-Young, 
 F. Ding, F. Lipparini, F. Egidi, J. Goings, B. Peng, A. Petrone, 
 T. Henderson, D. Ranasinghe, V. G. Zakrzewski, J. Gao, N. Rega, 
 G. Zheng, W. Liang, M. Hada, M. Ehara, K. Toyota, R. Fukuda, 
 J. Hasegawa, M. Ishida, T. Nakajima, Y. Honda, O. Kitao, H. Nakai, 
 T. Vreven, K. Throssell, J. A. Montgomery, Jr., J. E. Peralta, 
 F. Ogliaro, M. J. Bearpark, J. J. Heyd, E. N. Brothers, K. N. Kudin, 
 V. N. Staroverov, T. A. Keith, R. Kobayashi, J. Normand, 
 K. Raghavachari, A. P. Rendell, J. C. Burant, S. S. Iyengar, 
 J. Tomasi, M. Cossi, J. M. Millam, M. Klene, C. Adamo, R. Cammi, 
 J. W. Ochterski, R. L. Martin, K. Morokuma, O. Farkas, 
 J. B. Foresman, and D. J. Fox, Gaussian, Inc., Wallingford CT, 2016.
 
 ******************************************
 Gaussian 16:  ES64L-G16RevA.03 25-Dec-2016
                 9-Nov-2019 
 ******************************************
 %chk=Pt_tsb.chk
 %nprocshared=24
 Will use up to   24 processors via shared memory.
 ----------------------------------------------------------------------
 #p opt=(ts,calcall,noeigen) pbe1pbe/def2tzvp em=gd3bj geom=allcheck sc
 rf=(smd,solvent=benzene)
 ----------------------------------------------------------------------
 1/5=1,10=4,11=1,18=20,26=3,29=7,38=1/1,3;
 2/9=110,12=2,40=1/2;
 3/5=44,7=101,11=2,14=-4,25=1,30=1,70=32201,71=2,72=12,74=-13,124=41,140=1/1,2,3;
 4//1;
 5/5=2,38=5,53=12/2;
 8/6=4,10=90,11=11/1;
 11/6=1,8=1,9=11,15=111,16=1/1,2,10;
 10/6=1/2;
 6/7=2,8=2,9=2,10=2,18=1,28=1/1;
 7/10=1,25=1/1,2,3,16;
 1/5=1,10=4,11=1,18=20,26=3/3(3);
 2/9=110/2;
 7/8=1,9=1,25=1,44=-1/16;
 99//99;
 2/9=110/2;
 3/5=44,7=101,11=2,14=-2,25=1,30=1,70=32205,71=2,72=12,74=-13,124=41,140=1/1,2,3;
 4/5=5,16=3,69=1/1;
 5/5=2,38=5,53=12/2;
 8/6=4,10=90,11=11/1;
 11/6=1,8=1,9=11,15=111,16=1/1,2,10;
 10/6=1/2;
 7/10=1,25=1/1,2,3,16;
 1/5=1,10=4,11=1,18=20,26=3/3(-8);
 2/9=110/2;
 6/7=2,8=2,9=2,10=2,18=1,19=2,28=1/1;
 7/8=1,9=1,25=1,44=-1/16;
 99//99;
 Leave Link    1 at Sat Nov  9 02:09:50 2019, MaxMem=           0 cpu:               8.0 elap:               0.3
 (Enter /share/home/wli/program/opt/Chem_soft/g16/l101.exe)
 Structure from the checkpoint file:  "Pt_tsb.chk"
 -------------------
 Title Card Required
 -------------------
 Charge =  0 Multiplicity = 1
 Redundant internal coordinates found in file.  (old form).
 Pt,0,-0.000087484,-0.3736730556,0.0156970064
 P,0,2.1602409009,0.2325337268,-0.0019436654
 P,0,-2.1606660526,0.2317099682,0.0086200397
 C,0,2.6844933,1.2135326036,1.4424907414
 H,0,2.5517819794,0.6208721659,2.3498107733
 H,0,3.7319777265,1.5193952442,1.3619641783
 H,0,2.0514869572,2.098862228,1.5228167917
 C,0,3.4869864395,-1.0244162697,-0.0738320726
 H,0,3.3616477818,-1.6264624599,-0.9767337541
 H,0,4.4847268237,-0.57515867,-0.0788044419
 H,0,3.3982772549,-1.6891291198,0.7885852735
 C,0,2.6321346804,1.3175629616,-1.3890117967
 H,0,1.99872065,2.2061634594,-1.3792249056
 H,0,3.6829153116,1.6164929646,-1.3268842546
 H,0,2.4626434087,0.7933504292,-2.3316684358
 C,0,-2.6335502408,1.3704561692,1.351598175
 H,0,-2.0005321026,2.2582720275,1.3069421373
 H,0,-3.6844412793,1.6662169956,1.2773584643
 H,0,-2.4641607713,0.8839612725,2.314281695
 C,0,-3.4868653248,-1.0220542239,0.129633501
 H,0,-4.4848172692,-0.5734307297,0.1165079475
 H,0,-3.3975325237,-1.7202759458,-0.7058210506
 H,0,-3.3615720818,-1.5879048054,1.0556548312
 C,0,-2.6848798937,1.1546624894,-1.473584823
 H,0,-2.5513733301,0.5268027035,-2.3567913757
 H,0,-3.7325967938,1.4627738372,-1.4056242314
 H,0,-2.0523999631,2.0365524231,-1.588458073
 H,0,-0.3882734233,-2.5048777885,0.0643276899
 H,0,0.3889789278,-2.5055228417,0.0541545132
 Recover connectivity data from disk.
 ITRead=  0  0  0  0  0  0  0  0  0  0  0  0  0  0  0  0  0  0  0  0
 ITRead=  0  0  0  0  0  0  0  0  0
 MicOpt= -1 -1 -1 -1 -1 -1 -1 -1 -1 -1 -1 -1 -1 -1 -1 -1 -1 -1 -1 -1
 MicOpt= -1 -1 -1 -1 -1 -1 -1 -1 -1
 NAtoms=     29 NQM=       29 NQMF=       0 NMMI=      0 NMMIF=      0
                NMic=       0 NMicF=      0.
                    Isotopes and Nuclear Properties:
 (Nuclear quadrupole moments (NQMom) in fm**2, nuclear magnetic moments (NMagM)
  in nuclear magnetons)

  Atom         1           2           3           4           5           6           7           8           9          10
 IAtWgt=         195          31          31          12           1           1           1          12           1           1
 AtmWgt= 194.9648000  30.9737634  30.9737634  12.0000000   1.0078250   1.0078250   1.0078250  12.0000000   1.0078250   1.0078250
 NucSpn=           1           1           1           0           1           1           1           0           1           1
 AtZEff=1176.2400000  12.9400000  12.9400000   3.6000000   1.0000000   1.0000000   1.0000000   3.6000000   1.0000000   1.0000000
 NQMom=    0.0000000   0.0000000   0.0000000   0.0000000   0.0000000   0.0000000   0.0000000   0.0000000   0.0000000   0.0000000
 NMagM=    0.6095000   1.1316000   1.1316000   0.0000000   2.7928460   2.7928460   2.7928460   0.0000000   2.7928460   2.7928460
 AtZNuc=  78.0000000  15.0000000  15.0000000   6.0000000   1.0000000   1.0000000   1.0000000   6.0000000   1.0000000   1.0000000

  Atom        11          12          13          14          15          16          17          18          19          20
 IAtWgt=           1          12           1           1           1          12           1           1           1          12
 AtmWgt=   1.0078250  12.0000000   1.0078250   1.0078250   1.0078250  12.0000000   1.0078250   1.0078250   1.0078250  12.0000000
 NucSpn=           1           0           1           1           1           0           1           1           1           0
 AtZEff=   1.0000000   3.6000000   1.0000000   1.0000000   1.0000000   3.6000000   1.0000000   1.0000000   1.0000000   3.6000000
 NQMom=    0.0000000   0.0000000   0.0000000   0.0000000   0.0000000   0.0000000   0.0000000   0.0000000   0.0000000   0.0000000
 NMagM=    2.7928460   0.0000000   2.7928460   2.7928460   2.7928460   0.0000000   2.7928460   2.7928460   2.7928460   0.0000000
 AtZNuc=   1.0000000   6.0000000   1.0000000   1.0000000   1.0000000   6.0000000   1.0000000   1.0000000   1.0000000   6.0000000

  Atom        21          22          23          24          25          26          27          28          29
 IAtWgt=           1           1           1          12           1           1           1           1           1
 AtmWgt=   1.0078250   1.0078250   1.0078250  12.0000000   1.0078250   1.0078250   1.0078250   1.0078250   1.0078250
 NucSpn=           1           1           1           0           1           1           1           1           1
 AtZEff=   1.0000000   1.0000000   1.0000000   3.6000000   1.0000000   1.0000000   1.0000000   1.0000000   1.0000000
 NQMom=    0.0000000   0.0000000   0.0000000   0.0000000   0.0000000   0.0000000   0.0000000   0.0000000   0.0000000
 NMagM=    2.7928460   2.7928460   2.7928460   0.0000000   2.7928460   2.7928460   2.7928460   2.7928460   2.7928460
 AtZNuc=   1.0000000   1.0000000   1.0000000   6.0000000   1.0000000   1.0000000   1.0000000   1.0000000   1.0000000
 Leave Link  101 at Sat Nov  9 02:09:51 2019, MaxMem=   104857600 cpu:               2.8 elap:               0.1
 (Enter /share/home/wli/program/opt/Chem_soft/g16/l103.exe)

 GradGradGradGradGradGradGradGradGradGradGradGradGradGradGradGradGradGrad
 Berny optimization.
 Initialization pass.
                           ----------------------------
                           !    Initial Parameters    !
                           ! (Angstroms and Degrees)  !
 --------------------------                            --------------------------
 ! Name  Definition              Value          Derivative Info.                !
 --------------------------------------------------------------------------------
 ! R1    R(1,2)                  2.2438         calculate D2E/DX2 analytically  !
 ! R2    R(1,3)                  2.2438         calculate D2E/DX2 analytically  !
 ! R3    R(1,28)                 2.1668         calculate D2E/DX2 analytically  !
 ! R4    R(1,29)                 2.1674         calculate D2E/DX2 analytically  !
 ! R5    R(2,4)                  1.8231         calculate D2E/DX2 analytically  !
 ! R6    R(2,8)                  1.829          calculate D2E/DX2 analytically  !
 ! R7    R(2,12)                 1.8232         calculate D2E/DX2 analytically  !
 ! R8    R(3,16)                 1.8232         calculate D2E/DX2 analytically  !
 ! R9    R(3,20)                 1.829          calculate D2E/DX2 analytically  !
 ! R10   R(3,24)                 1.8231         calculate D2E/DX2 analytically  !
 ! R11   R(4,5)                  1.0918         calculate D2E/DX2 analytically  !
 ! R12   R(4,6)                  1.0942         calculate D2E/DX2 analytically  !
 ! R13   R(4,7)                  1.0913         calculate D2E/DX2 analytically  !
 ! R14   R(8,9)                  1.0924         calculate D2E/DX2 analytically  !
 ! R15   R(8,10)                 1.0942         calculate D2E/DX2 analytically  !
 ! R16   R(8,11)                 1.0925         calculate D2E/DX2 analytically  !
 ! R17   R(12,13)                1.0913         calculate D2E/DX2 analytically  !
 ! R18   R(12,14)                1.0942         calculate D2E/DX2 analytically  !
 ! R19   R(12,15)                1.0918         calculate D2E/DX2 analytically  !
 ! R20   R(16,17)                1.0913         calculate D2E/DX2 analytically  !
 ! R21   R(16,18)                1.0942         calculate D2E/DX2 analytically  !
 ! R22   R(16,19)                1.0918         calculate D2E/DX2 analytically  !
 ! R23   R(20,21)                1.0942         calculate D2E/DX2 analytically  !
 ! R24   R(20,22)                1.0925         calculate D2E/DX2 analytically  !
 ! R25   R(20,23)                1.0924         calculate D2E/DX2 analytically  !
 ! R26   R(24,25)                1.0918         calculate D2E/DX2 analytically  !
 ! R27   R(24,26)                1.0942         calculate D2E/DX2 analytically  !
 ! R28   R(24,27)                1.0913         calculate D2E/DX2 analytically  !
 ! R29   R(28,29)                0.7773         calculate D2E/DX2 analytically  !
 ! A1    A(2,1,3)              148.6667         calculate D2E/DX2 analytically  !
 ! A2    A(2,1,28)             116.0008         calculate D2E/DX2 analytically  !
 ! A3    A(2,1,29)              95.3388         calculate D2E/DX2 analytically  !
 ! A4    A(3,1,28)              95.3324         calculate D2E/DX2 analytically  !
 ! A5    A(3,1,29)             115.9944         calculate D2E/DX2 analytically  !
 ! A6    A(1,2,4)              114.5829         calculate D2E/DX2 analytically  !
 ! A7    A(1,2,8)              120.8659         calculate D2E/DX2 analytically  !
 ! A8    A(1,2,12)             114.5801         calculate D2E/DX2 analytically  !
 ! A9    A(4,2,8)              101.0895         calculate D2E/DX2 analytically  !
 ! A10   A(4,2,12)             102.0119         calculate D2E/DX2 analytically  !
 ! A11   A(8,2,12)             101.0307         calculate D2E/DX2 analytically  !
 ! A12   A(1,3,16)             114.5791         calculate D2E/DX2 analytically  !
 ! A13   A(1,3,20)             120.8662         calculate D2E/DX2 analytically  !
 ! A14   A(1,3,24)             114.5846         calculate D2E/DX2 analytically  !
 ! A15   A(16,3,20)            101.0312         calculate D2E/DX2 analytically  !
 ! A16   A(16,3,24)            102.0109         calculate D2E/DX2 analytically  !
 ! A17   A(20,3,24)            101.0889         calculate D2E/DX2 analytically  !
 ! A18   A(2,4,5)              109.3521         calculate D2E/DX2 analytically  !
 ! A19   A(2,4,6)              111.5552         calculate D2E/DX2 analytically  !
 ! A20   A(2,4,7)              109.1508         calculate D2E/DX2 analytically  !
 ! A21   A(5,4,6)              109.2234         calculate D2E/DX2 analytically  !
 ! A22   A(5,4,7)              107.9803         calculate D2E/DX2 analytically  !
 ! A23   A(6,4,7)              109.5073         calculate D2E/DX2 analytically  !
 ! A24   A(2,8,9)              109.147          calculate D2E/DX2 analytically  !
 ! A25   A(2,8,10)             112.2992         calculate D2E/DX2 analytically  !
 ! A26   A(2,8,11)             109.1604         calculate D2E/DX2 analytically  !
 ! A27   A(9,8,10)             109.0946         calculate D2E/DX2 analytically  !
 ! A28   A(9,8,11)             107.9283         calculate D2E/DX2 analytically  !
 ! A29   A(10,8,11)            109.1135         calculate D2E/DX2 analytically  !
 ! A30   A(2,12,13)            109.1196         calculate D2E/DX2 analytically  !
 ! A31   A(2,12,14)            111.5885         calculate D2E/DX2 analytically  !
 ! A32   A(2,12,15)            109.3254         calculate D2E/DX2 analytically  !
 ! A33   A(13,12,14)           109.5372         calculate D2E/DX2 analytically  !
 ! A34   A(13,12,15)           107.9738         calculate D2E/DX2 analytically  !
 ! A35   A(14,12,15)           109.2231         calculate D2E/DX2 analytically  !
 ! A36   A(3,16,17)            109.1196         calculate D2E/DX2 analytically  !
 ! A37   A(3,16,18)            111.5889         calculate D2E/DX2 analytically  !
 ! A38   A(3,16,19)            109.3255         calculate D2E/DX2 analytically  !
 ! A39   A(17,16,18)           109.5369         calculate D2E/DX2 analytically  !
 ! A40   A(17,16,19)           107.9737         calculate D2E/DX2 analytically  !
 ! A41   A(18,16,19)           109.2231         calculate D2E/DX2 analytically  !
 ! A42   A(3,20,21)            112.2996         calculate D2E/DX2 analytically  !
 ! A43   A(3,20,22)            109.1607         calculate D2E/DX2 analytically  !
 ! A44   A(3,20,23)            109.1464         calculate D2E/DX2 analytically  !
 ! A45   A(21,20,22)           109.1134         calculate D2E/DX2 analytically  !
 ! A46   A(21,20,23)           109.0948         calculate D2E/DX2 analytically  !
 ! A47   A(22,20,23)           107.928          calculate D2E/DX2 analytically  !
 ! A48   A(3,24,25)            109.3531         calculate D2E/DX2 analytically  !
 ! A49   A(3,24,26)            111.5548         calculate D2E/DX2 analytically  !
 ! A50   A(3,24,27)            109.1501         calculate D2E/DX2 analytically  !
 ! A51   A(25,24,26)           109.2235         calculate D2E/DX2 analytically  !
 ! A52   A(25,24,27)           107.9801         calculate D2E/DX2 analytically  !
 ! A53   A(26,24,27)           109.5074         calculate D2E/DX2 analytically  !
 ! D1    D(3,1,2,4)             62.1212         calculate D2E/DX2 analytically  !
 ! D2    D(3,1,2,8)           -176.5575         calculate D2E/DX2 analytically  !
 ! D3    D(3,1,2,12)           -55.3254         calculate D2E/DX2 analytically  !
 ! D4    D(28,1,2,4)          -117.7552         calculate D2E/DX2 analytically  !
 ! D5    D(28,1,2,8)             3.5662         calculate D2E/DX2 analytically  !
 ! D6    D(28,1,2,12)          124.7983         calculate D2E/DX2 analytically  !
 ! D7    D(29,1,2,4)          -117.9873         calculate D2E/DX2 analytically  !
 ! D8    D(29,1,2,8)             3.3341         calculate D2E/DX2 analytically  !
 ! D9    D(29,1,2,12)          124.5662         calculate D2E/DX2 analytically  !
 ! D10   D(2,1,3,16)           -55.402          calculate D2E/DX2 analytically  !
 ! D11   D(2,1,3,20)          -176.6341         calculate D2E/DX2 analytically  !
 ! D12   D(2,1,3,24)            62.0437         calculate D2E/DX2 analytically  !
 ! D13   D(28,1,3,16)          124.4864         calculate D2E/DX2 analytically  !
 ! D14   D(28,1,3,20)            3.2543         calculate D2E/DX2 analytically  !
 ! D15   D(28,1,3,24)         -118.0679         calculate D2E/DX2 analytically  !
 ! D16   D(29,1,3,16)          124.7181         calculate D2E/DX2 analytically  !
 ! D17   D(29,1,3,20)            3.4861         calculate D2E/DX2 analytically  !
 ! D18   D(29,1,3,24)         -117.8362         calculate D2E/DX2 analytically  !
 ! D19   D(1,2,4,5)             61.601          calculate D2E/DX2 analytically  !
 ! D20   D(1,2,4,6)           -177.4717         calculate D2E/DX2 analytically  !
 ! D21   D(1,2,4,7)            -56.3237         calculate D2E/DX2 analytically  !
 ! D22   D(8,2,4,5)            -70.0481         calculate D2E/DX2 analytically  !
 ! D23   D(8,2,4,6)             50.8791         calculate D2E/DX2 analytically  !
 ! D24   D(8,2,4,7)            172.0272         calculate D2E/DX2 analytically  !
 ! D25   D(12,2,4,5)          -173.9963         calculate D2E/DX2 analytically  !
 ! D26   D(12,2,4,6)           -53.0691         calculate D2E/DX2 analytically  !
 ! D27   D(12,2,4,7)            68.0789         calculate D2E/DX2 analytically  !
 ! D28   D(1,2,8,9)             58.7119         calculate D2E/DX2 analytically  !
 ! D29   D(1,2,8,10)           179.8208         calculate D2E/DX2 analytically  !
 ! D30   D(1,2,8,11)           -59.0372         calculate D2E/DX2 analytically  !
 ! D31   D(4,2,8,9)           -173.6249         calculate D2E/DX2 analytically  !
 ! D32   D(4,2,8,10)           -52.5159         calculate D2E/DX2 analytically  !
 ! D33   D(4,2,8,11)            68.626          calculate D2E/DX2 analytically  !
 ! D34   D(12,2,8,9)           -68.8942         calculate D2E/DX2 analytically  !
 ! D35   D(12,2,8,10)           52.2147         calculate D2E/DX2 analytically  !
 ! D36   D(12,2,8,11)          173.3567         calculate D2E/DX2 analytically  !
 ! D37   D(1,2,12,13)           56.4264         calculate D2E/DX2 analytically  !
 ! D38   D(1,2,12,14)          177.6125         calculate D2E/DX2 analytically  !
 ! D39   D(1,2,12,15)          -61.457          calculate D2E/DX2 analytically  !
 ! D40   D(4,2,12,13)          -67.9782         calculate D2E/DX2 analytically  !
 ! D41   D(4,2,12,14)           53.208          calculate D2E/DX2 analytically  !
 ! D42   D(4,2,12,15)          174.1385         calculate D2E/DX2 analytically  !
 ! D43   D(8,2,12,13)         -171.9725         calculate D2E/DX2 analytically  !
 ! D44   D(8,2,12,14)          -50.7864         calculate D2E/DX2 analytically  !
 ! D45   D(8,2,12,15)           70.1441         calculate D2E/DX2 analytically  !
 ! D46   D(1,3,16,17)           56.426          calculate D2E/DX2 analytically  !
 ! D47   D(1,3,16,18)          177.612          calculate D2E/DX2 analytically  !
 ! D48   D(1,3,16,19)          -61.4572         calculate D2E/DX2 analytically  !
 ! D49   D(20,3,16,17)        -171.9728         calculate D2E/DX2 analytically  !
 ! D50   D(20,3,16,18)         -50.7868         calculate D2E/DX2 analytically  !
 ! D51   D(20,3,16,19)          70.144          calculate D2E/DX2 analytically  !
 ! D52   D(24,3,16,17)         -67.9793         calculate D2E/DX2 analytically  !
 ! D53   D(24,3,16,18)          53.2068         calculate D2E/DX2 analytically  !
 ! D54   D(24,3,16,19)         174.1375         calculate D2E/DX2 analytically  !
 ! D55   D(1,3,20,21)          179.8207         calculate D2E/DX2 analytically  !
 ! D56   D(1,3,20,22)          -59.037          calculate D2E/DX2 analytically  !
 ! D57   D(1,3,20,23)           58.7116         calculate D2E/DX2 analytically  !
 ! D58   D(16,3,20,21)          52.2153         calculate D2E/DX2 analytically  !
 ! D59   D(16,3,20,22)         173.3576         calculate D2E/DX2 analytically  !
 ! D60   D(16,3,20,23)         -68.8938         calculate D2E/DX2 analytically  !
 ! D61   D(24,3,20,21)         -52.5142         calculate D2E/DX2 analytically  !
 ! D62   D(24,3,20,22)          68.6281         calculate D2E/DX2 analytically  !
 ! D63   D(24,3,20,23)        -173.6233         calculate D2E/DX2 analytically  !
 ! D64   D(1,3,24,25)           61.5891         calculate D2E/DX2 analytically  !
 ! D65   D(1,3,24,26)         -177.4831         calculate D2E/DX2 analytically  !
 ! D66   D(1,3,24,27)          -56.3356         calculate D2E/DX2 analytically  !
 ! D67   D(16,3,24,25)        -174.0093         calculate D2E/DX2 analytically  !
 ! D68   D(16,3,24,26)         -53.0815         calculate D2E/DX2 analytically  !
 ! D69   D(16,3,24,27)          68.066          calculate D2E/DX2 analytically  !
 ! D70   D(20,3,24,25)         -70.0611         calculate D2E/DX2 analytically  !
 ! D71   D(20,3,24,26)          50.8668         calculate D2E/DX2 analytically  !
 ! D72   D(20,3,24,27)         172.0143         calculate D2E/DX2 analytically  !
 --------------------------------------------------------------------------------
 Trust Radius=3.00D-01 FncErr=1.00D-07 GrdErr=1.00D-06 EigMax=2.50D+02 EigMin=1.00D-04
 Number of steps in this run=    164 maximum allowed number of steps=    174.
 Search for a saddle point of order  1.
 GradGradGradGradGradGradGradGradGradGradGradGradGradGradGradGradGradGrad

 Leave Link  103 at Sat Nov  9 02:09:51 2019, MaxMem=   104857600 cpu:               0.2 elap:               0.0
 (Enter /share/home/wli/program/opt/Chem_soft/g16/l202.exe)
                          Input orientation:                          
 ---------------------------------------------------------------------
 Center     Atomic      Atomic             Coordinates (Angstroms)
 Number     Number       Type             X           Y           Z
 ---------------------------------------------------------------------
      1         78           0       -0.000087   -0.373673    0.015697
      2         15           0        2.160241    0.232534   -0.001944
      3         15           0       -2.160666    0.231710    0.008620
      4          6           0        2.684493    1.213533    1.442491
      5          1           0        2.551782    0.620872    2.349811
      6          1           0        3.731978    1.519395    1.361964
      7          1           0        2.051487    2.098862    1.522817
      8          6           0        3.486986   -1.024416   -0.073832
      9          1           0        3.361648   -1.626462   -0.976734
     10          1           0        4.484727   -0.575159   -0.078804
     11          1           0        3.398277   -1.689129    0.788585
     12          6           0        2.632135    1.317563   -1.389012
     13          1           0        1.998721    2.206163   -1.379225
     14          1           0        3.682915    1.616493   -1.326884
     15          1           0        2.462643    0.793350   -2.331668
     16          6           0       -2.633550    1.370456    1.351598
     17          1           0       -2.000532    2.258272    1.306942
     18          1           0       -3.684441    1.666217    1.277358
     19          1           0       -2.464161    0.883961    2.314282
     20          6           0       -3.486865   -1.022054    0.129634
     21          1           0       -4.484817   -0.573431    0.116508
     22          1           0       -3.397533   -1.720276   -0.705821
     23          1           0       -3.361572   -1.587905    1.055655
     24          6           0       -2.684880    1.154662   -1.473585
     25          1           0       -2.551373    0.526803   -2.356791
     26          1           0       -3.732597    1.462774   -1.405624
     27          1           0       -2.052400    2.036552   -1.588458
     28          1           0       -0.388273   -2.504878    0.064328
     29          1           0        0.388979   -2.505523    0.054155
 ---------------------------------------------------------------------
                    Distance matrix (angstroms):
                    1          2          3          4          5
     1  Pt   0.000000
     2  P    2.243840   0.000000
     3  P    2.243800   4.320920   0.000000
     4  C    3.429568   1.823072   5.147381   0.000000
     5  H    3.598506   2.415546   5.276342   1.091828   0.000000
     6  H    4.395959   2.446756   6.181660   1.094194   1.782147
     7  H    3.548774   2.412448   4.849874   1.091310   1.765975
     8  C    3.548403   1.829028   5.786245   2.819866   3.075000
     9  H    3.722320   2.418566   5.909287   3.791669   4.095399
    10  H    4.490333   2.462013   6.694769   2.958817   3.326400
    11  H    3.725139   2.418772   5.932944   3.059824   2.913775
    12  C    3.429589   1.823165   5.109148   2.833897   3.804028
    13  H    3.549169   2.412096   4.808854   3.068824   4.089588
    14  H    4.396339   2.447314   6.152125   2.971306   3.973514
    15  H    3.596820   2.415281   5.212234   3.803952   4.685503
    16  C    3.429540   5.109538   1.823171   5.321135   5.333477
    17  H    3.549116   4.809244   2.412102   4.802012   4.948961
    18  H    4.396294   6.152428   2.447325   6.387137   6.413531
    19  H    3.596775   5.212902   2.415288   5.232330   5.022963
    20  C    3.548380   5.786287   1.829036   6.693811   6.640305
    21  H    4.490308   6.694805   2.462026   7.506696   7.478484
    22  H    3.725126   5.932770   2.418784   7.086149   7.086057
    23  H    3.722291   5.909563   2.418565   6.674773   6.443702
    24  C    3.429560   5.146965   1.823067   6.110412   6.505837
    25  H    3.598419   5.275529   2.415554   6.505416   6.942849
    26  H    4.395943   6.181371   2.446747   7.025164   7.369227
    27  H    3.548871   4.849521   2.412434   5.683500   6.221945
    28  H    2.166815   3.740687   3.260888   5.016752   4.861859
    29  H    2.167403   3.261513   3.741017   4.585656   4.440957
                    6          7          8          9         10
     6  H    0.000000
     7  H    1.784854   0.000000
     8  C    2.931298   3.790094   0.000000
     9  H    3.937394   4.673577   1.092429   0.000000
    10  H    2.651340   3.954268   1.094232   1.781242   0.000000
    11  H    3.276393   4.086786   1.092463   1.766811   1.781479
    12  C    2.969555   3.070232   2.818747   3.060955   2.954850
    13  H    3.315109   2.904504   3.788883   4.087614   3.950579
    14  H    2.691048   3.318891   2.929664   3.277587   2.646496
    15  H    3.972565   4.090289   3.074310   2.915399   3.322203
    16  C    6.367279   4.744414   6.725194   7.095425   7.516737
    17  H    5.780193   4.060895   6.541822   7.004235   7.211602
    18  H    7.418355   5.757456   7.777827   8.097533   8.578942
    19  H    6.301017   4.742729   6.690377   7.146541   7.492859
    20  C    7.751729   6.508028   6.976820   6.963583   7.986829
    21  H    8.570111   7.200148   7.986819   7.991938   8.971670
    22  H    8.099452   7.017439   6.948398   6.765258   7.989647
    23  H    7.750328   6.565950   6.963908   7.023801   7.992312
    24  C    7.024915   5.683582   6.693252   6.673980   7.506061
    25  H    7.368506   6.221660   6.639275   6.442432   7.477316
    26  H    7.961321   6.514292   7.751269   7.749557   8.569599
    27  H    6.513944   5.150321   6.507567   6.565348   7.199591
    28  H    5.903821   5.410549   4.150722   3.989653   5.243132
    29  H    5.393141   5.110897   3.436235   3.266839   4.529805
                   11         12         13         14         15
    11  H    0.000000
    12  C    3.790660   0.000000
    13  H    4.672415   1.091293   0.000000
    14  H    3.934891   1.094239   1.785207   0.000000
    15  H    4.095619   1.091846   1.765903   1.782195   0.000000
    16  C    6.786825   5.936428   5.441850   6.865314   6.314324
    17  H    6.708041   5.441939   4.817907   6.296864   5.941836
    18  H    7.852525   6.865145   6.296611   7.814250   7.181478
    19  H    6.581544   6.314635   5.942013   7.182008   6.772478
    20  C    6.948697   6.724749   6.541383   7.777476   6.689571
    21  H    7.989972   7.516213   7.211077   8.578520   7.491920
    22  H    6.958251   6.786170   6.707455   7.851910   6.580529
    23  H    6.765880   7.095256   7.004023   8.097497   7.146035
    24  C    7.085857   5.320182   4.801112   6.386206   5.231047
    25  H    7.085343   5.332040   4.947650   6.412058   5.021159
    26  H    8.099285   6.366409   5.779388   7.417523   6.299737
    27  H    7.017187   4.743584   4.060065   5.756623   4.741680
    28  H    3.940553   5.083907   5.474988   5.957831   4.974619
    29  H    3.203399   4.661594   5.181296   5.454200   4.568895
                   16         17         18         19         20
    16  C    0.000000
    17  H    1.091294   0.000000
    18  H    1.094239   1.785204   0.000000
    19  H    1.091847   1.765903   1.782195   0.000000
    20  C    2.818768   3.788903   2.929695   3.074330   0.000000
    21  H    2.954883   3.950613   2.646544   3.322236   1.094232
    22  H    3.790682   4.672437   3.934927   4.095639   1.092464
    23  H    3.060964   4.087622   3.277607   2.915409   1.092429
    24  C    2.833877   3.068813   2.971279   3.803936   2.819856
    25  H    3.804032   4.089542   3.973557   4.685519   3.075128
    26  H    2.969630   3.315250   2.691116   3.972613   2.931172
    27  H    3.070073   2.904340   3.318676   4.090158   3.790067
    28  H    4.660102   5.179871   5.452907   4.566819   3.435739
    29  H    5.083528   5.474759   5.957549   4.973649   4.150728
                   21         22         23         24         25
    21  H    0.000000
    22  H    1.781479   0.000000
    23  H    1.781245   1.766809   0.000000
    24  C    2.958796   3.059838   3.791654   0.000000
    25  H    3.326549   2.913941   4.095510   1.091827   0.000000
    26  H    2.651198   3.276248   3.937283   1.094195   1.782148
    27  H    3.954185   4.086831   4.673538   1.091310   1.765971
    28  H    4.529336   3.203805   3.265589   4.586045   4.442061
    29  H    5.243163   3.941046   3.988942   5.017923   4.863469
                   26         27         28         29
    26  H    0.000000
    27  H    1.784856   0.000000
    28  H    5.393284   5.111321   0.000000
    29  H    5.904720   5.411927   0.777319   0.000000
 Stoichiometry    C6H20P2Pt
 Framework group  C1[X(C6H20P2Pt)]
 Deg. of freedom    81
 Full point group                 C1      NOp   1
 RotChk:  IX=0 Diff= 6.98D-16
 Largest Abelian subgroup         C1      NOp   1
 Largest concise Abelian subgroup C1      NOp   1
                         Standard orientation:                         
 ---------------------------------------------------------------------
 Center     Atomic      Atomic             Coordinates (Angstroms)
 Number     Number       Type             X           Y           Z
 ---------------------------------------------------------------------
      1         78           0       -0.000009   -0.378523   -0.000028
      2         15           0        2.160472    0.227398   -0.000412
      3         15           0       -2.160448    0.227397    0.000397
      4          6           0        2.681652    1.178556    1.464941
      5          1           0        2.546778    0.567514    2.359662
      6          1           0        3.729375    1.485748    1.393041
      7          1           0        2.048638    2.062211    1.561912
      8          6           0        3.487132   -1.028139   -0.094977
      9          1           0        3.363715   -1.611583   -1.010271
     10          1           0        4.484968   -0.579114   -0.088521
     11          1           0        3.396347   -1.710312    0.753477
     12          6           0        2.635706    1.340427   -1.363956
     13          1           0        2.002444    2.228794   -1.337443
     14          1           0        3.686402    1.637772   -1.293366
     15          1           0        2.468242    0.835623   -2.317505
     16          6           0       -2.636142    1.338581    1.365292
     17          1           0       -2.002852    2.226972    1.340210
     18          1           0       -3.686805    1.636049    1.294742
     19          1           0       -2.469021    0.832479    2.318214
     20          6           0       -3.487161   -1.028259    0.092780
     21          1           0       -4.484993   -0.579221    0.086575
     22          1           0       -3.396078   -1.709288   -0.756562
     23          1           0       -3.364068   -1.612941    1.007327
     24          6           0       -2.681135    1.180565   -1.463819
     25          1           0       -2.545757    0.570849   -2.359366
     26          1           0       -3.728943    1.487476   -1.391938
     27          1           0       -2.048226    2.064466   -1.559225
     28          1           0       -0.388717   -2.510183    0.004174
     29          1           0        0.388556   -2.510807   -0.004259
 ---------------------------------------------------------------------
 Rotational constants (GHZ):           1.5580151           0.4069172           0.3913240
 Leave Link  202 at Sat Nov  9 02:09:51 2019, MaxMem=   104857600 cpu:               0.2 elap:               0.0
 (Enter /share/home/wli/program/opt/Chem_soft/g16/l301.exe)
 Standard basis: def2TZVP (5D, 7F)
 Ernie: Thresh=  0.10000D-02 Tol=  0.10000D-05 Strict=F.
 There are   466 symmetry adapted cartesian basis functions of A   symmetry.
 There are   420 symmetry adapted basis functions of A   symmetry.
   420 basis functions,   679 primitive gaussians,   466 cartesian basis functions
    52 alpha electrons       52 beta electrons
       nuclear repulsion energy       826.2901299655 Hartrees.
 IExCor= 1009 DFT=T Ex+Corr=PBE1PBE ExCW=0 ScaHFX=  0.250000
 ScaDFX=  0.750000  0.750000  1.000000  1.000000 ScalE2=  1.000000  1.000000
 IRadAn=      5 IRanWt=     -1 IRanGd=            0 ICorTp=0 IEmpDi=141
 NAtoms=   29 NActive=   29 NUniq=   29 SFac= 1.00D+00 NAtFMM=   60 NAOKFM=F Big=F
 Integral buffers will be    131072 words long.
 Raffenetti 2 integral format.
 Two-electron integral symmetry is turned on.
 R6Disp:  Grimme-D3(BJ) Dispersion energy=       -0.0309156281 Hartrees.
 Nuclear repulsion after empirical dispersion term =      826.2592143375 Hartrees.
 Force inversion solution in PCM.
 ------------------------------------------------------------------------------
 Polarizable Continuum Model (PCM)
 =================================
 Model                : PCM.
 Atomic radii         : SMD-Coulomb.
 Polarization charges : Total charges.
 Charge compensation  : None.
 Solution method      : Matrix inversion.
 Cavity type          : VdW (van der Waals Surface) (Alpha=1.000).
 Cavity algorithm     : GePol (No added spheres)
                        Default sphere list used, NSphG=   29.
                        Lebedev-Laikov grids with approx.  5.0 points / Ang**2.
                        Smoothing algorithm: York/Karplus (Gamma=1.0000).
                        Polarization charges: spherical gaussians, with
                                              point-specific exponents (IZeta= 3).
                        Self-potential: point-specific (ISelfS= 7).
                        Self-field    : sphere-specific E.n sum rule (ISelfD= 2).
 1st derivatives      : Analytical E(r).r(x)/FMM algorithm (CHGder, D1EAlg=3).
                        Cavity 1st derivative terms included.
 2nd derivatives      : Analytical E(r).r(xy)/FMM algorithm (CHGder, D2EAlg=3).
                        Cavity 2nd derivative terms included.
 Solvent              : Benzene, Eps=   2.270600 Eps(inf)=   2.253301
 ------------------------------------------------------------------------------
 GePol: Number of generator spheres                  =      29
 GePol: Total number of spheres                      =      29
 GePol: Number of exposed spheres                    =      29 (100.00%)
 GePol: Number of points                             =    2153
 GePol: Average weight of points                     =       0.12
 GePol: Minimum weight of points                     =   0.83D-09
 GePol: Maximum weight of points                     =    0.22001
 GePol: Number of points with low weight             =     138
 GePol: Fraction of low-weight points (<1% of avg)   =       6.41%
 GePol: Cavity surface area                          =    254.869 Ang**2
 GePol: Cavity volume                                =    208.637 Ang**3
 ------------------------------------------------------------------------------
 Atomic radii for non-electrostatic terms: SMD-CDS.
 ------------------------------------------------------------------------------
 PCM non-electrostatic energy =         0.0001471467 Hartrees.
 Nuclear repulsion after PCM non-electrostatic terms =      826.2593614842 Hartrees.
 Leave Link  301 at Sat Nov  9 02:09:51 2019, MaxMem=   104857600 cpu:               2.3 elap:               0.1
 (Enter /share/home/wli/program/opt/Chem_soft/g16/l302.exe)
 NPDir=0 NMtPBC=     1 NCelOv=     1 NCel=       1 NClECP=     1 NCelD=      1
         NCelK=      1 NCelE2=     1 NClLst=     1 CellRange=     0.0.
 One-electron integrals computed using PRISM.
 One-electron integral symmetry used in STVInt
 PrsmSu:  requested number of processors reduced to:  12 ShMem   1 Linda.
   1 Symmetry operations used in ECPInt.
 ECPInt:  NShTT=   17391 NPrTT=   50365 LenC2=   15924 LenP2D=   34696.
 LDataN:  DoStor=T MaxTD1= 8 Len=  415
 Number of processors reduced to  15 by ecpmxn.
 NBasis=   420 RedAO= T EigKep=  6.54D-04  NBF=   420
 NBsUse=   420 1.00D-06 EigRej= -1.00D+00 NBFU=   420
 Precomputing XC quadrature grid using
 IXCGrd= 4 IRadAn=           5 IRanWt=          -1 IRanGd=           0 AccXCQ= 0.00D+00.
 Defaulting to unpruned grid for atomic number  78.
 Generated NRdTot=       0 NPtTot=           0 NUsed=           0 NTot=          32
 NSgBfM=   464   464   464   464   464 MxSgAt=    29 MxSgA2=    29.
 Leave Link  302 at Sat Nov  9 02:09:52 2019, MaxMem=   104857600 cpu:              14.5 elap:               0.7
 (Enter /share/home/wli/program/opt/Chem_soft/g16/l303.exe)
 DipDrv:  MaxL=1.
 Leave Link  303 at Sat Nov  9 02:09:52 2019, MaxMem=   104857600 cpu:               1.3 elap:               0.1
 (Enter /share/home/wli/program/opt/Chem_soft/g16/l401.exe)
 ExpMin= 4.92D-02 ExpMax= 5.24D+04 ExpMxC= 1.79D+03 IAcc=3 IRadAn=         5 AccDes= 0.00D+00
 Harris functional with IExCor= 1009 and IRadAn=       5 diagonalized for initial guess.
 HarFok:  IExCor= 1009 AccDes= 0.00D+00 IRadAn=         5 IDoV= 1 UseB2=F ITyADJ=14
 ICtDFT=  3500011 ScaDFX=  1.000000  1.000000  1.000000  1.000000
 Defaulting to unpruned grid for atomic number  78.
 FoFCou: FMM=F IPFlag=           0 FMFlag=      100000 FMFlg1=           0
         NFxFlg=           0 DoJE=T BraDBF=F KetDBF=T FulRan=T
         wScrn=  0.000000 ICntrl=       500 IOpCl=  0 I1Cent=   200000004 NGrid=           0
         NMat0=    1 NMatS0=      1 NMatT0=    0 NMatD0=    1 NMtDS0=    0 NMtDT0=    0
 Petite list used in FoFCou.
 Harris En= -1042.49112764388    
 JPrj=0 DoOrth=F DoCkMO=F.
 Leave Link  401 at Sat Nov  9 02:09:54 2019, MaxMem=   104857600 cpu:              41.9 elap:               1.8
 (Enter /share/home/wli/program/opt/Chem_soft/g16/l502.exe)
 Integral symmetry usage will be decided dynamically.
 Closed shell SCF:
 Using DIIS extrapolation, IDIIS=  1040.
 NGot=   104857600 LenX=   104407631 LenY=   104190009
 Requested convergence on RMS density matrix=1.00D-08 within 128 cycles.
 Requested convergence on MAX density matrix=1.00D-06.
 Requested convergence on             energy=1.00D-06.
 No special actions if energy rises.
 Fock matrices will be formed incrementally for  20 cycles.

 Cycle   1  Pass 1  IDiag  1:
 FoFJK:  IHMeth= 1 ICntrl=       0 DoSepK=F KAlg= 0 I1Cent=           0 FoldK=F
 IRaf= 860000000 NMat=       1 IRICut=       1 DoRegI=T DoRafI=F ISym2E= 0 IDoP0=0 IntGTp=1.
 FoFCou: FMM=F IPFlag=           0 FMFlag=      100000 FMFlg1=           0
         NFxFlg=           0 DoJE=F BraDBF=F KetDBF=F FulRan=T
         wScrn=  0.000000 ICntrl=         0 IOpCl=  0 I1Cent=           0 NGrid=           0
         NMat0=    1 NMatS0=      1 NMatT0=    0 NMatD0=    1 NMtDS0=    0 NMtDT0=    0
 Symmetry not used in FoFCou.
 Defaulting to unpruned grid for atomic number  78.
 Defaulting to unpruned grid for atomic number  78.
 Defaulting to unpruned grid for atomic number  78.
 Defaulting to unpruned grid for atomic number  78.
 Defaulting to unpruned grid for atomic number  78.
 Defaulting to unpruned grid for atomic number  78.
 Defaulting to unpruned grid for atomic number  78.
 Defaulting to unpruned grid for atomic number  78.
 Defaulting to unpruned grid for atomic number  78.
 Defaulting to unpruned grid for atomic number  78.
 Defaulting to unpruned grid for atomic number  78.
 Defaulting to unpruned grid for atomic number  78.
 Defaulting to unpruned grid for atomic number  78.
 Defaulting to unpruned grid for atomic number  78.
 Defaulting to unpruned grid for atomic number  78.
 Defaulting to unpruned grid for atomic number  78.
 Defaulting to unpruned grid for atomic number  78.
 Defaulting to unpruned grid for atomic number  78.
 Defaulting to unpruned grid for atomic number  78.
 Defaulting to unpruned grid for atomic number  78.
 Defaulting to unpruned grid for atomic number  78.
 Defaulting to unpruned grid for atomic number  78.
 Defaulting to unpruned grid for atomic number  78.
 Defaulting to unpruned grid for atomic number  78.
 Inv3:  Mode=1 IEnd=    13906227.
 Iteration    1 A*A^-1 deviation from unit magnitude is 5.77D-15 for    247.
 Iteration    1 A*A^-1 deviation from orthogonality  is 3.03D-15 for    272    249.
 Iteration    1 A^-1*A deviation from unit magnitude is 5.44D-15 for    195.
 Iteration    1 A^-1*A deviation from orthogonality  is 1.91D-15 for   2147   1687.
 E= -1041.70380358036    
 DIIS: error= 4.82D-02 at cycle   1 NSaved=   1.
 NSaved= 1 IEnMin= 1 EnMin= -1041.70380358036     IErMin= 1 ErrMin= 4.82D-02
 ErrMax= 4.82D-02  0.00D+00 EMaxC= 1.00D-01 BMatC= 8.56D-01 BMatP= 8.56D-01
 IDIUse=3 WtCom= 5.18D-01 WtEn= 4.82D-01
 Coeff-Com:  0.100D+01
 Coeff-En:   0.100D+01
 Coeff:      0.100D+01
 Gap=     0.383 Goal=   None    Shift=    0.000
 GapD=    0.383 DampG=1.000 DampE=0.250 DampFc=0.2500 IDamp=-1.
 Damping current iteration by 2.50D-01
 RMSDP=3.57D-03 MaxDP=2.96D-01              OVMax= 2.54D-01

 Cycle   2  Pass 1  IDiag  1:
 RMSU=  8.92D-04    CP:  1.00D+00
 E= -1041.96991660221     Delta-E=       -0.266113021848 Rises=F Damp=T
 DIIS: error= 2.21D-02 at cycle   2 NSaved=   2.
 NSaved= 2 IEnMin= 2 EnMin= -1041.96991660221     IErMin= 2 ErrMin= 2.21D-02
 ErrMax= 2.21D-02  0.00D+00 EMaxC= 1.00D-01 BMatC= 1.69D-01 BMatP= 8.56D-01
 IDIUse=3 WtCom= 7.79D-01 WtEn= 2.21D-01
 Coeff-Com: -0.658D+00 0.166D+01
 Coeff-En:   0.000D+00 0.100D+01
 Coeff:     -0.512D+00 0.151D+01
 Gap=     0.295 Goal=   None    Shift=    0.000
 RMSDP=1.24D-03 MaxDP=1.74D-01 DE=-2.66D-01 OVMax= 2.37D-01

 Cycle   3  Pass 1  IDiag  1:
 RMSU=  1.19D-03    CP:  9.84D-01  1.29D+00
 E= -1042.36450777518     Delta-E=       -0.394591172966 Rises=F Damp=F
 DIIS: error= 9.21D-03 at cycle   3 NSaved=   3.
 NSaved= 3 IEnMin= 3 EnMin= -1042.36450777518     IErMin= 3 ErrMin= 9.21D-03
 ErrMax= 9.21D-03  0.00D+00 EMaxC= 1.00D-01 BMatC= 3.45D-02 BMatP= 1.69D-01
 IDIUse=3 WtCom= 9.08D-01 WtEn= 9.21D-02
 Coeff-Com: -0.301D+00 0.776D+00 0.525D+00
 Coeff-En:   0.000D+00 0.000D+00 0.100D+01
 Coeff:     -0.273D+00 0.704D+00 0.568D+00
 Gap=     0.189 Goal=   None    Shift=    0.000
 RMSDP=6.47D-04 MaxDP=5.44D-02 DE=-3.95D-01 OVMax= 4.74D-02

 Cycle   4  Pass 1  IDiag  1:
 RMSU=  4.81D-04    CP:  9.85D-01  1.51D+00  6.75D-01
 E= -1042.38961183057     Delta-E=       -0.025104055394 Rises=F Damp=F
 DIIS: error= 4.01D-03 at cycle   4 NSaved=   4.
 NSaved= 4 IEnMin= 4 EnMin= -1042.38961183057     IErMin= 4 ErrMin= 4.01D-03
 ErrMax= 4.01D-03  0.00D+00 EMaxC= 1.00D-01 BMatC= 7.18D-03 BMatP= 3.45D-02
 IDIUse=3 WtCom= 9.60D-01 WtEn= 4.01D-02
 Coeff-Com:  0.752D-02 0.275D-01 0.309D+00 0.656D+00
 Coeff-En:   0.000D+00 0.000D+00 0.152D+00 0.848D+00
 Coeff:      0.722D-02 0.264D-01 0.302D+00 0.664D+00
 Gap=     0.182 Goal=   None    Shift=    0.000
 RMSDP=1.87D-04 MaxDP=2.02D-02 DE=-2.51D-02 OVMax= 1.45D-02

 Cycle   5  Pass 1  IDiag  1:
 RMSU=  8.72D-05    CP:  9.83D-01  1.44D+00  7.79D-01  8.31D-01
 E= -1042.39514577756     Delta-E=       -0.005533946988 Rises=F Damp=F
 DIIS: error= 6.92D-04 at cycle   5 NSaved=   5.
 NSaved= 5 IEnMin= 5 EnMin= -1042.39514577756     IErMin= 5 ErrMin= 6.92D-04
 ErrMax= 6.92D-04  0.00D+00 EMaxC= 1.00D-01 BMatC= 1.34D-04 BMatP= 7.18D-03
 IDIUse=3 WtCom= 9.93D-01 WtEn= 6.92D-03
 Coeff-Com:  0.181D-01-0.258D-01 0.927D-01 0.250D+00 0.665D+00
 Coeff-En:   0.000D+00 0.000D+00 0.000D+00 0.000D+00 0.100D+01
 Coeff:      0.179D-01-0.256D-01 0.920D-01 0.248D+00 0.668D+00
 Gap=     0.182 Goal=   None    Shift=    0.000
 RMSDP=2.61D-05 MaxDP=1.38D-03 DE=-5.53D-03 OVMax= 2.49D-03

 Cycle   6  Pass 1  IDiag  1:
 RMSU=  1.70D-05    CP:  9.83D-01  1.43D+00  7.85D-01  8.45D-01  8.03D-01
 E= -1042.39528904778     Delta-E=       -0.000143270219 Rises=F Damp=F
 DIIS: error= 7.65D-05 at cycle   6 NSaved=   6.
 NSaved= 6 IEnMin= 6 EnMin= -1042.39528904778     IErMin= 6 ErrMin= 7.65D-05
 ErrMax= 7.65D-05  0.00D+00 EMaxC= 1.00D-01 BMatC= 1.82D-06 BMatP= 1.34D-04
 IDIUse=1 WtCom= 1.00D+00 WtEn= 0.00D+00
 Coeff-Com:  0.341D-02-0.540D-02 0.976D-02 0.262D-01 0.131D+00 0.835D+00
 Coeff:      0.341D-02-0.540D-02 0.976D-02 0.262D-01 0.131D+00 0.835D+00
 Gap=     0.181 Goal=   None    Shift=    0.000
 RMSDP=5.84D-06 MaxDP=7.34D-04 DE=-1.43D-04 OVMax= 5.13D-04

 Cycle   7  Pass 1  IDiag  1:
 RMSU=  4.18D-06    CP:  9.83D-01  1.43D+00  7.87D-01  8.47D-01  8.19D-01
                    CP:  9.56D-01
 E= -1042.39529088342     Delta-E=       -0.000001835640 Rises=F Damp=F
 DIIS: error= 3.29D-05 at cycle   7 NSaved=   7.
 NSaved= 7 IEnMin= 7 EnMin= -1042.39529088342     IErMin= 7 ErrMin= 3.29D-05
 ErrMax= 3.29D-05  0.00D+00 EMaxC= 1.00D-01 BMatC= 2.45D-07 BMatP= 1.82D-06
 IDIUse=1 WtCom= 1.00D+00 WtEn= 0.00D+00
 Coeff-Com:  0.340D-03-0.737D-03-0.342D-03-0.949D-03 0.177D-01 0.314D+00
 Coeff-Com:  0.670D+00
 Coeff:      0.340D-03-0.737D-03-0.342D-03-0.949D-03 0.177D-01 0.314D+00
 Coeff:      0.670D+00
 Gap=     0.181 Goal=   None    Shift=    0.000
 RMSDP=1.92D-06 MaxDP=1.14D-04 DE=-1.84D-06 OVMax= 1.81D-04

 Cycle   8  Pass 1  IDiag  1:
 RMSU=  9.46D-07    CP:  9.83D-01  1.43D+00  7.87D-01  8.49D-01  8.26D-01
                    CP:  1.01D+00  8.56D-01
 E= -1042.39529114174     Delta-E=       -0.000000258319 Rises=F Damp=F
 DIIS: error= 4.92D-06 at cycle   8 NSaved=   8.
 NSaved= 8 IEnMin= 8 EnMin= -1042.39529114174     IErMin= 8 ErrMin= 4.92D-06
 ErrMax= 4.92D-06  0.00D+00 EMaxC= 1.00D-01 BMatC= 1.25D-08 BMatP= 2.45D-07
 IDIUse=1 WtCom= 1.00D+00 WtEn= 0.00D+00
 Coeff-Com: -0.229D-03 0.332D-03-0.103D-02-0.314D-02-0.588D-02 0.366D-01
 Coeff-Com:  0.206D+00 0.767D+00
 Coeff:     -0.229D-03 0.332D-03-0.103D-02-0.314D-02-0.588D-02 0.366D-01
 Coeff:      0.206D+00 0.767D+00
 Gap=     0.181 Goal=   None    Shift=    0.000
 RMSDP=4.33D-07 MaxDP=3.52D-05 DE=-2.58D-07 OVMax= 8.03D-05

 Cycle   9  Pass 1  IDiag  1:
 RMSU=  2.61D-07    CP:  9.83D-01  1.43D+00  7.87D-01  8.49D-01  8.27D-01
                    CP:  1.02D+00  9.12D-01  1.03D+00
 E= -1042.39529115690     Delta-E=       -0.000000015161 Rises=F Damp=F
 DIIS: error= 1.96D-06 at cycle   9 NSaved=   9.
 NSaved= 9 IEnMin= 9 EnMin= -1042.39529115690     IErMin= 9 ErrMin= 1.96D-06
 ErrMax= 1.96D-06  0.00D+00 EMaxC= 1.00D-01 BMatC= 1.19D-09 BMatP= 1.25D-08
 IDIUse=1 WtCom= 1.00D+00 WtEn= 0.00D+00
 Coeff-Com: -0.537D-04 0.843D-04-0.313D-03-0.104D-02-0.236D-02-0.150D-02
 Coeff-Com:  0.389D-01 0.229D+00 0.738D+00
 Coeff:     -0.537D-04 0.843D-04-0.313D-03-0.104D-02-0.236D-02-0.150D-02
 Coeff:      0.389D-01 0.229D+00 0.738D+00
 Gap=     0.181 Goal=   None    Shift=    0.000
 RMSDP=1.44D-07 MaxDP=1.35D-05 DE=-1.52D-08 OVMax= 2.19D-05

 Cycle  10  Pass 1  IDiag  1:
 RMSU=  7.91D-08    CP:  9.83D-01  1.43D+00  7.87D-01  8.49D-01  8.27D-01
                    CP:  1.02D+00  9.30D-01  1.10D+00  1.04D+00
 E= -1042.39529115828     Delta-E=       -0.000000001380 Rises=F Damp=F
 DIIS: error= 7.63D-07 at cycle  10 NSaved=  10.
 NSaved=10 IEnMin=10 EnMin= -1042.39529115828     IErMin=10 ErrMin= 7.63D-07
 ErrMax= 7.63D-07  0.00D+00 EMaxC= 1.00D-01 BMatC= 2.47D-10 BMatP= 1.19D-09
 IDIUse=1 WtCom= 1.00D+00 WtEn= 0.00D+00
 Coeff-Com:  0.251D-04-0.325D-04 0.474D-04 0.856D-04-0.588D-05-0.875D-02
 Coeff-Com: -0.228D-01-0.391D-01 0.386D+00 0.685D+00
 Coeff:      0.251D-04-0.325D-04 0.474D-04 0.856D-04-0.588D-05-0.875D-02
 Coeff:     -0.228D-01-0.391D-01 0.386D+00 0.685D+00
 Gap=     0.181 Goal=   None    Shift=    0.000
 RMSDP=6.25D-08 MaxDP=6.77D-06 DE=-1.38D-09 OVMax= 1.51D-05

 Cycle  11  Pass 1  IDiag  1:
 RMSU=  2.60D-08    CP:  9.83D-01  1.43D+00  7.87D-01  8.49D-01  8.27D-01
                    CP:  1.02D+00  9.35D-01  1.13D+00  1.15D+00  8.23D-01
 E= -1042.39529115858     Delta-E=       -0.000000000306 Rises=F Damp=F
 DIIS: error= 1.72D-07 at cycle  11 NSaved=  11.
 NSaved=11 IEnMin=11 EnMin= -1042.39529115858     IErMin=11 ErrMin= 1.72D-07
 ErrMax= 1.72D-07  0.00D+00 EMaxC= 1.00D-01 BMatC= 1.02D-11 BMatP= 2.47D-10
 IDIUse=1 WtCom= 1.00D+00 WtEn= 0.00D+00
 Coeff-Com: -0.337D-06 0.699D-06 0.156D-04 0.667D-04 0.638D-04-0.424D-03
 Coeff-Com: -0.274D-02-0.117D-01-0.431D-02 0.589D-01 0.960D+00
 Coeff:     -0.337D-06 0.699D-06 0.156D-04 0.667D-04 0.638D-04-0.424D-03
 Coeff:     -0.274D-02-0.117D-01-0.431D-02 0.589D-01 0.960D+00
 Gap=     0.181 Goal=   None    Shift=    0.000
 RMSDP=1.39D-08 MaxDP=1.24D-06 DE=-3.06D-10 OVMax= 2.64D-06

 Cycle  12  Pass 1  IDiag  1:
 RMSU=  5.26D-09    CP:  9.83D-01  1.43D+00  7.87D-01  8.49D-01  8.27D-01
                    CP:  1.02D+00  9.36D-01  1.13D+00  1.17D+00  9.05D-01
                    CP:  1.13D+00
 E= -1042.39529115855     Delta-E=        0.000000000037 Rises=F Damp=F
 DIIS: error= 2.00D-08 at cycle  12 NSaved=  12.
 NSaved=12 IEnMin=11 EnMin= -1042.39529115858     IErMin=12 ErrMin= 2.00D-08
 ErrMax= 2.00D-08  0.00D+00 EMaxC= 1.00D-01 BMatC= 2.19D-13 BMatP= 1.02D-11
 IDIUse=1 WtCom= 1.00D+00 WtEn= 0.00D+00
 Coeff-Com: -0.193D-05 0.264D-05 0.368D-06 0.942D-05 0.111D-04 0.401D-03
 Coeff-Com:  0.605D-03-0.109D-03-0.204D-01-0.256D-01 0.206D+00 0.839D+00
 Coeff:     -0.193D-05 0.264D-05 0.368D-06 0.942D-05 0.111D-04 0.401D-03
 Coeff:      0.605D-03-0.109D-03-0.204D-01-0.256D-01 0.206D+00 0.839D+00
 Gap=     0.181 Goal=   None    Shift=    0.000
 RMSDP=2.52D-09 MaxDP=2.56D-07 DE= 3.73D-11 OVMax= 5.50D-07

 Error on total polarization charges =  0.04498
 SCF Done:  E(RPBE1PBE) =  -1042.39529116     A.U. after   12 cycles
            NFock= 12  Conv=0.25D-08     -V/T= 2.0849
 KE= 9.608642492552D+02 PE=-4.082448875150D+03 EE= 1.252929973252D+03
 SMD-CDS (non-electrostatic) energy       (kcal/mol) =       0.09
 (included in total energy above)
 Leave Link  502 at Sat Nov  9 02:11:06 2019, MaxMem=   104857600 cpu:            1704.5 elap:              72.4
 (Enter /share/home/wli/program/opt/Chem_soft/g16/l801.exe)
 DoSCS=F DFT=T ScalE2(SS,OS)=  1.000000  1.000000
 Range of M.O.s used for correlation:     1   420
 NBasis=   420 NAE=    52 NBE=    52 NFC=     0 NFV=     0
 NROrb=    420 NOA=    52 NOB=    52 NVA=   368 NVB=   368
 Leave Link  801 at Sat Nov  9 02:11:06 2019, MaxMem=   104857600 cpu:               0.5 elap:               0.0
 (Enter /share/home/wli/program/opt/Chem_soft/g16/l1101.exe)
 Using compressed storage, NAtomX=    29.
 Will process     30 centers per pass.
 PrsmSu:  requested number of processors reduced to:  12 ShMem   1 Linda.
 PrsmSu:  requested number of processors reduced to:   7 ShMem   1 Linda.
   1 Symmetry operations used in ECPInt.
 ECPInt:  NShTT=   17391 NPrTT=   50365 LenC2=   15924 LenP2D=   34696.
 LDataN:  DoStor=T MaxTD1= 9 Len=  602
 Number of processors reduced to   3 by ecpmxn.
 R6Disp: Adding Grimme-D3(BJ) dispersion energy 1st derivatives to the gradient.
 Leave Link 1101 at Sat Nov  9 02:11:09 2019, MaxMem=   104857600 cpu:              18.4 elap:               2.8
 (Enter /share/home/wli/program/opt/Chem_soft/g16/l1102.exe)
 Symmetrizing basis deriv contribution to polar:
 IMax=3 JMax=2 DiffMx= 0.00D+00
 Leave Link 1102 at Sat Nov  9 02:11:09 2019, MaxMem=   104857600 cpu:               1.1 elap:               0.1
 (Enter /share/home/wli/program/opt/Chem_soft/g16/l1110.exe)
 Forming Gx(P) for the SCF density, NAtomX=    29.
 Integral derivatives from FoFJK, PRISM(SPDF).
 Do as many integral derivatives as possible in FoFJK.
 G2DrvN: MDV=     104855376.
 G2DrvN: will do     1 centers at a time, making   30 passes.
 Estimated number of processors is:   23
 G2DrvN:  IPasSy=1 do centers    0 through    0.
 Calling FoFCou, ICntrl=  3107 FMM=F I1Cent=   0 AccDes= 0.00D+00.
 FoFJK:  IHMeth= 1 ICntrl=    3107 DoSepK=F KAlg= 0 I1Cent=           0 FoldK=F
 IRaf=         0 NMat=       1 IRICut=       1 DoRegI=T DoRafI=F ISym2E= 0 IDoP0=0 IntGTp=1.
 FoFCou: FMM=F IPFlag=           0 FMFlag=      100000 FMFlg1=           0
         NFxFlg=           0 DoJE=F BraDBF=F KetDBF=F FulRan=T
         wScrn=  0.000000 ICntrl=      3107 IOpCl=  0 I1Cent=           0 NGrid=           0
         NMat0=    1 NMatS0=      1 NMatT0=    0 NMatD0=    1 NMtDS0=    0 NMtDT0=    0
 Symmetry not used in FoFCou.
 Defaulting to unpruned grid for atomic number  78.
 Defaulting to unpruned grid for atomic number  78.
 Defaulting to unpruned grid for atomic number  78.
 Defaulting to unpruned grid for atomic number  78.
 Defaulting to unpruned grid for atomic number  78.
 Defaulting to unpruned grid for atomic number  78.
 Defaulting to unpruned grid for atomic number  78.
 Defaulting to unpruned grid for atomic number  78.
 Defaulting to unpruned grid for atomic number  78.
 Defaulting to unpruned grid for atomic number  78.
 Defaulting to unpruned grid for atomic number  78.
 Defaulting to unpruned grid for atomic number  78.
 Defaulting to unpruned grid for atomic number  78.
 Defaulting to unpruned grid for atomic number  78.
 Defaulting to unpruned grid for atomic number  78.
 Defaulting to unpruned grid for atomic number  78.
 Defaulting to unpruned grid for atomic number  78.
 Defaulting to unpruned grid for atomic number  78.
 Defaulting to unpruned grid for atomic number  78.
 Defaulting to unpruned grid for atomic number  78.
 Defaulting to unpruned grid for atomic number  78.
 Defaulting to unpruned grid for atomic number  78.
 Defaulting to unpruned grid for atomic number  78.
 Defaulting to unpruned grid for atomic number  78.
 G2DrvN:  IPasSy=1 do centers    1 through    1.
 Calling FoFCou, ICntrl=  3107 FMM=F I1Cent=   0 AccDes= 0.00D+00.
 CoulSu:  requested number of processors reduced to:  23 ShMem   1 Linda.
 G2DrvN:  IPasSy=1 do centers    2 through    2.
 Calling FoFCou, ICntrl=  3107 FMM=F I1Cent=   0 AccDes= 0.00D+00.
 CoulSu:  requested number of processors reduced to:  23 ShMem   1 Linda.
 G2DrvN:  IPasSy=1 do centers    3 through    3.
 Calling FoFCou, ICntrl=  3107 FMM=F I1Cent=   0 AccDes= 0.00D+00.
 CoulSu:  requested number of processors reduced to:  23 ShMem   1 Linda.
 G2DrvN:  IPasSy=1 do centers    4 through    4.
 Calling FoFCou, ICntrl=  3107 FMM=F I1Cent=   0 AccDes= 0.00D+00.
 CoulSu:  requested number of processors reduced to:  23 ShMem   1 Linda.
 G2DrvN:  IPasSy=1 do centers    5 through    5.
 Calling FoFCou, ICntrl=  3107 FMM=F I1Cent=   0 AccDes= 0.00D+00.
 CoulSu:  requested number of processors reduced to:  23 ShMem   1 Linda.
 G2DrvN:  IPasSy=1 do centers    6 through    6.
 Calling FoFCou, ICntrl=  3107 FMM=F I1Cent=   0 AccDes= 0.00D+00.
 CoulSu:  requested number of processors reduced to:  23 ShMem   1 Linda.
 G2DrvN:  IPasSy=1 do centers    7 through    7.
 Calling FoFCou, ICntrl=  3107 FMM=F I1Cent=   0 AccDes= 0.00D+00.
 CoulSu:  requested number of processors reduced to:  23 ShMem   1 Linda.
 G2DrvN:  IPasSy=1 do centers    8 through    8.
 Calling FoFCou, ICntrl=  3107 FMM=F I1Cent=   0 AccDes= 0.00D+00.
 CoulSu:  requested number of processors reduced to:  23 ShMem   1 Linda.
 G2DrvN:  IPasSy=1 do centers    9 through    9.
 Calling FoFCou, ICntrl=  3107 FMM=F I1Cent=   0 AccDes= 0.00D+00.
 CoulSu:  requested number of processors reduced to:  23 ShMem   1 Linda.
 G2DrvN:  IPasSy=1 do centers   10 through   10.
 Calling FoFCou, ICntrl=  3107 FMM=F I1Cent=   0 AccDes= 0.00D+00.
 CoulSu:  requested number of processors reduced to:  23 ShMem   1 Linda.
 G2DrvN:  IPasSy=1 do centers   11 through   11.
 Calling FoFCou, ICntrl=  3107 FMM=F I1Cent=   0 AccDes= 0.00D+00.
 CoulSu:  requested number of processors reduced to:  23 ShMem   1 Linda.
 G2DrvN:  IPasSy=1 do centers   12 through   12.
 Calling FoFCou, ICntrl=  3107 FMM=F I1Cent=   0 AccDes= 0.00D+00.
 CoulSu:  requested number of processors reduced to:  23 ShMem   1 Linda.
 G2DrvN:  IPasSy=1 do centers   13 through   13.
 Calling FoFCou, ICntrl=  3107 FMM=F I1Cent=   0 AccDes= 0.00D+00.
 CoulSu:  requested number of processors reduced to:  23 ShMem   1 Linda.
 G2DrvN:  IPasSy=1 do centers   14 through   14.
 Calling FoFCou, ICntrl=  3107 FMM=F I1Cent=   0 AccDes= 0.00D+00.
 CoulSu:  requested number of processors reduced to:  23 ShMem   1 Linda.
 G2DrvN:  IPasSy=1 do centers   15 through   15.
 Calling FoFCou, ICntrl=  3107 FMM=F I1Cent=   0 AccDes= 0.00D+00.
 CoulSu:  requested number of processors reduced to:  23 ShMem   1 Linda.
 G2DrvN:  IPasSy=1 do centers   16 through   16.
 Calling FoFCou, ICntrl=  3107 FMM=F I1Cent=   0 AccDes= 0.00D+00.
 CoulSu:  requested number of processors reduced to:  23 ShMem   1 Linda.
 G2DrvN:  IPasSy=1 do centers   17 through   17.
 Calling FoFCou, ICntrl=  3107 FMM=F I1Cent=   0 AccDes= 0.00D+00.
 CoulSu:  requested number of processors reduced to:  23 ShMem   1 Linda.
 G2DrvN:  IPasSy=1 do centers   18 through   18.
 Calling FoFCou, ICntrl=  3107 FMM=F I1Cent=   0 AccDes= 0.00D+00.
 CoulSu:  requested number of processors reduced to:  23 ShMem   1 Linda.
 G2DrvN:  IPasSy=1 do centers   19 through   19.
 Calling FoFCou, ICntrl=  3107 FMM=F I1Cent=   0 AccDes= 0.00D+00.
 CoulSu:  requested number of processors reduced to:  23 ShMem   1 Linda.
 G2DrvN:  IPasSy=1 do centers   20 through   20.
 Calling FoFCou, ICntrl=  3107 FMM=F I1Cent=   0 AccDes= 0.00D+00.
 CoulSu:  requested number of processors reduced to:  23 ShMem   1 Linda.
 G2DrvN:  IPasSy=1 do centers   21 through   21.
 Calling FoFCou, ICntrl=  3107 FMM=F I1Cent=   0 AccDes= 0.00D+00.
 CoulSu:  requested number of processors reduced to:  23 ShMem   1 Linda.
 G2DrvN:  IPasSy=1 do centers   22 through   22.
 Calling FoFCou, ICntrl=  3107 FMM=F I1Cent=   0 AccDes= 0.00D+00.
 CoulSu:  requested number of processors reduced to:  23 ShMem   1 Linda.
 G2DrvN:  IPasSy=1 do centers   23 through   23.
 Calling FoFCou, ICntrl=  3107 FMM=F I1Cent=   0 AccDes= 0.00D+00.
 CoulSu:  requested number of processors reduced to:  23 ShMem   1 Linda.
 G2DrvN:  IPasSy=1 do centers   24 through   24.
 Calling FoFCou, ICntrl=  3107 FMM=F I1Cent=   0 AccDes= 0.00D+00.
 CoulSu:  requested number of processors reduced to:  23 ShMem   1 Linda.
 G2DrvN:  IPasSy=1 do centers   25 through   25.
 Calling FoFCou, ICntrl=  3107 FMM=F I1Cent=   0 AccDes= 0.00D+00.
 CoulSu:  requested number of processors reduced to:  23 ShMem   1 Linda.
 G2DrvN:  IPasSy=1 do centers   26 through   26.
 Calling FoFCou, ICntrl=  3107 FMM=F I1Cent=   0 AccDes= 0.00D+00.
 CoulSu:  requested number of processors reduced to:  23 ShMem   1 Linda.
 G2DrvN:  IPasSy=1 do centers   27 through   27.
 Calling FoFCou, ICntrl=  3107 FMM=F I1Cent=   0 AccDes= 0.00D+00.
 CoulSu:  requested number of processors reduced to:  23 ShMem   1 Linda.
 G2DrvN:  IPasSy=1 do centers   28 through   28.
 Calling FoFCou, ICntrl=  3107 FMM=F I1Cent=   0 AccDes= 0.00D+00.
 CoulSu:  requested number of processors reduced to:  23 ShMem   1 Linda.
 G2DrvN:  IPasSy=1 do centers   29 through   29.
 Calling FoFCou, ICntrl=  3107 FMM=F I1Cent=   0 AccDes= 0.00D+00.
 CoulSu:  requested number of processors reduced to:  23 ShMem   1 Linda.
 NEqPCM:  Using equilibrium solvation (IEInf=0, Eps=   2.2706, EpsInf=   2.2533)
 G2PCM: DoFxE=T DoFxN=T DoGrad=T DoDP/DQ/DG/TGxP=FFFF NFrqRd=   0 IEInf=0 SqF1=F DoCFld=F IF1Alg=4.
 GePol: Maximum number of non-zero 1st derivatives   =     242
 CoulSu:  requested number of processors reduced to:  13 ShMem   1 Linda.
 CoulSu:  requested number of processors reduced to:  13 ShMem   1 Linda.
 CoulSu:  requested number of processors reduced to:  13 ShMem   1 Linda.
 CoulSu:  requested number of processors reduced to:  18 ShMem   1 Linda.
 CoulSu:  requested number of processors reduced to:  14 ShMem   1 Linda.
 CoulSu:  requested number of processors reduced to:  18 ShMem   1 Linda.
 CoulSu:  requested number of processors reduced to:  18 ShMem   1 Linda.
 CoulSu:  requested number of processors reduced to:  14 ShMem   1 Linda.
 CoulSu:  requested number of processors reduced to:  18 ShMem   1 Linda.
 CoulSu:  requested number of processors reduced to:  18 ShMem   1 Linda.
 CoulSu:  requested number of processors reduced to:  14 ShMem   1 Linda.
 CoulSu:  requested number of processors reduced to:  18 ShMem   1 Linda.
 CoulSu:  requested number of processors reduced to:  18 ShMem   1 Linda.
 CoulSu:  requested number of processors reduced to:  14 ShMem   1 Linda.
 CoulSu:  requested number of processors reduced to:  18 ShMem   1 Linda.
 CoulSu:  requested number of processors reduced to:  18 ShMem   1 Linda.
 CoulSu:  requested number of processors reduced to:  14 ShMem   1 Linda.
 CoulSu:  requested number of processors reduced to:  18 ShMem   1 Linda.
 CoulSu:  requested number of processors reduced to:  19 ShMem   1 Linda.
 CoulSu:  requested number of processors reduced to:  15 ShMem   1 Linda.
 CoulSu:  requested number of processors reduced to:  20 ShMem   1 Linda.
 CoulSu:  requested number of processors reduced to:  12 ShMem   1 Linda.
 CoulSu:  requested number of processors reduced to:  13 ShMem   1 Linda.
 CoulSu:  requested number of processors reduced to:  12 ShMem   1 Linda.
 CoulSu:  requested number of processors reduced to:  13 ShMem   1 Linda.
 End of G2Drv F.D. properties file   721 does not exist.
 End of G2Drv F.D. properties file   722 does not exist.
 End of G2Drv F.D. properties file   788 does not exist.
 Leave Link 1110 at Sat Nov  9 02:17:00 2019, MaxMem=   104857600 cpu:            8225.5 elap:             350.9
 (Enter /share/home/wli/program/opt/Chem_soft/g16/l1002.exe)
 Minotr:  Closed shell wavefunction.
          IDoAtm=11111111111111111111111111111
 NEqPCM:  Using equilibrium solvation (IEInf=0, Eps=   2.2706, EpsInf=   2.2533)
          Direct CPHF calculation.
          Differentiating once with respect to electric field.
                with respect to dipole field.
          Differentiating once with respect to nuclear coordinates.
          Requested convergence is 1.0D-08 RMS, and 1.0D-07 maximum.
          Secondary convergence is 1.0D-12 RMS, and 1.0D-12 maximum.
          NewPWx=T KeepS1=F KeepF1=F KeepIn=T MapXYZ=F SortEE=F KeepMc=T.
 Defaulting to unpruned grid for atomic number  78.
         8720 words used for storage of precomputed grid.
 Two-electron integrals replicated using symmetry.
          MDV=     104857600 using IRadAn=       1.
          Solving linear equations simultaneously, MaxMat=     384.
 FoF2E skips out because all densities are zero.
 CalDSu exits because no D1Ps are significant.
 FoFJK:  IHMeth= 1 ICntrl=       0 DoSepK=F KAlg= 0 I1Cent=           0 FoldK=F
 IRaf= 840000000 NMat=       6 IRICut=       1 DoRegI=T DoRafI=F ISym2E= 2 IDoP0=0 IntGTp=1.
 Defaulting to unpruned grid for atomic number  78.
 Defaulting to unpruned grid for atomic number  78.
 Defaulting to unpruned grid for atomic number  78.
 Defaulting to unpruned grid for atomic number  78.
 Defaulting to unpruned grid for atomic number  78.
 Defaulting to unpruned grid for atomic number  78.
 Defaulting to unpruned grid for atomic number  78.
 Defaulting to unpruned grid for atomic number  78.
 Defaulting to unpruned grid for atomic number  78.
 Defaulting to unpruned grid for atomic number  78.
 Defaulting to unpruned grid for atomic number  78.
 Defaulting to unpruned grid for atomic number  78.
 Defaulting to unpruned grid for atomic number  78.
 Defaulting to unpruned grid for atomic number  78.
 Defaulting to unpruned grid for atomic number  78.
 Defaulting to unpruned grid for atomic number  78.
 Defaulting to unpruned grid for atomic number  78.
 Defaulting to unpruned grid for atomic number  78.
 Defaulting to unpruned grid for atomic number  78.
 Defaulting to unpruned grid for atomic number  78.
 Defaulting to unpruned grid for atomic number  78.
 Defaulting to unpruned grid for atomic number  78.
 Defaulting to unpruned grid for atomic number  78.
 Defaulting to unpruned grid for atomic number  78.
          There are    90 degrees of freedom in the 1st order CPHF.  IDoFFX=6 NUNeed=     3.
     90 vectors produced by pass  0 Test12= 2.13D-14 1.11D-09 XBig12= 1.91D+02 6.13D+00.
 AX will form     6 AO Fock derivatives at one time.
     88 vectors produced by pass  1 Test12= 2.13D-14 1.11D-09 XBig12= 2.05D+01 8.16D-01.
     87 vectors produced by pass  2 Test12= 2.13D-14 1.11D-09 XBig12= 4.26D-01 1.67D-01.
     87 vectors produced by pass  3 Test12= 2.13D-14 1.11D-09 XBig12= 2.62D-03 1.15D-02.
     87 vectors produced by pass  4 Test12= 2.13D-14 1.11D-09 XBig12= 2.70D-05 8.24D-04.
     83 vectors produced by pass  5 Test12= 2.13D-14 1.11D-09 XBig12= 5.53D-08 3.54D-05.
     40 vectors produced by pass  6 Test12= 2.13D-14 1.11D-09 XBig12= 7.84D-11 1.10D-06.
      9 vectors produced by pass  7 Test12= 2.13D-14 1.11D-09 XBig12= 1.13D-13 4.09D-08.
      4 vectors produced by pass  8 Test12= 2.13D-14 1.11D-09 XBig12= 4.10D-16 2.31D-09.
      1 vectors produced by pass  9 Test12= 2.13D-14 1.11D-09 XBig12= 5.61D-17 1.16D-09.
 InvSVY:  IOpt=1 It=  1 EMax= 5.33D-15
 Solved reduced A of dimension   576 with    90 vectors.
 FullF1:  Do perturbations      1 to       3.
 Isotropic polarizability for W=    0.000000      207.15 Bohr**3.
 End of Minotr F.D. properties file   721 does not exist.
 End of Minotr F.D. properties file   722 does not exist.
 End of Minotr F.D. properties file   788 does not exist.
 Leave Link 1002 at Sat Nov  9 02:31:09 2019, MaxMem=   104857600 cpu:           20353.9 elap:             849.2
 (Enter /share/home/wli/program/opt/Chem_soft/g16/l601.exe)
 Copying SCF densities to generalized density rwf, IOpCl= 0 IROHF=0.

 **********************************************************************

            Population analysis using the SCF density.

 **********************************************************************

 Orbital symmetries:
       Occupied  (A) (A) (A) (A) (A) (A) (A) (A) (A) (A) (A) (A)
                 (A) (A) (A) (A) (A) (A) (A) (A) (A) (A) (A) (A)
                 (A) (A) (A) (A) (A) (A) (A) (A) (A) (A) (A) (A)
                 (A) (A) (A) (A) (A) (A) (A) (A) (A) (A) (A) (A)
                 (A) (A) (A) (A)
       Virtual   (A) (A) (A) (A) (A) (A) (A) (A) (A) (A) (A) (A)
                 (A) (A) (A) (A) (A) (A) (A) (A) (A) (A) (A) (A)
                 (A) (A) (A) (A) (A) (A) (A) (A) (A) (A) (A) (A)
                 (A) (A) (A) (A) (A) (A) (A) (A) (A) (A) (A) (A)
                 (A) (A) (A) (A) (A) (A) (A) (A) (A) (A) (A) (A)
                 (A) (A) (A) (A) (A) (A) (A) (A) (A) (A) (A) (A)
                 (A) (A) (A) (A) (A) (A) (A) (A) (A) (A) (A) (A)
                 (A) (A) (A) (A) (A) (A) (A) (A) (A) (A) (A) (A)
                 (A) (A) (A) (A) (A) (A) (A) (A) (A) (A) (A) (A)
                 (A) (A) (A) (A) (A) (A) (A) (A) (A) (A) (A) (A)
                 (A) (A) (A) (A) (A) (A) (A) (A) (A) (A) (A) (A)
                 (A) (A) (A) (A) (A) (A) (A) (A) (A) (A) (A) (A)
                 (A) (A) (A) (A) (A) (A) (A) (A) (A) (A) (A) (A)
                 (A) (A) (A) (A) (A) (A) (A) (A) (A) (A) (A) (A)
                 (A) (A) (A) (A) (A) (A) (A) (A) (A) (A) (A) (A)
                 (A) (A) (A) (A) (A) (A) (A) (A) (A) (A) (A) (A)
                 (A) (A) (A) (A) (A) (A) (A) (A) (A) (A) (A) (A)
                 (A) (A) (A) (A) (A) (A) (A) (A) (A) (A) (A) (A)
                 (A) (A) (A) (A) (A) (A) (A) (A) (A) (A) (A) (A)
                 (A) (A) (A) (A) (A) (A) (A) (A) (A) (A) (A) (A)
                 (A) (A) (A) (A) (A) (A) (A) (A) (A) (A) (A) (A)
                 (A) (A) (A) (A) (A) (A) (A) (A) (A) (A) (A) (A)
                 (A) (A) (A) (A) (A) (A) (A) (A) (A) (A) (A) (A)
                 (A) (A) (A) (A) (A) (A) (A) (A) (A) (A) (A) (A)
                 (A) (A) (A) (A) (A) (A) (A) (A) (A) (A) (A) (A)
                 (A) (A) (A) (A) (A) (A) (A) (A) (A) (A) (A) (A)
                 (A) (A) (A) (A) (A) (A) (A) (A) (A) (A) (A) (A)
                 (A) (A) (A) (A) (A) (A) (A) (A) (A) (A) (A) (A)
                 (A) (A) (A) (A) (A) (A) (A) (A) (A) (A) (A) (A)
                 (A) (A) (A) (A) (A) (A) (A) (A) (A) (A) (A) (A)
                 (A) (A) (A) (A) (A) (A) (A) (A)
 The electronic state is 1-A.
 Alpha  occ. eigenvalues --  -77.21199 -77.21199 -10.20809 -10.20809 -10.20788
 Alpha  occ. eigenvalues --  -10.20788 -10.20783 -10.20783  -6.60495  -6.60495
 Alpha  occ. eigenvalues --   -4.74103  -4.74103  -4.74096  -4.74096  -4.73773
 Alpha  occ. eigenvalues --   -4.73773  -3.88181  -2.13279  -2.11142  -2.10609
 Alpha  occ. eigenvalues --   -0.78616  -0.78442  -0.70620  -0.70613  -0.70568
 Alpha  occ. eigenvalues --   -0.70566  -0.55925  -0.54575  -0.46084  -0.44845
 Alpha  occ. eigenvalues --   -0.44660  -0.43539  -0.43518  -0.43492  -0.43459
 Alpha  occ. eigenvalues --   -0.40831  -0.40819  -0.40792  -0.40704  -0.39065
 Alpha  occ. eigenvalues --   -0.39040  -0.35619  -0.34291  -0.34114  -0.33967
 Alpha  occ. eigenvalues --   -0.33696  -0.28489  -0.23423  -0.21020  -0.20693
 Alpha  occ. eigenvalues --   -0.20415  -0.18422
 Alpha virt. eigenvalues --   -0.00280   0.03598   0.04140   0.04958   0.07352
 Alpha virt. eigenvalues --    0.07719   0.09096   0.09413   0.09527   0.09551
 Alpha virt. eigenvalues --    0.10004   0.10502   0.10762   0.11427   0.11473
 Alpha virt. eigenvalues --    0.13088   0.14035   0.14613   0.14722   0.14964
 Alpha virt. eigenvalues --    0.15147   0.15214   0.15315   0.15460   0.16000
 Alpha virt. eigenvalues --    0.16357   0.17279   0.17696   0.18499   0.20901
 Alpha virt. eigenvalues --    0.20968   0.21345   0.21829   0.24976   0.25587
 Alpha virt. eigenvalues --    0.25862   0.26200   0.26523   0.26684   0.28219
 Alpha virt. eigenvalues --    0.29392   0.29548   0.30422   0.31100   0.31272
 Alpha virt. eigenvalues --    0.35348   0.35961   0.36134   0.36716   0.37195
 Alpha virt. eigenvalues --    0.38376   0.39441   0.39596   0.40271   0.40319
 Alpha virt. eigenvalues --    0.40732   0.41737   0.41952   0.41994   0.42839
 Alpha virt. eigenvalues --    0.44421   0.45080   0.45834   0.46579   0.46820
 Alpha virt. eigenvalues --    0.47288   0.47389   0.47554   0.47614   0.48076
 Alpha virt. eigenvalues --    0.49613   0.49758   0.50251   0.50520   0.52809
 Alpha virt. eigenvalues --    0.52847   0.53148   0.54300   0.55071   0.56453
 Alpha virt. eigenvalues --    0.57041   0.58928   0.59483   0.61766   0.64422
 Alpha virt. eigenvalues --    0.65256   0.68856   0.69125   0.69455   0.70811
 Alpha virt. eigenvalues --    0.70927   0.71870   0.72283   0.73850   0.75034
 Alpha virt. eigenvalues --    0.75938   0.76416   0.76648   0.76690   0.77471
 Alpha virt. eigenvalues --    0.81987   0.82387   0.82677   0.86571   0.88266
 Alpha virt. eigenvalues --    0.88285   0.91144   0.91332   0.91885   0.92050
 Alpha virt. eigenvalues --    0.94348   0.95502   0.95936   0.99747   1.00266
 Alpha virt. eigenvalues --    1.01229   1.02117   1.04765   1.04997   1.05824
 Alpha virt. eigenvalues --    1.06884   1.07365   1.07545   1.07683   1.08495
 Alpha virt. eigenvalues --    1.09237   1.09410   1.10429   1.11506   1.22710
 Alpha virt. eigenvalues --    1.25284   1.26479   1.30616   1.32532   1.33797
 Alpha virt. eigenvalues --    1.36815   1.37330   1.41397   1.42204   1.44121
 Alpha virt. eigenvalues --    1.44166   1.44598   1.46050   1.48768   1.51151
 Alpha virt. eigenvalues --    1.51451   1.52027   1.52133   1.53067   1.53343
 Alpha virt. eigenvalues --    1.53384   1.53494   1.54076   1.55260   1.55410
 Alpha virt. eigenvalues --    1.55412   1.55844   1.56062   1.57140   1.57657
 Alpha virt. eigenvalues --    1.58646   1.59044   1.59935   1.60174   1.60292
 Alpha virt. eigenvalues --    1.61054   1.61789   1.62214   1.62250   1.62799
 Alpha virt. eigenvalues --    1.62823   1.63884   1.64095   1.64479   1.64926
 Alpha virt. eigenvalues --    1.65252   1.66785   1.66921   1.67451   1.68285
 Alpha virt. eigenvalues --    1.69326   1.69414   1.69574   1.71042   1.73652
 Alpha virt. eigenvalues --    1.79061   1.84370   1.86937   1.87012   1.87834
 Alpha virt. eigenvalues --    1.88743   1.93308   1.93508   1.93796   1.94292
 Alpha virt. eigenvalues --    1.96512   1.98305   1.98921   2.01724   2.03777
 Alpha virt. eigenvalues --    2.03850   2.04160   2.04191   2.04367   2.07718
 Alpha virt. eigenvalues --    2.08487   2.08586   2.08718   2.09093   2.09365
 Alpha virt. eigenvalues --    2.11304   2.11677   2.11859   2.15844   2.17366
 Alpha virt. eigenvalues --    2.19509   2.20677   2.21118   2.22193   2.28619
 Alpha virt. eigenvalues --    2.29556   2.31219   2.31246   2.31866   2.33267
 Alpha virt. eigenvalues --    2.33742   2.34347   2.34741   2.35723   2.37380
 Alpha virt. eigenvalues --    2.37618   2.40242   2.40601   2.40820   2.42381
 Alpha virt. eigenvalues --    2.42908   2.44509   2.47622   2.48788   2.50720
 Alpha virt. eigenvalues --    2.51032   2.52365   2.52474   2.55414   2.55520
 Alpha virt. eigenvalues --    2.55552   2.56029   2.59522   2.59691   2.59898
 Alpha virt. eigenvalues --    2.61971   2.62030   2.62343   2.63632   2.64478
 Alpha virt. eigenvalues --    2.64983   2.66447   2.66908   2.68061   2.68743
 Alpha virt. eigenvalues --    2.70565   2.75499   2.77783   2.79084   2.79340
 Alpha virt. eigenvalues --    2.84998   2.85748   2.85889   2.87352   2.89786
 Alpha virt. eigenvalues --    2.91024   2.94979   2.95568   2.97263   2.97654
 Alpha virt. eigenvalues --    2.99967   3.10279   3.10493   3.11463   3.14067
 Alpha virt. eigenvalues --    3.14203   3.14524   3.18551   3.18772   3.19625
 Alpha virt. eigenvalues --    3.20311   3.20593   3.21583   3.23484   3.23542
 Alpha virt. eigenvalues --    3.29692   3.30087   3.30286   3.31185   3.33164
 Alpha virt. eigenvalues --    3.33257   3.34835   3.36500   3.36526   3.37156
 Alpha virt. eigenvalues --    3.37382   3.38163   3.38202   3.48856   3.49164
 Alpha virt. eigenvalues --    3.49220   3.49769   3.50294   3.50638   3.54483
 Alpha virt. eigenvalues --    3.54520   3.54696   3.55338   3.55513   3.56624
 Alpha virt. eigenvalues --    3.60024   3.60319   3.60939   3.61579   3.62481
 Alpha virt. eigenvalues --    3.63016   3.63984   3.64176   3.64412   3.64685
 Alpha virt. eigenvalues --    3.72614   3.72713   3.72898   3.73196   3.80602
 Alpha virt. eigenvalues --    3.80660   4.25724   4.25926   4.27592   4.27725
 Alpha virt. eigenvalues --    4.28117   4.28194   4.28309   4.28538   4.33215
 Alpha virt. eigenvalues --    4.33514   4.33523   4.34955   4.39938   4.40410
 Alpha virt. eigenvalues --    4.46025   4.46165   4.46365   4.46687   7.77560
 Alpha virt. eigenvalues --    7.81304   7.81821   7.82052   7.83520   7.87550
 Alpha virt. eigenvalues --   15.51860  15.53817  22.35786  22.36974  22.38022
 Alpha virt. eigenvalues --   22.38261  22.38467  22.38727  27.20250  29.01648
 Alpha virt. eigenvalues --   34.48945  52.14283 285.01305
          Condensed to atoms (all electrons):
               1          2          3          4          5          6
     1  Pt  17.823485   0.386874   0.386936  -0.043481  -0.000394   0.008520
     2  P    0.386874  13.761353  -0.047121   0.341774  -0.024172  -0.033673
     3  P    0.386936  -0.047121  13.761266   0.000543  -0.000006  -0.000047
     4  C   -0.043481   0.341774   0.000543   5.046133   0.392808   0.381963
     5  H   -0.000394  -0.024172  -0.000006   0.392808   0.509035  -0.022067
     6  H    0.008520  -0.033673  -0.000047   0.381963  -0.022067   0.552334
     7  H   -0.000028  -0.025083   0.000175   0.393260  -0.013355  -0.021128
     8  C   -0.031034   0.326280   0.001534  -0.041730  -0.000288  -0.005677
     9  H   -0.000448  -0.024669  -0.000064   0.005681  -0.000148  -0.000167
    10  H    0.005642  -0.032133  -0.000064  -0.005282  -0.000214   0.005951
    11  H   -0.000590  -0.024483  -0.000065  -0.000499   0.001464  -0.000419
    12  C   -0.047669   0.342818   0.000260  -0.038834   0.005486  -0.006121
    13  H    0.000531  -0.025232   0.000268  -0.000000  -0.000137  -0.000187
    14  H    0.008741  -0.033604  -0.000039  -0.006165  -0.000177   0.006212
    15  H    0.000006  -0.024256   0.000012   0.005457  -0.000163  -0.000171
    16  C   -0.047622   0.000263   0.342806  -0.000120   0.000034   0.000002
    17  H    0.000526   0.000268  -0.025233  -0.000053  -0.000007   0.000002
    18  H    0.008739  -0.000039  -0.033606   0.000003  -0.000000   0.000000
    19  H    0.000000   0.000012  -0.024256   0.000039  -0.000005  -0.000000
[...]
 479,-0.00031122,-0.04468337,0.01653959,-0.02298901,-0.00190519,0.01403
 405,-0.02470786,-0.00116497,-0.00132310,0.00188488,0.04737532,0.000284
 94,0.00058863,-0.00090875,-0.00009781,-0.00023342,0.00023683,0.0038363
 1,-0.00909232,0.01447182,0.00005798,0.00001776,-0.00002409,-0.00000751
 ,-0.00000048,-0.00000737,0.00000887,0.00001596,0.00001350,-0.00000248,
 -0.00000023,0.00000725,0.00008398,0.00005497,-0.00001781,0.00000101,-0
 .00000164,-0.00000428,0.00003205,-0.00002204,-0.00000693,-0.00000999,0
 .00001299,0.00000232,-0.00000593,-0.00000858,-0.00001029,0.00000510,0.
 00000688,0.00000450,0.00000309,0.00000430,-0.00000314,0.00000315,-0.00
 000184,-0.00000476,0.00084517,0.00098403,-0.00026154,-0.00014805,0.000
 34527,-0.00002396,-0.00001929,-0.00010158,0.00005240,-0.00019465,-0.00
 059703,-0.00054544,0.02025346,-0.11590370,0.12589420,-0.00015618,-0.00
 690089,0.00980410,-0.00228092,0.01151180,-0.01815463,-0.01863365,0.122
 70462,0.00009336,-0.00027076,0.00035259,0.00010387,0.00004037,-0.00006
 569,-0.00130579,-0.00085041,-0.00191159,-0.00002030,-0.00000922,0.0000
 0288,-0.00000193,0.00000321,0.00000218,-0.00000110,-0.00000335,-0.0000
 0742,-0.00000147,-0.00000152,0.00000132,-0.00000458,-0.00001101,0.0000
 0233,-0.00000040,0.00000446,-0.00000144,-0.00000096,0.00000259,0.00000
 247,0.00000471,0.00000052,0.00000213,-0.00000511,-0.00000143,-0.000000
 12,-0.00000039,0.00000015,-0.00000246,-0.00000348,0.00000030,0.0000046
 1,-0.00000189,0.00000137,0.00000175,0.00013034,0.00022611,0.00028162,0
 .00004593,0.00007148,0.00013064,0.00002654,-0.00001030,-0.00001744,-0.
 00014588,-0.00020863,0.00007726,-0.02753418,0.12093238,-0.24173162,0.0
 0060830,-0.00160781,0.00107134,-0.00235036,0.01360419,-0.01899668,0.02
 987238,-0.13153793,0.26003316,-0.00556739,0.00380159,-0.00927605,0.002
 56171,0.00066261,0.00174775,-0.05399069,0.02451401,-0.04413615,-0.0002
 9422,-0.00003042,0.00004108,0.00006136,0.00001882,0.00003001,-0.000138
 86,-0.00006736,-0.00007649,0.00004234,0.00005590,0.00002133,-0.0004823
 7,-0.00012949,-0.00008266,0.00006995,-0.00005797,-0.00001763,-0.000208
 90,0.00008898,-0.00005226,0.00001974,0.00000326,-0.00000150,-0.0006599
 1,-0.00020636,-0.00015323,-0.00001690,-0.00003436,-0.00000722,-0.00007
 111,-0.00021397,0.00019251,0.00001114,0.00005728,-0.00004159,0.0012927
 5,-0.00168066,0.00512303,-0.00015074,0.00008499,-0.00019653,0.00090468
 ,-0.00078291,0.00053162,-0.00018447,0.00084474,0.00150983,0.00294528,-
 0.01020797,0.01559176,0.00139263,0.00008314,0.00051770,0.00057879,0.00
 084110,-0.00026668,-0.00357695,-0.00386803,0.00055190,0.53076073,0.001
 60854,-0.00022559,0.00343823,-0.00065598,-0.00029523,-0.00076355,0.014
 43849,-0.07641518,0.04996243,0.00003074,0.00000072,0.00000951,0.000000
 10,-0.00000916,-0.00000140,0.00003020,0.00001308,0.00002129,0.00000129
 ,-0.00000017,-0.00001391,0.00022845,0.00011173,0.00003844,-0.00002938,
 0.00001825,0.00000769,0.00009651,-0.00004745,0.00001379,-0.00000844,-0
 .00000717,-0.00000156,0.00023585,0.00008064,0.00008475,-0.00002981,-0.
 00000519,-0.00000027,0.00003041,0.00005918,-0.00007547,0.00000479,-0.0
 0001892,0.00001299,-0.00299543,0.00860217,-0.01478734,-0.00015062,0.00
 076719,0.00086974,-0.00054737,0.00052776,0.00047442,0.00133681,-0.0030
 5154,-0.00389223,0.00462867,-0.01074590,0.01840376,0.00085372,0.001469
 77,-0.00050343,0.00106825,0.00097456,-0.00036061,-0.00389213,-0.003583
 52,-0.00002768,0.02392470,0.50500067,-0.00036653,0.00067723,0.00180745
 ,-0.00023586,-0.00029590,-0.00049008,-0.02227918,0.04192929,-0.1156716
 2,0.00004118,-0.00000637,0.00000941,-0.00000026,-0.00001498,0.00000059
 ,0.00001165,0.00002451,0.00001342,0.00001206,0.00001776,-0.00001158,0.
 00009078,0.00004724,0.00005782,-0.00001368,0.00002378,0.00000273,0.000
 03619,-0.00002376,0.00000864,0.00000352,-0.00001007,0.00000281,0.00015
 603,0.00006739,0.00008421,-0.00000509,0.00000182,-0.00004417,0.0000094
 1,0.00004084,-0.00003795,-0.00001705,0.00000596,0.00001002,-0.00556197
 ,0.01065475,-0.01861141,-0.00043669,0.00052272,0.00127712,-0.00025759,
 0.00118274,0.00160731,0.00109321,-0.00351522,-0.00344961,-0.00110051,0
 .00226446,-0.00157023,-0.00044776,-0.00066091,-0.00009386,-0.00002303,
 0.00009779,0.00030114,-0.00020122,-0.00001144,0.00048040,-0.03458173,0
 .06213956,0.44309120,-0.00028526,0.00012907,0.00012957,-0.00012287,0.0
 0001371,0.00002287,-0.00051095,-0.00556602,-0.00452743,0.00006208,0.00
 000065,-0.00000013,-0.00000485,-0.00000062,-0.00000322,0.00001328,0.00
 001563,0.00001313,0.00000021,-0.00000258,-0.00000326,0.00000752,-0.000
 00964,0.00001459,-0.00000557,0.00000741,-0.00000203,0.00000582,0.00000
 119,-0.00000003,0.00000207,-0.00000219,0.00000284,0.00001379,-0.000013
 13,0.00000459,-0.00000856,-0.00001458,-0.00002000,0.00000803,0.0000010
 3,0.00001388,-0.00002870,0.00001345,0.00001109,-0.00028365,0.00126196,
 -0.00141314,-0.00003653,0.00023009,0.00028182,0.00024169,-0.00009128,-
 0.00021465,0.00059325,-0.00035505,-0.00047843,-0.00015154,-0.00002560,
 0.00031253,-0.00003150,0.00008524,0.00006553,0.00013883,-0.00015609,0.
 00017275,-0.00011046,-0.00005289,-0.00007382,-0.04688790,0.01882641,0.
 02664352,0.04783750,-0.00007833,-0.00010842,-0.00028631,0.00018021,0.0
 0007100,0.00006281,-0.00201963,0.00732184,0.01054905,-0.00001699,-0.00
 001011,0.00001321,0.,0.00000596,0.00000451,-0.00000831,-0.00000458,-0.
 00000752,0.00000321,0.00000037,0.00000603,-0.00002757,-0.00002103,0.00
 000555,0.00000482,0.00000043,-0.00000284,-0.00001386,0.00000528,-0.000
 00537,0.00000327,-0.00000073,0.00000067,-0.00004619,-0.00002476,-0.000
 00409,-0.00000141,-0.00001653,-0.00002196,-0.00000314,-0.00001784,0.00
 002240,-0.00001692,0.00002245,0.00000372,0.00071809,-0.00194408,0.0032
 5712,0.00016022,-0.00000732,-0.00002824,-0.00008422,-0.00016550,-0.000
 07441,-0.00024058,0.00090367,0.00101577,-0.00004567,0.00066587,-0.0009
 2764,-0.00000109,-0.00006268,0.00002166,-0.00021665,-0.00046779,0.0002
 9123,0.00027578,0.00017617,-0.00011412,0.01897028,-0.13146295,-0.12828
 516,-0.02149908,0.14389387,0.00021241,0.00031797,0.00097984,-0.0002669
 9,-0.00012720,-0.00012441,0.00338319,-0.01346686,-0.01469314,0.0000292
 9,-0.00000169,-0.00000205,-0.00000376,-0.00000372,-0.00000583,0.000014
 95,0.00000915,0.00000934,0.00000007,-0.00000234,-0.00000704,0.00004446
 ,0.00002482,0.00001720,-0.00001078,0.00000789,0.00000149,0.00001957,-0
 .00000946,0.00000642,-0.00000003,-0.00000270,-0.00000083,0.00005434,0.
 00001572,0.00000546,-0.00000118,-0.00000328,-0.00000402,0.00000542,0.0
 0001343,-0.00001252,-0.00000912,-0.00000312,0.00000876,-0.00177363,0.0
 0363506,-0.00444616,-0.00011229,0.00007370,0.00031483,-0.00014728,0.00
 032435,0.00045885,0.00046431,-0.00131971,-0.00112407,0.00024476,-0.000
 36030,0.00118474,-0.00003921,0.00002115,-0.00007530,0.00034167,0.00064
 577,-0.00006495,-0.00031388,0.00005231,0.00021124,0.02912643,-0.135331
 44,-0.22536183,-0.03005116,0.14119106,0.23965845,-0.00129049,0.0004571
 6,-0.00121755,0.00092230,0.00031614,0.00004331,-0.00703877,0.00145035,
 0.00046632,-0.00013798,-0.00002975,0.00001297,0.00001331,0.00000831,0.
 00001425,-0.00005039,-0.00003315,-0.00003632,0.00001154,0.00001703,0.0
 0001470,-0.00016605,-0.00006414,-0.00001317,0.00001840,-0.00000852,-0.
 00000076,-0.00007009,0.00003205,-0.00000036,0.00001289,-0.00000506,0.0
 0000204,-0.00007879,-0.00003070,-0.00000713,0.00001689,0.00001634,-0.0
 0000019,-0.00003222,-0.00002195,0.00002338,0.00001001,0.00000166,-0.00
 000737,0.00090529,-0.00053800,0.00037047,-0.00008404,0.00004926,-0.000
 00753,0.00017379,-0.00030547,-0.00065129,0.00025544,-0.00005458,0.0001
 6637,0.00114335,-0.00062903,0.00038356,0.00045928,0.00052085,-0.000058
 14,-0.00005233,-0.00002358,-0.00002432,0.00015715,-0.00022007,0.000026
 08,-0.29178669,0.07058877,0.02021361,-0.00206070,-0.00021896,-0.000577
 77,0.31344197,0.00093259,-0.00009197,0.00172686,-0.00063301,-0.0003530
 1,-0.00039843,0.01180221,-0.00545088,0.00052554,0.00006489,0.00001212,
 -0.00002449,-0.00001513,-0.00000488,-0.00000812,0.00003143,0.00001856,
 0.00001906,-0.00001097,-0.00000874,0.00000099,0.00017079,0.00007997,0.
 00000705,-0.00001863,0.00001542,0.00000270,0.00006901,-0.00003884,0.00
 001206,-0.00000895,0.00000446,0.00000296,0.00018933,0.00004715,0.00003
 440,0.00002202,0.00002048,0.00000985,0.00001797,0.00006439,-0.00005742
 ,0.00000302,-0.00002106,0.00000871,-0.00088897,0.00032897,-0.00094300,
 -0.00007286,-0.00002855,-0.00004096,-0.00019988,0.00046423,0.00020817,
 -0.00006883,-0.00018891,-0.00022427,0.00032545,0.00050263,-0.00097769,
 -0.00064070,-0.00020420,0.00032134,0.00000531,-0.00010075,0.00002513,-
 0.00011431,0.00040640,-0.00013712,0.07467051,-0.06509113,-0.00855172,0
 .01660710,-0.00501042,0.00071875,-0.07820808,0.06552028,-0.00126350,0.
 00071167,-0.00217707,0.00077028,0.00031687,0.00048190,-0.01953598,0.00
 707559,-0.00241681,-0.00008104,-0.00002251,0.00001534,0.00001368,0.000
 00884,0.00000889,-0.00003676,-0.00002047,-0.00002462,0.00000804,0.0000
 1061,0.00000380,-0.00017372,-0.00006869,-0.00001502,0.00001982,-0.0000
 1458,-0.00000745,-0.00007328,0.00003410,-0.00001121,0.00001245,-0.0000
 0341,0.00000202,-0.00021148,-0.00007818,-0.00004743,-0.00001642,-0.000
 02165,-0.00001236,-0.00002279,-0.00007032,0.00007262,-0.00001653,0.000
 02552,-0.00000790,-0.00035788,-0.00026739,0.00185239,0.00001788,-0.000
 04037,-0.00007374,0.00067561,-0.00032649,-0.00034198,0.00023441,0.0001
 7804,0.00046861,-0.00020615,-0.00121721,0.00122623,0.00072266,0.000162
 15,0.00006809,0.00010602,-0.00003712,-0.00001585,-0.00014309,-0.000517
 40,0.00004009,0.01188908,-0.00578708,-0.04089392,0.02491749,-0.0054401
 6,-0.00054974,-0.02006525,0.00626533,0.04383868,-0.00030824,0.00001969
 ,-0.00012043,-0.00000219,0.00007617,0.00000409,0.00322725,0.00643322,0
 .00029080,0.00004295,0.00000077,0.00001255,0.00000037,-0.00000411,0.00
 000069,0.00001180,0.00001127,0.00000729,-0.00000217,-0.00000437,-0.000
 01690,0.00000636,-0.00001336,0.00002140,-0.00000134,0.00000219,-0.0000
 0132,0.00000465,0.00000014,-0.00000187,0.00000415,-0.00000567,0.000000
 96,-0.00001149,0.00002606,0.00001570,-0.00006650,-0.00003127,0.0000030
 3,0.00001918,-0.00002334,0.00001741,-0.00002638,0.00000589,0.00000987,
 -0.00012614,-0.00011079,0.00051828,0.00012431,-0.00007108,0.00003651,-
 0.00008305,-0.00007227,-0.00000694,-0.00004338,0.00017804,0.00010003,-
 0.00017601,0.00077199,-0.00169664,0.00034025,0.00008343,-0.00016821,-0
 .00019099,-0.00014935,-0.00001331,0.00078870,0.00030850,-0.00016620,-0
 .13598056,-0.12974113,0.01707861,0.00156687,0.00421631,-0.00063331,-0.
 01459815,-0.02417340,0.00300742,0.14545644,0.00000796,0.00056474,-0.00
 030157,0.00018054,-0.00018682,-0.00005865,-0.00780512,-0.01021141,-0.0
 0133182,-0.00005454,0.00000189,-0.00001748,0.00000282,-0.00000079,0.00
 000210,-0.00001623,-0.00000933,-0.00001063,0.00000401,0.00001331,0.000
 01296,0.00003619,0.00004684,-0.00002249,-0.00000032,-0.00000094,0.0000
 0186,0.00001041,-0.00001347,0.00000264,-0.00000524,0.00000612,0.000001
 44,0.00002847,0.00000118,0.00000699,0.00001886,0.00004310,0.00002926,-
 0.00001266,0.00002151,-0.00002315,0.00002468,-0.00002069,-0.00001242,0
 .00011071,0.00056933,-0.00041639,-0.00006865,0.00032687,0.00011874,0.0
 0005511,-0.00001821,0.00002626,0.00018293,-0.00000745,-0.00002670,0.00
 147023,-0.00124090,0.00310900,0.00008044,0.00018102,-0.00005111,0.0002
 1312,0.00033465,-0.00010853,-0.00096748,-0.00051664,-0.00001757,-0.132
 89261,-0.22669831,0.02176484,-0.00946072,-0.01373690,0.00339027,0.0065
 5753,0.00903665,-0.00135669,0.14233176,0.24114445,0.00029071,-0.000574
 58,0.00016901,-0.00025059,0.00009758,0.00008822,0.01288355,0.01618496,
 -0.00188793,0.00002266,0.00001280,-0.00001100,-0.00000337,-0.00000576,
 -0.00000741,0.00001579,-0.00000036,0.00000419,-0.00001679,-0.00001450,
 -0.00001604,-0.00002752,-0.00002844,-0.00001294,0.00000206,-0.00000734
 ,0.00000116,-0.00000766,0.00000968,0.00000396,-0.00000096,0.00000144,-
 0.00000268,-0.00000199,0.00001998,-0.00003629,0.00000912,0.00001105,0.
 00004275,0.00000276,0.00000260,-0.00001072,0.00003519,-0.00002443,-0.0
 0000805,0.00024326,-0.00075322,0.00143394,-0.00002035,-0.00030612,-0.0
 0085296,-0.00000188,0.00003881,-0.00008352,-0.00030338,0.00006834,0.00
 031493,-0.00166560,0.00285667,-0.00523142,-0.00034656,-0.00039542,0.00
 002453,-0.00019495,-0.00000493,0.00015328,0.00134218,0.00148359,0.0001
 1012,0.02121272,0.02624341,-0.04231179,-0.01576141,-0.02128298,0.00368
 879,0.00078153,0.00157863,-0.00170065,-0.01825596,-0.02481034,0.046203
 73,0.00337303,-0.03672373,0.00081784,-0.00078252,0.00377024,-0.0000632
 8,-0.00356390,0.00714925,-0.00014468,-0.00005194,-0.00011249,0.0000852
 8,0.00002936,-0.00001094,0.00004888,-0.00000316,-0.00015573,-0.0000000
 8,0.00000345,-0.00007869,-0.00010267,-0.00060558,-0.00044290,-0.000001
 57,-0.00012755,0.00002180,0.00008779,-0.00025518,0.00031054,-0.0000062
 8,-0.00015286,0.00005092,-0.00008862,0.00013623,-0.00005630,-0.0000513
 6,-0.00000283,-0.00009846,0.00010570,0.00002530,-0.00011664,-0.0000624
 8,0.00002247,-0.00001421,-0.00004408,-0.00077101,0.00006148,-0.0000823
 5,0.00002091,-0.00013051,-0.00010789,-0.00010301,0.00006492,0.00022726
 ,0.00001608,-0.00000451,0.00002655,0.00124648,-0.00046287,0.00002209,0
 .00039014,0.00031170,-0.00001799,0.00000072,0.00003885,-0.00010229,0.0
 0009741,-0.00000776,0.00006594,-0.00059244,0.00000240,0.00005787,0.000
 00870,-0.00000626,-0.00004837,-0.00009162,-0.00001317,-0.00018512,0.00
 001975,-0.00010696,0.00012311,0.28435040,0.00615185,0.01005537,-0.0001
 6997,-0.00275343,-0.00749656,0.00019124,-0.00342842,-0.00528963,0.0000
 7922,-0.00102468,-0.00007879,0.00009476,-0.00000967,-0.00000295,-0.000
 08756,-0.00021449,-0.00003420,-0.00031990,0.00002702,0.00018822,0.0001
 7977,0.00106562,0.00048350,-0.00000777,0.00000681,0.00005827,0.0000268
 3,0.00031803,-0.00022399,-0.00000948,0.00001928,0.00006582,-0.00002761
 ,-0.00128315,-0.00014480,-0.00011451,0.00003342,0.00022890,-0.00017558
 ,-0.00024679,-0.00011075,0.00038591,0.00000906,0.00000274,0.00006210,0
 .00075595,0.00005611,0.00000775,-0.00004873,0.00024701,0.00019680,0.00
 019855,0.00002113,-0.00025740,0.00002342,-0.00000615,-0.00008847,-0.00
 064498,0.00013370,0.00001529,-0.00026680,-0.00006542,0.00000733,0.0001
 0034,0.00008996,0.00003120,0.00007562,0.00007492,-0.00004798,0.0004980
 7,0.00011990,0.00001125,0.00004823,-0.00000654,0.00010538,0.00015567,0
 .00009782,0.00017293,-0.00003724,0.00018610,-0.00021205,0.01339158,0.0
 0110178,-0.00009329,0.00014533,-0.00339701,0.00004179,0.00017247,0.002
 15441,0.00007844,0.00008149,0.00089200,0.00062502,0.00014008,-0.000157
 78,-0.00003165,-0.00002008,-0.00004733,0.00009930,0.00010327,0.0001572
 4,-0.00002287,-0.00005863,-0.00003504,-0.00003889,-0.00001901,-0.00006
 115,-0.00001108,-0.00004583,-0.00001129,-0.00001123,0.00000711,-0.0000
 1173,0.00001454,0.00003757,-0.00001211,-0.00056034,-0.00012588,-0.0001
 4339,0.00002072,0.00004451,-0.00001858,-0.00008235,-0.00011504,0.00012
 832,0.00003308,0.00002738,-0.00005671,-0.00027086,0.00003103,-0.000074
 82,0.00002242,-0.00005704,-0.00002859,-0.00006398,0.00003174,0.0000783
 3,0.00002617,-0.00002255,-0.00002217,0.00004686,-0.00001378,0.00005805
 ,0.00001559,0.00001467,0.00003365,-0.00004182,0.00000888,-0.00004923,-
 0.00000310,-0.00002639,-0.00006127,0.00022098,-0.00003174,-0.00005912,
 -0.00002565,0.00001820,-0.00002078,0.00005740,-0.00000830,0.00006965,-
 0.00002219,0.00004888,-0.00003531,-0.00400097,-0.00017165,0.00223605,0
 .00338100,0.03671755,-0.00068017,-0.00357071,-0.00714819,0.00014732,-0
 .00078548,-0.00376190,0.00009043,-0.00059006,-0.00000025,0.00005723,0.
 00000872,0.00000450,-0.00004911,-0.00009151,0.00000616,-0.00018508,0.0
 0001960,0.00011142,0.00011847,0.00124739,0.00046507,0.00000353,0.00009
 734,0.00001077,0.00006453,0.00039005,-0.00031230,-0.00000543,-0.000001
 03,-0.00004346,-0.00010088,-0.00077330,-0.00006670,-0.00007989,0.00002
 054,0.00012626,-0.00011270,-0.00010242,-0.00005654,0.00023042,0.000015
 99,0.00000569,0.00002560,0.00013185,0.00005483,-0.00005416,-0.00000270
 ,0.00010236,0.00010131,0.00002526,0.00011467,-0.00006600,0.00002247,0.
 00001240,-0.00004482,-0.00060485,0.00044178,-0.00001926,-0.00025470,-0
 .00031053,0.00000656,-0.00015232,-0.00005444,-0.00008647,-0.00012774,-
 0.00001842,0.00008849,-0.00005099,0.00011519,0.00008050,0.00002940,0.0
 0001267,0.00004789,-0.00000328,0.00015529,-0.00000584,0.00000355,0.000
 07473,-0.00010571,-0.28263683,-0.01292015,0.00397799,0.28435475,-0.006
 14643,0.01003063,-0.00038046,0.00343988,-0.00528720,0.00017463,0.00273
 834,-0.00749376,0.00020437,-0.00048922,0.00011958,-0.00001926,-0.00004
 937,-0.00001105,-0.00010686,-0.00015255,0.00009157,-0.00017346,0.00003
 653,0.00019155,0.00020300,0.00064591,0.00013459,-0.00001812,-0.0000755
 0,0.00007702,0.00004228,0.00026555,-0.00006607,-0.00000322,-0.00010224
 ,0.00008833,-0.00003716,-0.00077177,0.00005357,-0.00001266,0.00004949,
 0.00024221,-0.00020794,-0.00020083,0.00002945,0.00026085,-0.00002231,-
 0.00000235,0.00008677,0.00125752,-0.00013285,0.00011555,-0.00003341,0.
 00023270,0.00016584,0.00024391,-0.00012045,-0.00037522,-0.00000782,-0.
 00000048,-0.00006600,-0.00106390,0.00048192,-0.00001356,-0.00031921,-0
 .00022215,0.00001773,-0.00001778,0.00006420,0.00002412,-0.00000709,0.0
 0005921,-0.00003030,0.00105216,-0.00008820,-0.00009842,0.00000830,0.00
 000125,0.00008503,0.00021993,-0.00002621,0.00032806,-0.00002805,0.0001
 8410,-0.00018910,0.01336843,0.00024850,-0.00019668,-0.01383850,0.00112
 038,0.00016108,-0.00069454,-0.00338007,-0.00006155,0.00017084,0.000891
 32,-0.00007390,0.00022286,0.00215720,0.00023881,0.00002290,-0.00005944
 ,-0.00002360,-0.00001731,-0.00001698,0.00006432,0.00000730,0.00007622,
 -0.00002309,-0.00005936,-0.00004175,0.00002249,0.00001116,0.00005951,-
 0.00000023,0.00002062,-0.00006460,0.00000406,-0.00001149,0.00003423,-0
 .00003801,-0.00001361,-0.00004806,-0.00023989,-0.00003530,-0.00007363,
 0.00002028,0.00004640,-0.00002239,-0.00005569,-0.00003002,0.00006908,0
 .00002720,0.00002118,-0.00002711,-0.00061253,0.00012687,-0.00015211,0.
 00002135,-0.00005635,-0.00002348,-0.00009259,0.00012495,0.00013964,0.0
 0003323,-0.00002916,-0.00005420,0.00000498,-0.00000418,-0.00006176,0.0
 0000180,0.00000180,-0.00001221,0.00001523,-0.00004105,-0.00001148,-0.0
 0001077,0.00004332,-0.00001241,0.00058199,-0.00014229,-0.00014711,-0.0
 0003184,0.00001782,-0.00005275,0.00009115,-0.00009601,0.00014743,-0.00
 002135,0.00005031,-0.00002991,0.00344179,0.00012215,-0.00150428,-0.003
 44474,0.00022019,0.00222112\\-0.00000021,0.00000048,0.00000096,0.00000
 137,0.00000179,0.00000099,0.00000146,0.00000209,-0.00000479,-0.0000011
 3,0.00000030,0.00000172,-0.00000162,-0.00000059,0.00000188,-0.00000113
 ,-0.00000005,0.00000283,-0.00000093,-0.00000047,0.00000173,0.00000027,
 -0.00000042,0.00000264,0.00000081,0.00000016,0.00000221,-0.00000004,0.
 00000005,0.00000313,-0.00000039,-0.00000015,0.00000238,-0.00000021,0.0
 0000045,0.00000151,0.00000136,-0.00000010,0.00000162,0.00000082,-0.000
 00003,0.00000292,0.00000209,-0.00000001,0.00000190,-0.00000026,0.00000
 138,-0.00000202,-0.00000101,0.00000004,-0.00000131,-0.00000081,0.00000
 006,-0.00000242,-0.00000187,-0.00000063,-0.00000174,-0.00000240,-0.000
 00127,-0.00000278,-0.00000030,-0.00000002,-0.00000285,0.00000006,-0.00
 000095,-0.00000255,-0.00000027,0.00000023,-0.00000262,0.00000154,0.000
 00020,0.00000006,0.00000175,0.00000001,-0.00000195,0.00000087,-0.00000
 042,-0.00000268,0.00000045,-0.00000081,-0.00000152,-0.00000188,-0.0000
 0052,0.00000006,0.00000162,-0.00000080,0.00000071\\\@


 "TIGER, TIGER BURNING BRIGHT
 IN THE FOREST OF THE NIGHT.
 WHAT IMMORTAL HAND OR EYE
 CAN FRAME THY FEARFUL SYMMETRYE?"
                     - WILLIAM BLAKE
 Job cpu time:       0 days  9 hours 32 minutes 57.8 seconds.
 Elapsed time:       0 days  0 hours 24 minutes 53.8 seconds.
 File lengths (MBytes):  RWF=   1600 Int=      0 D2E=      0 Chk=     48 Scr=     32
 Normal termination of Gaussian 16 at Sat Nov  9 02:34:45 2019.
