Title Card Required                                                     
Freq      RB3LYP                                                      6-31+G(d,p)         
Number of atoms                            I                6
Info1-9                                    I   N=           9
          15          14        1002           0           1         100
           6          18        -502
Full Title                                 C   N=           2
Title Card Required     
Route                                      C   N=           4
#p b3lyp/6-31+g** opt=(ts,noeigen,calcfc) freq  
Charge                                     I               -1
Multiplicity                               I                1
Number of electrons                        I               62
Number of alpha electrons                  I               31
Number of beta electrons                   I               31
Number of basis functions                  I               91
Number of independent functions            I               91
Number of point charges in /Mol/           I                0
Number of translation vectors              I                0
Atomic numbers                             I   N=           6
           6           1           1           1          17          35
Nuclear charges                            R   N=           6
  6.00000000E+00  1.00000000E+00  1.00000000E+00  1.00000000E+00  1.70000000E+01
  3.50000000E+01
Current cartesian coordinates              R   N=          18
  1.44385986E+00 -7.35969395E-05 -2.10606725E-06  1.44090183E+00  1.01582400E+00
 -1.75648114E+00  1.44090687E+00  1.01344322E+00  1.75785151E+00  1.44087795E+00
 -2.02917224E+00 -1.37642803E-03  5.91772926E+00  1.00916720E-05  5.05646746E-07
 -3.24534981E+00  5.00122996E-06  2.88614584E-07
Number of symbols in /Mol/                 I                0
Force Field                                I                0
Atom Types                                 C   N=           6
                                                            
            
Int Atom Types                             I   N=           6
           0           0           0           0           0           0
MM charges                                 R   N=           6
  0.00000000E+00  0.00000000E+00  0.00000000E+00  0.00000000E+00  0.00000000E+00
  0.00000000E+00
Integer atomic weights                     I   N=           6
          12           1           1           1          35          79
Real atomic weights                        R   N=           6
  1.20000000E+01  1.00782504E+00  1.00782504E+00  1.00782504E+00  3.49688527E+01
  7.89183361E+01
Atom fragment info                         I   N=           6
           0           0           0           0           0           0
Atom residue num                           I   N=           6
           0           0           0           0           0           0
Nuclear spins                              I   N=           6
           0           1           1           1           3           3
Nuclear ZEff                               R   N=           6
 -3.60000000E+00 -1.00000000E+00 -1.00000000E+00 -1.00000000E+00 -1.42400000E+01
 -2.45000000E+01
Nuclear ZNuc                               R   N=           6
  6.00000000E+00  1.00000000E+00  1.00000000E+00  1.00000000E+00  1.70000000E+01
  3.50000000E+01
Nuclear QMom                               R   N=           6
  0.00000000E+00  0.00000000E+00  0.00000000E+00  0.00000000E+00 -8.16500000E+00
  3.13000000E+01
Nuclear GFac                               R   N=           6
  0.00000000E+00  2.79284600E+00  2.79284600E+00  2.79284600E+00  8.21874000E-01
  2.10639900E+00
MicOpt                                     I   N=           6
          -1          -1          -1          -1          -1          -1
Number of residues                         I                0
Number of secondary structures             I                0
Redundant internal dimensions              I   N=           4
          23           5          11           7
Redundant internal coordinate indices      I   N=          92
           1           2           0           0           1           3
           0           0           1           4           0           0
           1           5           0           0           1           6
           0           0           2           1           3           0
           2           1           4           0           2           1
           5           0           2           1           6           0
           3           1           4           0           3           1
           5           0           3           1           6           0
           4           1           5           0           4           1
           6           0           5           1           6         -21
           5           1           6         -22           2           1
           4           3           2           1           5           3
           2           1           6           3           2           1
           5           4           2           1           6           4
           3           1           5           4           3           1
           6           4
Redundant internal coordinates             R   N=          23
  2.02910702E+00  2.02910680E+00  2.02910130E+00  4.47386941E+00  4.68920966E+00
  2.09421494E+00  2.09447975E+00  1.57224527E+00  1.56933058E+00  2.09447953E+00
  1.57224179E+00  1.56933220E+00  1.57228461E+00  1.56934352E+00  3.14157584E+00
  3.14162390E+00 -3.13653146E+00  2.09421857E+00 -2.09421866E+00 -2.09448348E+00
  2.09448344E+00  2.09448326E+00 -2.09448321E+00
ZRed-IntVec                                I   N=          23
           0           0           0           0           0           0
           0           0           0           0           0           0
           0           0           0           0           0           0
           0           0           0           0           0
ZRed-FPVec                                 R   N=          23
  0.00000000E+00  0.00000000E+00  0.00000000E+00  0.00000000E+00  0.00000000E+00
  0.00000000E+00  0.00000000E+00  0.00000000E+00  0.00000000E+00  0.00000000E+00
  0.00000000E+00  0.00000000E+00  0.00000000E+00  0.00000000E+00  0.00000000E+00
  0.00000000E+00  0.00000000E+00  0.00000000E+00  0.00000000E+00  0.00000000E+00
  0.00000000E+00  0.00000000E+00  0.00000000E+00
ZRed-Constraint1                           R   N=          23
  2.02910702E+00  2.02910680E+00  2.02910130E+00  4.47386941E+00  4.68920966E+00
  2.09421494E+00  2.09447975E+00  1.57224527E+00  1.56933058E+00  2.09447953E+00
  1.57224179E+00  1.56933220E+00  1.57228461E+00  1.56934352E+00  3.14157584E+00
  3.14162390E+00 -3.13653146E+00  2.09421857E+00 -2.09421866E+00 -2.09448348E+00
  2.09448344E+00  2.09448326E+00 -2.09448321E+00
ZRed-Constraint2                           R   N=          23
  2.02200711E+00  2.02200691E+00  2.02200710E+00  4.60658537E+00  5.04065546E+00
  2.09439279E+00  2.09439884E+00  1.57079566E+00  1.57079538E+00  2.09439368E+00
  1.57079842E+00  1.57079847E+00  1.57079518E+00  1.57079486E+00  3.14159104E+00
  3.14158870E+00 -3.14159234E+00  2.09439279E+00 -2.09439279E+00 -2.09439884E+00
  2.09439884E+00  2.09439368E+00 -2.09439368E+00
SymInf integers                            I   N=          26
           1           1           1           1           1           0
           0           0           0           0           0           0
           0           0           0           0           0           0
           0           0           0           0           0           0
           0           0
RotTr to input orientation                 R   N=          12
 -9.99999100E-01 -1.34190392E-03 -1.00141394E-06  6.70872072E-04 -5.00586048E-01
  8.65686524E-01 -1.16216943E-03  8.65685744E-01  5.00586498E-01  8.27035615E+00
 -1.93400123E-01 -4.13367957E-06
Number of contracted shells                I               33
Number of primitive shells                 I               77
Pure/Cartesian d shells                    I                1
Pure/Cartesian f shells                    I                0
Highest angular momentum                   I                2
Largest degree of contraction              I                8
Shell types                                I   N=          33
           0          -1          -1          -1           2           0
           0           1           0           0           1           0
           0           1           0          -1          -1          -1
          -1           2           0           0           0           0
           0           0          -1           1           1           1
           1           2           2
Number of primitives per shell             I   N=          33
           6           3           1           1           1           3
           1           1           3           1           1           3
           1           1           6           6           3           1
           1           1           8           2           1           1
           1           1           1           6           3           1
           1           5           1
Shell to atom map                          I   N=          33
           1           1           1           1           1           2
           2           2           3           3           3           4
           4           4           5           5           5           5
           5           5           6           6           6           6
           6           6           6           6           6           6
           6           6           6
Primitive exponents                        R   N=          77
  3.04752488E+03  4.57369518E+02  1.03948685E+02  2.92101553E+01  9.28666296E+00
  3.16392696E+00  7.86827235E+00  1.88128854E+00  5.44249258E-01  1.68714478E-01
  4.38000000E-02  8.00000000E-01  1.87311370E+01  2.82539436E+00  6.40121692E-01
  1.61277759E-01  1.10000000E+00  1.87311370E+01  2.82539436E+00  6.40121692E-01
  1.61277759E-01  1.10000000E+00  1.87311370E+01  2.82539436E+00  6.40121692E-01
  1.61277759E-01  1.10000000E+00  2.51801000E+04  3.78035000E+03  8.60474000E+02
  2.42145000E+02  7.73349000E+01  2.62470000E+01  4.91765000E+02  1.16984000E+02
  3.74153000E+01  1.37834000E+01  5.45215000E+00  2.22588000E+00  3.18649000E+00
  1.14427000E+00  4.20377000E-01  1.42657000E-01  4.83000000E-02  7.50000000E-01
  5.74300000E+05  8.90700000E+04  2.02100000E+04  5.73600000E+03  1.89900000E+03
  6.98700000E+02  2.77800000E+02  1.15200000E+02  3.59700000E+01  1.55000000E+01
  4.77100000E+00  2.07700000E+00  4.21100000E-01  1.61000000E-01  3.50000000E-02
  4.40600000E+03  1.04200000E+03  3.32100000E+02  1.21900000E+02  4.92400000E+01
  2.11600000E+01  8.83600000E+00  3.82900000E+00  1.64300000E+00  4.65000000E-01
  1.42700000E-01  1.08400000E+02  3.07100000E+01  1.06600000E+01  3.85100000E+00
  1.31700000E+00  3.38000000E-01
Contraction coefficients                   R   N=          77
  1.83473713E-03  1.40373228E-02  6.88426223E-02  2.32184443E-01  4.67941348E-01
  3.62311985E-01 -1.19332420E-01 -1.60854152E-01  1.14345644E+00  1.00000000E+00
  1.00000000E+00  1.00000000E+00  3.34946043E-02  2.34726953E-01  8.13757326E-01
  1.00000000E+00  1.00000000E+00  3.34946043E-02  2.34726953E-01  8.13757326E-01
  1.00000000E+00  1.00000000E+00  3.34946043E-02  2.34726953E-01  8.13757326E-01
  1.00000000E+00  1.00000000E+00  1.83295985E-03  1.40341988E-02  6.90973943E-02
  2.37451980E-01  4.83033960E-01  3.39855972E-01 -2.29739142E-03 -3.07137189E-02
 -1.12528069E-01  4.50163278E-02  5.89353363E-01  4.65206287E-01 -2.51828028E-01
  6.15892514E-02  1.06018433E+00  1.00000000E+00  1.00000000E+00  1.00000000E+00
  2.10682753E-04  1.61271721E-03  8.36010959E-03  3.40275588E-02  1.08515001E-01
  2.67396944E-01  4.29567221E-01  2.86993117E-01  2.77772914E-01  7.47057636E-01
  1.00000000E+00  1.00000000E+00  1.00000000E+00  1.00000000E+00  1.00000000E+00
  1.39552623E-03  1.23748283E-02  6.10175241E-02  2.26775547E-01  4.05975875E-01
  4.50692322E-01  2.92018585E-01  5.30220862E-01  2.75287404E-01  1.00000000E+00
  1.00000000E+00  2.15879371E-02  1.34176036E-01  3.67870647E-01  4.91895206E-01
  2.68321979E-01  1.00000000E+00
P(S=P) Contraction coefficients            R   N=          77
  0.00000000E+00  0.00000000E+00  0.00000000E+00  0.00000000E+00  0.00000000E+00
  0.00000000E+00  6.89990666E-02  3.16423961E-01  7.44308291E-01  1.00000000E+00
  1.00000000E+00  0.00000000E+00  0.00000000E+00  0.00000000E+00  0.00000000E+00
  0.00000000E+00  0.00000000E+00  0.00000000E+00  0.00000000E+00  0.00000000E+00
  0.00000000E+00  0.00000000E+00  0.00000000E+00  0.00000000E+00  0.00000000E+00
  0.00000000E+00  0.00000000E+00  0.00000000E+00  0.00000000E+00  0.00000000E+00
  0.00000000E+00  0.00000000E+00  0.00000000E+00  3.98940088E-03  3.03177067E-02
  1.29880029E-01  3.27951072E-01  4.53527100E-01  2.52154056E-01 -1.42993147E-02
  3.23572333E-01  7.43507765E-01  1.00000000E+00  1.00000000E+00  0.00000000E+00
  0.00000000E+00  0.00000000E+00  0.00000000E+00  0.00000000E+00  0.00000000E+00
  0.00000000E+00  0.00000000E+00  0.00000000E+00  0.00000000E+00  0.00000000E+00
  0.00000000E+00  0.00000000E+00  0.00000000E+00  0.00000000E+00  1.00000000E+00
  0.00000000E+00  0.00000000E+00  0.00000000E+00  0.00000000E+00  0.00000000E+00
  0.00000000E+00  0.00000000E+00  0.00000000E+00  0.00000000E+00  0.00000000E+00
  0.00000000E+00  0.00000000E+00  0.00000000E+00  0.00000000E+00  0.00000000E+00
  0.00000000E+00  0.00000000E+00
Coordinates of each shell                  R   N=          99
  1.44385986E+00 -7.35969395E-05 -2.10606725E-06  1.44385986E+00 -7.35969395E-05
 -2.10606725E-06  1.44385986E+00 -7.35969395E-05 -2.10606725E-06  1.44385986E+00
 -7.35969395E-05 -2.10606725E-06  1.44385986E+00 -7.35969395E-05 -2.10606725E-06
  1.44090183E+00  1.01582400E+00 -1.75648114E+00  1.44090183E+00  1.01582400E+00
 -1.75648114E+00  1.44090183E+00  1.01582400E+00 -1.75648114E+00  1.44090687E+00
  1.01344322E+00  1.75785151E+00  1.44090687E+00  1.01344322E+00  1.75785151E+00
  1.44090687E+00  1.01344322E+00  1.75785151E+00  1.44087795E+00 -2.02917224E+00
 -1.37642803E-03  1.44087795E+00 -2.02917224E+00 -1.37642803E-03  1.44087795E+00
 -2.02917224E+00 -1.37642803E-03  5.91772926E+00  1.00916720E-05  5.05646746E-07
  5.91772926E+00  1.00916720E-05  5.05646746E-07  5.91772926E+00  1.00916720E-05
  5.05646746E-07  5.91772926E+00  1.00916720E-05  5.05646746E-07  5.91772926E+00
  1.00916720E-05  5.05646746E-07  5.91772926E+00  1.00916720E-05  5.05646746E-07
 -3.24534981E+00  5.00122996E-06  2.88614584E-07 -3.24534981E+00  5.00122996E-06
  2.88614584E-07 -3.24534981E+00  5.00122996E-06  2.88614584E-07 -3.24534981E+00
  5.00122996E-06  2.88614584E-07 -3.24534981E+00  5.00122996E-06  2.88614584E-07
 -3.24534981E+00  5.00122996E-06  2.88614584E-07 -3.24534981E+00  5.00122996E-06
  2.88614584E-07 -3.24534981E+00  5.00122996E-06  2.88614584E-07 -3.24534981E+00
  5.00122996E-06  2.88614584E-07 -3.24534981E+00  5.00122996E-06  2.88614584E-07
 -3.24534981E+00  5.00122996E-06  2.88614584E-07 -3.24534981E+00  5.00122996E-06
  2.88614584E-07 -3.24534981E+00  5.00122996E-06  2.88614584E-07
Num ILSW                                   I              100
ILSW                                       I   N=         100
           0           1           0           0           2           0
           0           0           0           0         402          -1
           5           0           0           0           2           0
           0           0           0           0           1           0
           1           0           0           0           0           0
           0           0      100000           0          -1           0
           0           0           0           0           0           0
           0           0           0           1           0           0
           0 -2000000000           1           0           0           0
           0           0           4          52           0           0
           0           0           5           0           0           0
           0           0           0           6           0           1
           0           0           0           0           0           0
           0           0           0           0           0           0
           0           0           0           0           0           0
           0           0           0           0           0           0
           0           0           0           0
Num RLSW                                   I               52
RLSW                                       R   N=          52
  8.00000000E-01  7.20000000E-01  1.00000000E+00  8.10000000E-01  2.00000000E-01
  0.00000000E+00  0.00000000E+00  1.00000000E+00  0.00000000E+00  0.00000000E+00
  0.00000000E+00  0.00000000E+00  1.00000000E+00  0.00000000E+00  0.00000000E+00
  0.00000000E+00  0.00000000E+00  1.00000000E+00  0.00000000E+00  0.00000000E+00
  0.00000000E+00  0.00000000E+00  1.00000000E+00  0.00000000E+00  0.00000000E+00
  0.00000000E+00  0.00000000E+00  1.00000000E+00  0.00000000E+00  0.00000000E+00
  0.00000000E+00  0.00000000E+00  1.00000000E+00  0.00000000E+00  0.00000000E+00
  0.00000000E+00  0.00000000E+00  0.00000000E+00  1.00000000E+00  1.00000000E+00
  0.00000000E+00  1.00000000E+00  0.00000000E+00  0.00000000E+00  0.00000000E+00
  0.00000000E+00  0.00000000E+00  0.00000000E+00  0.00000000E+00  0.00000000E+00
  0.00000000E+00  0.00000000E+00
MxBond                                     I                5
NBond                                      I   N=           6
           5           1           1           1           1           1
IBond                                      I   N=          30
           2           3           4           5           6           1
           0           0           0           0           1           0
           0           0           0           1           0           0
           0           0           1           0           0           0
           0           1           0           0           0           0
RBond                                      R   N=          30
  1.00000000E+00  1.00000000E+00  1.00000000E+00  1.00000000E-01  1.00000000E-01
  1.00000000E+00  0.00000000E+00  0.00000000E+00  0.00000000E+00  0.00000000E+00
  1.00000000E+00  0.00000000E+00  0.00000000E+00  0.00000000E+00  0.00000000E+00
  1.00000000E+00  0.00000000E+00  0.00000000E+00  0.00000000E+00  0.00000000E+00
  1.00000000E-01  0.00000000E+00  0.00000000E+00  0.00000000E+00  0.00000000E+00
  1.00000000E-01  0.00000000E+00  0.00000000E+00  0.00000000E+00  0.00000000E+00
Virial Ratio                               R      2.005871982008419E+00
SCF Energy                                 R     -3.071921350723084E+03
Total Energy                               R     -3.071921350723084E+03
RMS Force                                  R      3.403078833853860E-05
RMS Density                                R      4.244180491136204E-09
NImag                                      I                1
Job Status                                 I                1
Nuclear derivative order                   I                2
External E-field                           R   N=          35
  0.00000000E+00  0.00000000E+00  0.00000000E+00  0.00000000E+00  0.00000000E+00
  0.00000000E+00  0.00000000E+00  0.00000000E+00  0.00000000E+00  0.00000000E+00
  0.00000000E+00  0.00000000E+00  0.00000000E+00  0.00000000E+00  0.00000000E+00
  0.00000000E+00  0.00000000E+00  0.00000000E+00  0.00000000E+00  0.00000000E+00
  0.00000000E+00  0.00000000E+00  0.00000000E+00  0.00000000E+00  0.00000000E+00
  0.00000000E+00  0.00000000E+00  0.00000000E+00  0.00000000E+00  0.00000000E+00
  0.00000000E+00  0.00000000E+00  0.00000000E+00  0.00000000E+00  0.00000000E+00
IOpCl                                      I                0
IROHF                                      I                0
Alpha Orbital Energies                     R   N=          91
 -4.82709812E+02 -1.01322504E+02 -6.16706170E+01 -5.61873438E+01 -5.61856597E+01
 -5.61856597E+01 -1.01091801E+01 -9.23675882E+00 -8.37753798E+00 -6.99709182E+00
 -6.99307609E+00 -6.99307605E+00 -6.32523638E+00 -6.32027633E+00 -6.32027630E+00
 -2.44161927E+00 -2.44028659E+00 -2.44028649E+00 -2.43633620E+00 -2.43633586E+00
 -6.02653155E-01 -5.61661533E-01 -5.18005598E-01 -3.07533964E-01 -3.07505140E-01
 -1.75644875E-01 -1.11912219E-01 -1.11911624E-01 -1.00640976E-01 -1.00639644E-01
 -9.35578444E-02  9.82325660E-02  1.28666147E-01  1.63787256E-01  1.72419416E-01
  1.72420950E-01  1.84220506E-01  2.05627340E-01  2.05629774E-01  2.23437861E-01
  2.39633027E-01  2.39634833E-01  2.88798844E-01  3.22108104E-01  3.22140179E-01
  3.33400366E-01  4.34542321E-01  6.18603345E-01  6.45182978E-01  6.45184524E-01
  6.64229790E-01  6.64231218E-01  6.67800853E-01  7.55437072E-01  7.55438911E-01
  7.71278766E-01  7.80007152E-01  7.80009912E-01  8.33913945E-01  8.33916724E-01
  8.36607678E-01  9.19403691E-01  9.51768273E-01  1.05514639E+00  1.05518478E+00
  1.09664964E+00  1.09665046E+00  1.12010750E+00  1.12013132E+00  1.23190059E+00
  1.33259476E+00  1.48724081E+00  1.59692088E+00  1.59695305E+00  1.90326729E+00
  2.10791858E+00  2.10801837E+00  2.12387712E+00  2.14986164E+00  2.65572804E+00
  2.69550107E+00  2.69560266E+00  2.86492500E+00  2.86507105E+00  3.45589304E+00
  3.59000762E+00  3.59012429E+00  4.51576615E+00  4.56101211E+00  9.00812117E+00
  7.70809039E+01
Alpha MO coefficients                      R   N=        8281
 -3.14713824E-06  9.20819431E-05 -4.46241944E-05 -5.59512279E-11  7.27372337E-11
  1.61039341E-04 -1.21873292E-04 -5.98714109E-09  1.38220660E-10 -1.99745632E-03
 -6.02828003E-03 -2.53319915E-08 -8.88497657E-10 -9.55573745E-05 -1.97284630E-05
 -1.97243429E-05  5.19372251E-09 -9.01620254E-11  8.17982025E-11  1.63190932E-06
  2.72517905E-05 -7.93348681E-05 -1.12842961E-05  1.95156724E-05  1.63141127E-06
  2.72521150E-05 -7.93347321E-05 -1.12577770E-05 -1.95307347E-05  1.62869126E-06
  2.72428884E-05 -7.93261872E-05  2.25451435E-05  1.53148443E-08  1.57979132E-06
  2.87621128E-05 -1.00335683E-05 -9.81624556E-11 -6.09566788E-12  5.90922910E-05
  5.59798754E-05  5.62567965E-10  3.39759822E-11 -7.46200411E-04 -2.39103709E-04
 -6.27876634E-10 -6.73249003E-11  6.34258288E-03 -2.19802477E-03 -8.22731192E-08
 -2.53601482E-09  7.46638037E-05  4.72851725E-05  4.72851417E-05  2.79870757E-09
  9.78502340E-11 -2.07227360E-12  9.94918526E-01  3.26865095E-02 -4.46021304E-02
 -4.50476557E-02 -2.30403279E-02 -2.81166731E-02 -1.23966462E-03 -9.67278369E-04
  5.13969193E-08  1.60494678E-09  1.71730620E-05 -5.36034596E-10 -1.69182153E-11
 -6.08103313E-05  1.86085240E-09  6.12032327E-11  3.19471815E-04 -9.66169420E-09
 -3.13311758E-10 -9.02122881E-04  2.60393126E-08  8.13800877E-10  4.30919836E-02
  4.30785059E-02  4.30785059E-02 -1.19431514E-09 -3.61900506E-11 -2.41499716E-13
  1.27755530E-02  1.28727245E-02  1.28727247E-02  8.24996227E-09  2.46792976E-10
  7.94282486E-13 -5.87880600E-06 -7.14394438E-05 -1.34215952E-05 -1.17463491E-09
  1.72823762E-12  1.40360516E-04  8.03739804E-05  2.03179979E-08  2.06755622E-10
  2.01080249E-04 -3.94887314E-06  5.34755496E-09 -1.71789937E-11  4.25628156E-05
 -7.37483310E-06 -7.37566935E-06  3.16872916E-09  9.77221050E-11  4.38019895E-11
 -5.52403097E-06 -7.20851052E-05 -2.49966810E-05  1.34784698E-06 -2.33395479E-06
 -5.52433422E-06 -7.20851430E-05 -2.49967375E-05  1.34472430E-06  2.33579468E-06
 -5.51955913E-06 -7.20659976E-05 -2.49955708E-05 -2.69458611E-06 -1.85234983E-09
  9.95997828E-01  1.51469622E-02 -1.27478725E-05 -1.53251753E-10 -1.53346288E-11
 -2.10586849E-02  3.75189481E-06 -1.05062795E-10 -1.11918975E-11  1.89751260E-03
  4.27542475E-05  7.65848437E-10  5.89909491E-11 -3.64694731E-04  2.89593770E-05
 -2.09617249E-10  3.65999285E-11  7.50476824E-03  7.52082263E-03  7.52082264E-03
 -1.42568552E-10 -1.46646524E-11  2.87409613E-12 -5.26944127E-07 -3.22889454E-06
  1.02934573E-05  9.65484439E-06 -1.14099865E-05  4.79904844E-05 -5.46137091E-05
 -2.46364994E-05 -2.52870724E-10  3.03728043E-11 -1.56144488E-07  1.70891477E-11
  7.84928599E-13  6.40560032E-07 -7.01116888E-11 -3.21576528E-12 -4.83731264E-06
  4.54867889E-10  1.95331989E-11  1.74802100E-05 -1.56753819E-09 -5.42152086E-11
 -1.20648938E-05 -1.04486854E-05 -1.04486891E-05  1.33136000E-10  4.44958144E-12
  3.11177094E-13 -3.66318889E-06 -1.77555049E-05 -1.77554871E-05 -1.03389530E-09
 -3.37052542E-11 -2.32901779E-12 -2.28686092E-05  7.27938934E-04 -3.82043793E-04
 -2.05529111E-10  6.30693961E-10  1.37491620E-03 -1.09546162E-03 -4.91967448E-08
  1.18272797E-09 -1.70977919E-02 -5.16365761E-02 -2.15556912E-07 -7.59698264E-09
 -7.56803673E-04 -1.50726160E-04 -1.50693313E-04  4.18945618E-08 -7.81500030E-10
  6.89449265E-10  8.30627398E-06  2.27705950E-04 -6.56480411E-04 -9.48164101E-05
  1.63979504E-04  8.30210411E-06  2.27708660E-04 -6.56479217E-04 -9.45935748E-05
 -1.64106055E-04  8.27796501E-06  2.27633692E-04 -6.56408268E-04  1.89434396E-04
  1.28678951E-07  1.43127202E-05  2.39671202E-04 -8.48580923E-05 -8.67284573E-10
 -5.22629118E-11  5.32054780E-04  4.76976927E-04  4.97041129E-09  2.92624878E-10
 -6.35186202E-03 -2.06284971E-03 -6.04703316E-09 -5.88520300E-10  5.43190730E-02
 -1.88278190E-02 -7.04782764E-07 -2.17258570E-08  6.22064973E-04  3.84733658E-04
  3.84733445E-04  2.36674830E-08  8.26118965E-10 -1.70482250E-11 -4.20960560E-01
  1.16997461E+00 -2.88773269E-01 -4.07246015E-01 -1.94713034E-01 -2.39218851E-01
 -1.06600217E-02 -8.28869443E-03  4.36707393E-07  1.37419735E-08  2.24249253E-04
 -1.25092465E-08 -1.31418347E-10 -5.00998499E-04  1.87064895E-08  5.27160878E-10
  2.72003695E-03 -9.47899741E-08 -2.71056734E-09 -7.73153400E-03  2.34144808E-07
  7.00555563E-09  3.69905586E-01  3.69765112E-01  3.69765110E-01 -1.09442310E-08
 -3.19203309E-10 -6.20548909E-12  1.08344832E-01  1.09194629E-01  1.09194637E-01
  7.08541294E-08  2.11605013E-09  3.39814839E-11  5.78313537E-05  9.44750498E-04
  2.73062493E-04  1.08590522E-08 -4.38015061E-10 -2.31357815E-03  2.48276611E-03
 -1.80951263E-07 -1.85596039E-09  5.01910716E-04  2.16959140E-02 -3.50456859E-08
  3.70890886E-10 -8.23542796E-04  4.97227918E-05  4.97265077E-05  1.66503004E-08
  1.14434257E-09 -3.47304773E-10  1.37852532E-04  5.50014253E-04  5.45692557E-05
  6.51873905E-05 -1.12694089E-04  1.37853036E-04  5.50015644E-04  5.45681324E-05
  6.50343006E-05  1.12781607E-04  1.37848828E-04  5.49847915E-04  5.45367444E-05
 -1.30198122E-04 -8.82309114E-08 -1.85505128E-06 -3.08190331E-05  3.11684801E-05
  1.61082554E-09  4.17095490E-11 -2.39256242E-05 -2.03960778E-04 -9.66493103E-09
 -2.34901272E-10  1.22259346E-03  1.33279923E-03  3.63490259E-08  7.79773686E-10
 -1.94810139E-02  6.24494381E-03  2.80567903E-07  8.50197480E-09 -2.39770899E-04
 -1.97485208E-05 -1.97490158E-05 -1.74371066E-08 -4.36069644E-10 -2.57796584E-11
 -9.74730440E-05 -9.74901143E-04  2.97648869E-03  1.89249787E-03 -5.45417873E-03
  2.20477132E-02  1.32336957E-02  2.25682416E-03 -1.20524629E-07 -4.73197952E-09
  9.76991144E-01 -2.17672374E-05 -4.07587007E-07  6.16363816E-02 -1.37436806E-06
 -2.58262554E-08 -2.05413407E-02  4.61701983E-07  9.13919436E-09  1.48252572E-02
 -3.30851547E-07 -7.60340052E-09 -2.98192311E-03 -2.77303267E-03 -2.77303256E-03
  6.07197935E-09  1.99948334E-10 -3.11800218E-13 -4.12121068E-03 -5.70665545E-03
 -5.70665576E-03 -4.65171211E-08 -1.45170632E-09  5.68753910E-12  3.07664382E-10
  9.64668390E-10  2.73957962E-10  1.08514745E-06  1.30141583E-04 -8.51829221E-09
 -1.64035474E-09 -5.88117783E-06 -7.05203421E-04 -1.84267340E-08 -1.72015666E-08
  6.28661467E-06  7.54038314E-04  1.04922793E-09  2.80263543E-07 -2.79660356E-07
  1.39551900E-06  1.67381233E-04 -3.11558862E-05 -2.09515186E-04  2.58963841E-04
 -1.24786492E-04 -3.63172274E-07  5.36856053E-05  2.11708142E-04 -2.61663835E-04
  1.26091985E-04  1.24147394E-06  5.37005792E-05 -2.19264940E-06  2.71234154E-06
 -1.30568176E-06  4.52918423E-07  5.22928849E-05  5.32966684E-12  5.35865808E-11
 -3.83844580E-11  5.05317634E-09  6.06197858E-07  2.48644439E-11  3.31548680E-10
 -4.48125960E-08 -5.37422730E-06 -2.50962296E-09 -2.50548061E-09 -1.22473903E-07
 -1.47010625E-05  2.50159286E-08 -9.21341779E-09  8.79664033E-07  1.05500158E-04
  7.42796979E-10 -1.96895850E-08  1.95845726E-08 -2.93882158E-07 -3.52425908E-05
  2.18828038E-06  1.10486940E-10  6.61011729E-10 -2.22437952E-09 -1.65885867E-09
  2.17965798E-09 -1.19072241E-08 -4.58927017E-09 -2.98697236E-09 -2.60852248E-05
 -3.12863634E-03  5.89177269E-07  8.14623962E-03  9.77050740E-01  3.68497466E-08
  5.11181185E-04  6.13104913E-02 -1.07564279E-08 -1.56804396E-04 -1.88069403E-02
  4.50566485E-09  8.07315656E-05  9.68284702E-03  2.19989922E-09  1.20564313E-08
 -7.63028306E-09  3.87014401E-09  4.64909841E-07 -1.09754230E-06  3.16797140E-09
 -5.93125534E-08  6.51509423E-08  4.90197095E-07  5.87887075E-05  6.93640288E-06
 -1.58250948E-09  2.82998155E-09  8.42366030E-09  1.30144074E-04 -1.08500539E-06
  6.01494497E-08 -4.33386784E-08 -7.05218359E-04  5.87832970E-06 -1.03401992E-07
 -4.69604058E-07  7.54063681E-04 -6.28730700E-06 -8.01243597E-10  2.69611961E-05
 -2.69778104E-05  1.67368721E-04 -1.39548583E-06  3.22747769E-07  1.23521724E-04
 -1.52701991E-04  7.35764810E-05  5.27703653E-05 -1.25716587E-06  1.19724659E-04
 -1.48005766E-04  7.13143113E-05  5.27547676E-05  3.60216111E-07 -2.43200943E-04
  3.00530738E-04 -1.44843064E-04  5.41601115E-05 -4.34555980E-07  1.60744429E-10
  1.91348812E-09 -1.67499278E-09  6.06479863E-07 -5.05762026E-09  4.73582189E-09
  1.07389312E-08 -5.37599994E-06  4.48182821E-08 -7.89956070E-08 -4.41853593E-08
 -1.46952857E-05  1.22620538E-07  5.56694649E-07 -2.09464404E-07  1.05489284E-04
 -8.79477669E-07  1.35654996E-08 -1.89583680E-06  1.89483548E-06 -3.52432956E-05