 Entering Gaussian System, Link 0=g16
 Input=ts2_def2tzvp_scrf_pcm_benzene.gjf
 Output=ts2_def2tzvp_scrf_pcm_benzene.log
 Initial command:
 /share/home/wli/program/opt/Chem_soft/g16/l1.exe "/scratch/wli/Gau-28477.inp" -scrdir="/scratch/wli/"
 Entering Link 1 = /share/home/wli/program/opt/Chem_soft/g16/l1.exe PID=     28478.
  
 Copyright (c) 1988,1990,1992,1993,1995,1998,2003,2009,2016,
            Gaussian, Inc.  All Rights Reserved.
  
 This is part of the Gaussian(R) 16 program.  It is based on
 the Gaussian(R) 09 system (copyright 2009, Gaussian, Inc.),
 the Gaussian(R) 03 system (copyright 2003, Gaussian, Inc.),
 the Gaussian(R) 98 system (copyright 1998, Gaussian, Inc.),
 the Gaussian(R) 94 system (copyright 1995, Gaussian, Inc.),
 the Gaussian 92(TM) system (copyright 1992, Gaussian, Inc.),
 the Gaussian 90(TM) system (copyright 1990, Gaussian, Inc.),
 the Gaussian 88(TM) system (copyright 1988, Gaussian, Inc.),
 the Gaussian 86(TM) system (copyright 1986, Carnegie Mellon
 University), and the Gaussian 82(TM) system (copyright 1983,
 Carnegie Mellon University). Gaussian is a federally registered
 trademark of Gaussian, Inc.
  
 This software contains proprietary and confidential information,
 including trade secrets, belonging to Gaussian, Inc.
  
 This software is provided under written license and may be
 used, copied, transmitted, or stored only in accord with that
 written license.
  
 The following legend is applicable only to US Government
 contracts under FAR:
  
                    RESTRICTED RIGHTS LEGEND
  
 Use, reproduction and disclosure by the US Government is
 subject to restrictions as set forth in subparagraphs (a)
 and (c) of the Commercial Computer Software - Restricted
 Rights clause in FAR 52.227-19.
  
 Gaussian, Inc.
 340 Quinnipiac St., Bldg. 40, Wallingford CT 06492
  
  
 ---------------------------------------------------------------
 Warning -- This program may not be used in any manner that
 competes with the business of Gaussian, Inc. or will provide
 assistance to any competitor of Gaussian, Inc.  The licensee
 of this program is prohibited from giving any competitor of
 Gaussian, Inc. access to this program.  By using this program,
 the user acknowledges that Gaussian, Inc. is engaged in the
 business of creating and licensing software in the field of
 computational chemistry and represents and warrants to the
 licensee that it is not a competitor of Gaussian, Inc. and that
 it will not use this program in any manner prohibited above.
 ---------------------------------------------------------------
  

 Cite this work as:
 Gaussian 16, Revision A.03,
 M. J. Frisch, G. W. Trucks, H. B. Schlegel, G. E. Scuseria, 
 M. A. Robb, J. R. Cheeseman, G. Scalmani, V. Barone, 
 G. A. Petersson, H. Nakatsuji, X. Li, M. Caricato, A. V. Marenich, 
 J. Bloino, B. G. Janesko, R. Gomperts, B. Mennucci, H. P. Hratchian, 
 J. V. Ortiz, A. F. Izmaylov, J. L. Sonnenberg, D. Williams-Young, 
 F. Ding, F. Lipparini, F. Egidi, J. Goings, B. Peng, A. Petrone, 
 T. Henderson, D. Ranasinghe, V. G. Zakrzewski, J. Gao, N. Rega, 
 G. Zheng, W. Liang, M. Hada, M. Ehara, K. Toyota, R. Fukuda, 
 J. Hasegawa, M. Ishida, T. Nakajima, Y. Honda, O. Kitao, H. Nakai, 
 T. Vreven, K. Throssell, J. A. Montgomery, Jr., J. E. Peralta, 
 F. Ogliaro, M. J. Bearpark, J. J. Heyd, E. N. Brothers, K. N. Kudin, 
 V. N. Staroverov, T. A. Keith, R. Kobayashi, J. Normand, 
 K. Raghavachari, A. P. Rendell, J. C. Burant, S. S. Iyengar, 
 J. Tomasi, M. Cossi, J. M. Millam, M. Klene, C. Adamo, R. Cammi, 
 J. W. Ochterski, R. L. Martin, K. Morokuma, O. Farkas, 
 J. B. Foresman, and D. J. Fox, Gaussian, Inc., Wallingford CT, 2016.
 
 ******************************************
 Gaussian 16:  ES64L-G16RevA.03 25-Dec-2016
                18-Oct-2019 
 ******************************************
 %chk=ts2_pcm_benzene_maugccpvtz.chk
 %nprocshared=24
 Will use up to   24 processors via shared memory.
 ----------------------------------------------------------------------
 #p opt=(gdiis,calcfc,maxcyc=50,ts,noeigen) freq b3lyp def2tzvp em=gd3b
 j scrf=(pcm,solvent=benzene)
 ----------------------------------------------------------------------

 Warning!  Use of Opt=GDIIS is deprecated since it is seldom a good choice.

 1/5=1,6=50,10=4,11=1,18=20,19=11,26=3,38=1/1,3;
 2/9=110,12=2,17=6,18=5,40=1/2;
 3/5=44,7=101,11=2,25=1,30=1,70=2201,71=2,72=12,74=-5,124=41,140=1/1,2,3;
 4//1;
 5/5=2,38=5,53=12/2;
 8/6=4,10=90,11=11/1;
 11/6=1,8=1,9=11,15=111,16=1/1,2,10;
 10/6=1,13=1/2;
 6/7=2,8=2,9=2,10=2,28=1/1;
 7/10=1,18=20,25=1/1,2,3,16;
 1/5=1,6=50,10=4,11=1,18=20,19=11,26=3/3(2);
 2/9=110/2;
 99//99;
 2/9=110/2;
 3/5=44,7=101,11=2,25=1,30=1,70=2205,71=1,72=12,74=-5,124=41/1,2,3;
 4/5=5,16=3,69=1/1;
 5/5=2,38=5,53=12/2;
 7//1,2,3,16;
 1/5=1,6=50,11=1,18=20,19=11,26=3/3(-5);
 2/9=110/2;
 6/7=2,8=2,9=2,10=2,19=2,28=1/1;
 99/9=1/99;
 Leave Link    1 at Fri Oct 18 03:20:46 2019, MaxMem=           0 cpu:              11.1 elap:               0.5
 (Enter /share/home/wli/program/opt/Chem_soft/g16/l101.exe)
 -------------------
 Title Card Required
 -------------------
 Symbolic Z-matrix:
 Charge = -1 Multiplicity = 1
 C                     0.7043    0.00002   0.00027 
 H                     0.7584   -0.9393   -0.50874 
 H                     0.7584    0.91052  -0.55864 
 H                     0.75836   0.02883   1.06826 
 Cl                    3.14574  0.        -0.00007 
 Br                   -1.71367  0.        -0.00004 
 
 Add virtual bond connecting atoms Br6        and C1         Dist= 4.57D+00.
 Add virtual bond connecting atoms Cl5        and C1         Dist= 4.61D+00.
 ITRead=  0  0  0  0  0  0
 MicOpt= -1 -1 -1 -1 -1 -1
 NAtoms=      6 NQM=        6 NQMF=       0 NMMI=      0 NMMIF=      0
                NMic=       0 NMicF=      0.
                    Isotopes and Nuclear Properties:
 (Nuclear quadrupole moments (NQMom) in fm**2, nuclear magnetic moments (NMagM)
  in nuclear magnetons)

  Atom         1           2           3           4           5           6
 IAtWgt=          12           1           1           1          35          79
 AtmWgt=  12.0000000   1.0078250   1.0078250   1.0078250  34.9688527  78.9183361
 NucSpn=           0           1           1           1           3           3
 AtZEff=  -0.0000000  -0.0000000  -0.0000000  -0.0000000  -0.0000000  -0.0000000
 NQMom=    0.0000000   0.0000000   0.0000000   0.0000000  -8.1650000  31.3000000
 NMagM=    0.0000000   2.7928460   2.7928460   2.7928460   0.8218740   2.1063990
 AtZNuc=   6.0000000   1.0000000   1.0000000   1.0000000  17.0000000  35.0000000
 Leave Link  101 at Fri Oct 18 03:20:47 2019, MaxMem=   104857600 cpu:               3.2 elap:               0.2
 (Enter /share/home/wli/program/opt/Chem_soft/g16/l103.exe)

 GradGradGradGradGradGradGradGradGradGradGradGradGradGradGradGradGradGrad
 Berny optimization.
 Initialization pass.
                           ----------------------------
                           !    Initial Parameters    !
                           ! (Angstroms and Degrees)  !
 --------------------------                            --------------------------
 ! Name  Definition              Value          Derivative Info.                !
 --------------------------------------------------------------------------------
 ! R1    R(1,2)                  1.0697         calculate D2E/DX2 analytically  !
 ! R2    R(1,3)                  1.0697         calculate D2E/DX2 analytically  !
 ! R3    R(1,4)                  1.0697         calculate D2E/DX2 analytically  !
 ! R4    R(1,5)                  2.4414         calculate D2E/DX2 analytically  !
 ! R5    R(1,6)                  2.418          calculate D2E/DX2 analytically  !
 ! A1    A(2,1,3)              119.75           calculate D2E/DX2 analytically  !
 ! A2    A(2,1,4)              119.7451         calculate D2E/DX2 analytically  !
 ! A3    A(2,1,5)               87.097          calculate D2E/DX2 analytically  !
 ! A4    A(2,1,6)               92.895          calculate D2E/DX2 analytically  !
 ! A5    A(3,1,4)              119.7448         calculate D2E/DX2 analytically  !
 ! A6    A(3,1,5)               87.0974         calculate D2E/DX2 analytically  !
 ! A7    A(3,1,6)               92.8953         calculate D2E/DX2 analytically  !
 ! A8    A(4,1,5)               87.1112         calculate D2E/DX2 analytically  !
 ! A9    A(4,1,6)               92.9041         calculate D2E/DX2 analytically  !
 ! A10   L(5,1,6,2,-1)         179.9919         calculate D2E/DX2 analytically  !
 ! A11   L(5,1,6,2,-2)         180.0131         calculate D2E/DX2 analytically  !
 ! D1    D(2,1,4,3)            169.9907         calculate D2E/DX2 analytically  !
 ! D2    D(2,1,5,3)            120.0042         calculate D2E/DX2 analytically  !
 ! D3    D(2,1,6,3)           -120.0028         calculate D2E/DX2 analytically  !
 ! D4    D(2,1,5,4)           -119.998          calculate D2E/DX2 analytically  !
 ! D5    D(2,1,6,4)            119.9987         calculate D2E/DX2 analytically  !
 ! D6    D(3,1,5,4)            119.9978         calculate D2E/DX2 analytically  !
 ! D7    D(3,1,6,4)           -119.9985         calculate D2E/DX2 analytically  !
 --------------------------------------------------------------------------------
 Trust Radius=3.00D-01 FncErr=1.00D-07 GrdErr=1.00D-06 EigMax=2.50D+02 EigMin=1.00D-04
 Number of steps in this run=     50 maximum allowed number of steps=    100.
 Search for a saddle point of order  1.
 GradGradGradGradGradGradGradGradGradGradGradGradGradGradGradGradGradGrad

 Leave Link  103 at Fri Oct 18 03:20:47 2019, MaxMem=   104857600 cpu:               0.9 elap:               0.1
 (Enter /share/home/wli/program/opt/Chem_soft/g16/l202.exe)
                          Input orientation:                          
 ---------------------------------------------------------------------
 Center     Atomic      Atomic             Coordinates (Angstroms)
 Number     Number       Type             X           Y           Z
 ---------------------------------------------------------------------
      1          6           0        0.704300    0.000015    0.000271
      2          1           0        0.758398   -0.939298   -0.508737
      3          1           0        0.758398    0.910520   -0.558639
      4          1           0        0.758363    0.028828    1.068261
      5         17           0        3.145737   -0.000004   -0.000074
      6         35           0       -1.713671   -0.000002   -0.000036
 ---------------------------------------------------------------------
                    Distance matrix (angstroms):
                    1          2          3          4          5
     1  C    0.000000
     2  H    1.069731   0.000000
     3  H    1.069732   1.850491   0.000000
     4  H    1.069746   1.850457   1.850455   0.000000
     5  Cl   2.441437   2.615416   2.615423   2.615669   0.000000
     6  Br   2.417971   2.692987   2.692993   2.693147   4.859408
                    6
     6  Br   0.000000
 This structure is nearly, but not quite of a higher symmetry.
 Consider Symm=Loose if the higher symmetry is desired.
 Stoichiometry    CH3BrCl(1-)
 Framework group  C1[X(CH3BrCl)]
 Deg. of freedom    12
 Full point group                 C1      NOp   1
 Largest Abelian subgroup         C1      NOp   1
 Largest concise Abelian subgroup C1      NOp   1
                         Standard orientation:                         
 ---------------------------------------------------------------------
 Center     Atomic      Atomic             Coordinates (Angstroms)
 Number     Number       Type             X           Y           Z
 ---------------------------------------------------------------------
      1          6           0        0.000249    0.003906    0.704289
      2          1           0       -0.513980    0.940658    0.753158
      3          1           0       -0.553586   -0.909380    0.763454
      4          1           0        1.068382   -0.018660    0.758512
      5         17           0       -0.000171    0.017512    3.145688
      6         35           0        0.000017   -0.009536   -1.713645
 ---------------------------------------------------------------------
 Rotational constants (GHZ):         146.4430850           0.8630335           0.8630334
 Leave Link  202 at Fri Oct 18 03:20:47 2019, MaxMem=   104857600 cpu:               1.8 elap:               0.1
 (Enter /share/home/wli/program/opt/Chem_soft/g16/l301.exe)
 Standard basis: def2TZVP (5D, 7F)
 Ernie: Thresh=  0.10000D-02 Tol=  0.10000D-05 Strict=F.
 There are   151 symmetry adapted cartesian basis functions of A   symmetry.
 There are   134 symmetry adapted basis functions of A   symmetry.
   134 basis functions,   258 primitive gaussians,   151 cartesian basis functions
    31 alpha electrons       31 beta electrons
       nuclear repulsion energy       173.5741035171 Hartrees.
 IExCor=  402 DFT=T Ex+Corr=B3LYP ExCW=0 ScaHFX=  0.200000
 ScaDFX=  0.800000  0.720000  1.000000  0.810000 ScalE2=  1.000000  1.000000
 IRadAn=      5 IRanWt=     -1 IRanGd=            0 ICorTp=0 IEmpDi=141
 NAtoms=    6 NActive=    6 NUniq=    6 SFac= 1.00D+00 NAtFMM=   60 NAOKFM=F Big=F
 Integral buffers will be    131072 words long.
 Raffenetti 2 integral format.
 Two-electron integral symmetry is turned on.
 R6Disp:  Grimme-D3(BJ) Dispersion energy=       -0.0069969608 Hartrees.
 Nuclear repulsion after empirical dispersion term =      173.5671065563 Hartrees.
 Force inversion solution in PCM.
 ------------------------------------------------------------------------------
 Polarizable Continuum Model (PCM)
 =================================
 Model                : PCM.
 Atomic radii         : UFF (Universal Force Field).
 Polarization charges : Total charges.
 Charge compensation  : None.
 Solution method      : Matrix inversion.
 Cavity type          : Scaled VdW (van der Waals Surface) (Alpha=1.100).
 Cavity algorithm     : GePol (No added spheres)
                        Default sphere list used, NSphG=    6.
                        Lebedev-Laikov grids with approx.  5.0 points / Ang**2.
                        Smoothing algorithm: York/Karplus (Gamma=1.0000).
                        Polarization charges: spherical gaussians, with
                                              point-specific exponents (IZeta= 3).
                        Self-potential: point-specific (ISelfS= 7).
                        Self-field    : sphere-specific E.n sum rule (ISelfD= 2).
 1st derivatives      : Analytical E(r).r(x)/FMM algorithm (CHGder, D1EAlg=3).
                        Cavity 1st derivative terms included.
 2nd derivatives      : Analytical E(r).r(xy)/FMM algorithm (CHGder, D2EAlg=3).
                        Cavity 2nd derivative terms included.
 Solvent              : Benzene, Eps=   2.270600 Eps(inf)=   2.253301
 ------------------------------------------------------------------------------
 Spheres list:
 ISph  on   Nord     Re0    Alpha      Xe            Ye            Ze
    1   C      1    1.9255  1.100      0.000249      0.003906      0.704289
    2   H      2    1.4430  1.100     -0.513980      0.940658      0.753158
    3   H      3    1.4430  1.100     -0.553586     -0.909380      0.763454
    4   H      4    1.4430  1.100      1.068382     -0.018660      0.758512
    5  Cl      5    1.9735  1.100     -0.000171      0.017512      3.145688
    6  Br      6    2.0945  1.100      0.000017     -0.009536     -1.713645
 ------------------------------------------------------------------------------
 GePol: Number of generator spheres                  =       6
 GePol: Total number of spheres                      =       6
 GePol: Number of exposed spheres                    =       6 (100.00%)
 GePol: Number of points                             =     873
 GePol: Average weight of points                     =       0.16
 GePol: Minimum weight of points                     =   0.22D-10
 GePol: Maximum weight of points                     =    0.21616
 GePol: Number of points with low weight             =      25
 GePol: Fraction of low-weight points (<1% of avg)   =       2.86%
 GePol: Cavity surface area                          =    136.563 Ang**2
 GePol: Cavity volume                                =    119.900 Ang**3
 Leave Link  301 at Fri Oct 18 03:20:47 2019, MaxMem=   104857600 cpu:               3.1 elap:               0.2
 (Enter /share/home/wli/program/opt/Chem_soft/g16/l302.exe)
 NPDir=0 NMtPBC=     1 NCelOv=     1 NCel=       1 NClECP=     1 NCelD=      1
         NCelK=      1 NCelE2=     1 NClLst=     1 CellRange=     0.0.
 One-electron integrals computed using PRISM.
 One-electron integral symmetry used in STVInt
 PrsmSu:  requested number of processors reduced to:  13 ShMem   1 Linda.
   1 Symmetry operations used in ECPInt.
 ECPInt:  NShTT=    1378 NPrTT=    5593 LenC2=    1324 LenP2D=    4259.
 LDataN:  DoStor=T MaxTD1= 6 Len=  172
 NBasis=   134 RedAO= T EigKep=  1.43D-03  NBF=   134
 NBsUse=   134 1.00D-06 EigRej= -1.00D+00 NBFU=   134
 Precomputing XC quadrature grid using
 IXCGrd= 4 IRadAn=           5 IRanWt=          -1 IRanGd=           0 AccXCQ= 0.00D+00.
 Generated NRdTot=       0 NPtTot=           0 NUsed=           0 NTot=          32
 NSgBfM=   150   150   150   150   150 MxSgAt=     6 MxSgA2=     6.
 Leave Link  302 at Fri Oct 18 03:20:47 2019, MaxMem=   104857600 cpu:               4.8 elap:               0.2
 (Enter /share/home/wli/program/opt/Chem_soft/g16/l303.exe)
 DipDrv:  MaxL=1.
 Leave Link  303 at Fri Oct 18 03:20:47 2019, MaxMem=   104857600 cpu:               0.5 elap:               0.0
 (Enter /share/home/wli/program/opt/Chem_soft/g16/l401.exe)
 ExpMin= 9.52D-02 ExpMax= 5.65D+05 ExpMxC= 5.46D+03 IAcc=3 IRadAn=         5 AccDes= 0.00D+00
 Harris functional with IExCor=  402 and IRadAn=       5 diagonalized for initial guess.
 HarFok:  IExCor=  402 AccDes= 0.00D+00 IRadAn=         5 IDoV= 1 UseB2=F ITyADJ=14
 ICtDFT=  3500011 ScaDFX=  1.000000  1.000000  1.000000  1.000000
 FoFCou: FMM=F IPFlag=           0 FMFlag=      100000 FMFlg1=           0
         NFxFlg=           0 DoJE=T BraDBF=F KetDBF=T FulRan=T
         wScrn=  0.000000 ICntrl=       500 IOpCl=  0 I1Cent=   200000004 NGrid=           0
         NMat0=    1 NMatS0=      1 NMatT0=    0 NMatD0=    1 NMtDS0=    0 NMtDT0=    0
 Petite list used in FoFCou.
 Harris En= -3074.56577756357    
 JPrj=0 DoOrth=F DoCkMO=F.
 Leave Link  401 at Fri Oct 18 03:20:48 2019, MaxMem=   104857600 cpu:               9.2 elap:               0.4
 (Enter /share/home/wli/program/opt/Chem_soft/g16/l502.exe)
 Keep R1 ints in memory in canonical form, NReq=64315121.
 FoFCou: FMM=F IPFlag=           0 FMFlag=           0 FMFlg1=           0
         NFxFlg=           0 DoJE=F BraDBF=F KetDBF=F FulRan=T
         wScrn=  0.000000 ICntrl=       600 IOpCl=  0 I1Cent=           0 NGrid=           0
         NMat0=    1 NMatS0=   9045 NMatT0=    0 NMatD0=    1 NMtDS0=    0 NMtDT0=    0
 Symmetry not used in FoFCou.
 Two-electron integral symmetry not used.
 Closed shell SCF:
 Using DIIS extrapolation, IDIIS=  1040.
 NGot=   104857600 LenX=    63896377 LenY=    63873135
 Requested convergence on RMS density matrix=1.00D-08 within 128 cycles.
 Requested convergence on MAX density matrix=1.00D-06.
 Requested convergence on             energy=1.00D-06.
 No special actions if energy rises.

 Cycle   1  Pass 1  IDiag  1:
 CoulSu:  requested number of processors reduced to:  17 ShMem   1 Linda.
 Inv3:  Mode=1 IEnd=     2286387.
 Iteration    1 A*A^-1 deviation from unit magnitude is 2.89D-15 for    847.
 Iteration    1 A*A^-1 deviation from orthogonality  is 1.74D-15 for    600    221.
 Iteration    1 A^-1*A deviation from unit magnitude is 2.89D-15 for    117.
 Iteration    1 A^-1*A deviation from orthogonality  is 1.38D-15 for    837    635.
 CoulSu:  requested number of processors reduced to:  17 ShMem   1 Linda.
 CoulSu:  requested number of processors reduced to:  17 ShMem   1 Linda.
 E= -3074.37870734717    
 DIIS: error= 5.06D-02 at cycle   1 NSaved=   1.
 NSaved= 1 IEnMin= 1 EnMin= -3074.37870734717     IErMin= 1 ErrMin= 5.06D-02
 ErrMax= 5.06D-02  0.00D+00 EMaxC= 1.00D-01 BMatC= 2.14D-01 BMatP= 2.14D-01
 IDIUse=3 WtCom= 4.94D-01 WtEn= 5.06D-01
 Coeff-Com:  0.100D+01
 Coeff-En:   0.100D+01
 Coeff:      0.100D+01
 Gap=     0.308 Goal=   None    Shift=    0.000
 GapD=    0.308 DampG=1.000 DampE=0.500 DampFc=0.5000 IDamp=-1.
 Damping current iteration by 5.00D-01
 RMSDP=4.43D-03 MaxDP=1.31D-01              OVMax= 2.72D-01

 Cycle   2  Pass 1  IDiag  1:
 E= -3074.42249286884     Delta-E=       -0.043785521676 Rises=F Damp=T
 DIIS: error= 2.04D-02 at cycle   2 NSaved=   2.
 NSaved= 2 IEnMin= 2 EnMin= -3074.42249286884     IErMin= 2 ErrMin= 2.04D-02
 ErrMax= 2.04D-02  0.00D+00 EMaxC= 1.00D-01 BMatC= 2.57D-02 BMatP= 2.14D-01
 IDIUse=3 WtCom= 7.96D-01 WtEn= 2.04D-01
 Coeff-Com: -0.194D+00 0.119D+01
 Coeff-En:   0.143D-01 0.986D+00
 Coeff:     -0.152D+00 0.115D+01
 Gap=     0.189 Goal=   None    Shift=    0.000
 RMSDP=1.46D-03 MaxDP=3.86D-02 DE=-4.38D-02 OVMax= 2.01D-01

 Cycle   3  Pass 1  IDiag  1:
 E= -3074.44995511873     Delta-E=       -0.027462249888 Rises=F Damp=F
 DIIS: error= 1.39D-02 at cycle   3 NSaved=   3.
 NSaved= 3 IEnMin= 3 EnMin= -3074.44995511873     IErMin= 3 ErrMin= 1.39D-02
 ErrMax= 1.39D-02  0.00D+00 EMaxC= 1.00D-01 BMatC= 2.04D-02 BMatP= 2.57D-02
 IDIUse=3 WtCom= 8.61D-01 WtEn= 1.39D-01
 Coeff-Com: -0.196D+00 0.653D+00 0.543D+00
 Coeff-En:   0.000D+00 0.000D+00 0.100D+01
 Coeff:     -0.169D+00 0.562D+00 0.607D+00
 Gap=     0.207 Goal=   None    Shift=    0.000
 RMSDP=1.04D-03 MaxDP=2.66D-02 DE=-2.75D-02 OVMax= 1.19D-01

 Cycle   4  Pass 1  IDiag  1:
 E= -3074.46903697022     Delta-E=       -0.019081851483 Rises=F Damp=F
 DIIS: error= 5.35D-03 at cycle   4 NSaved=   4.
 NSaved= 4 IEnMin= 4 EnMin= -3074.46903697022     IErMin= 4 ErrMin= 5.35D-03
 ErrMax= 5.35D-03  0.00D+00 EMaxC= 1.00D-01 BMatC= 3.34D-03 BMatP= 2.04D-02
 IDIUse=3 WtCom= 9.46D-01 WtEn= 5.35D-02
 Coeff-Com: -0.192D-01 0.700D-01 0.303D+00 0.646D+00
 Coeff-En:   0.000D+00 0.000D+00 0.168D+00 0.832D+00
 Coeff:     -0.182D-01 0.663D-01 0.296D+00 0.656D+00
 Gap=     0.196 Goal=   None    Shift=    0.000
 RMSDP=3.81D-04 MaxDP=1.07D-02 DE=-1.91D-02 OVMax= 3.50D-02

 Cycle   5  Pass 1  IDiag  1:
 E= -3074.47282651898     Delta-E=       -0.003789548767 Rises=F Damp=F
 DIIS: error= 8.54D-04 at cycle   5 NSaved=   5.
 NSaved= 5 IEnMin= 5 EnMin= -3074.47282651898     IErMin= 5 ErrMin= 8.54D-04
 ErrMax= 8.54D-04  0.00D+00 EMaxC= 1.00D-01 BMatC= 1.10D-04 BMatP= 3.34D-03
 IDIUse=3 WtCom= 9.91D-01 WtEn= 8.54D-03
 Coeff-Com: -0.101D-01 0.205D-01 0.143D+00 0.328D+00 0.519D+00
 Coeff-En:   0.000D+00 0.000D+00 0.000D+00 0.000D+00 0.100D+01
 Coeff:     -0.100D-01 0.203D-01 0.142D+00 0.325D+00 0.523D+00
 Gap=     0.196 Goal=   None    Shift=    0.000
 RMSDP=9.36D-05 MaxDP=3.80D-03 DE=-3.79D-03 OVMax= 5.50D-03

 Cycle   6  Pass 1  IDiag  1:
 E= -3074.47290705695     Delta-E=       -0.000080537965 Rises=F Damp=F
 DIIS: error= 1.50D-04 at cycle   6 NSaved=   6.
 NSaved= 6 IEnMin= 6 EnMin= -3074.47290705695     IErMin= 6 ErrMin= 1.50D-04
 ErrMax= 1.50D-04  0.00D+00 EMaxC= 1.00D-01 BMatC= 5.70D-06 BMatP= 1.10D-04
 IDIUse=3 WtCom= 9.99D-01 WtEn= 1.50D-03
 Coeff-Com: -0.123D-02 0.109D-02 0.279D-01 0.669D-01 0.216D+00 0.689D+00
 Coeff-En:   0.000D+00 0.000D+00 0.000D+00 0.000D+00 0.000D+00 0.100D+01
 Coeff:     -0.123D-02 0.109D-02 0.279D-01 0.668D-01 0.216D+00 0.690D+00
 Gap=     0.197 Goal=   None    Shift=    0.000
 RMSDP=2.55D-05 MaxDP=6.84D-04 DE=-8.05D-05 OVMax= 2.13D-03

 Cycle   7  Pass 1  IDiag  1:
 E= -3074.47291210540     Delta-E=       -0.000005048455 Rises=F Damp=F
 DIIS: error= 1.06D-04 at cycle   7 NSaved=   7.
 NSaved= 7 IEnMin= 7 EnMin= -3074.47291210540     IErMin= 7 ErrMin= 1.06D-04
 ErrMax= 1.06D-04  0.00D+00 EMaxC= 1.00D-01 BMatC= 8.74D-07 BMatP= 5.70D-06
 IDIUse=3 WtCom= 9.99D-01 WtEn= 1.06D-03
 Coeff-Com:  0.475D-03-0.134D-02-0.416D-02-0.102D-01 0.388D-01 0.350D+00
 Coeff-Com:  0.626D+00
 Coeff-En:   0.000D+00 0.000D+00 0.000D+00 0.000D+00 0.000D+00 0.869D-01
 Coeff-En:   0.913D+00
 Coeff:      0.475D-03-0.134D-02-0.416D-02-0.102D-01 0.388D-01 0.350D+00
 Coeff:      0.627D+00
 Gap=     0.197 Goal=   None    Shift=    0.000
 RMSDP=8.17D-06 MaxDP=3.37D-04 DE=-5.05D-06 OVMax= 5.35D-04

 Cycle   8  Pass 1  IDiag  1:
 E= -3074.47291297126     Delta-E=       -0.000000865861 Rises=F Damp=F
 DIIS: error= 7.16D-06 at cycle   8 NSaved=   8.
 NSaved= 8 IEnMin= 8 EnMin= -3074.47291297126     IErMin= 8 ErrMin= 7.16D-06
 ErrMax= 7.16D-06  0.00D+00 EMaxC= 1.00D-01 BMatC= 7.64D-09 BMatP= 8.74D-07
 IDIUse=1 WtCom= 1.00D+00 WtEn= 0.00D+00
 Coeff-Com:  0.121D-03-0.231D-03-0.125D-02-0.336D-02-0.142D-02 0.286D-01
 Coeff-Com:  0.128D+00 0.849D+00
 Coeff:      0.121D-03-0.231D-03-0.125D-02-0.336D-02-0.142D-02 0.286D-01
 Coeff:      0.128D+00 0.849D+00
 Gap=     0.197 Goal=   None    Shift=    0.000
 RMSDP=9.20D-07 MaxDP=3.08D-05 DE=-8.66D-07 OVMax= 6.28D-05

 Cycle   9  Pass 1  IDiag  1:
 E= -3074.47291298047     Delta-E=       -0.000000009205 Rises=F Damp=F
 DIIS: error= 1.97D-06 at cycle   9 NSaved=   9.
 NSaved= 9 IEnMin= 9 EnMin= -3074.47291298047     IErMin= 9 ErrMin= 1.97D-06
 ErrMax= 1.97D-06  0.00D+00 EMaxC= 1.00D-01 BMatC= 4.34D-10 BMatP= 7.64D-09
 IDIUse=1 WtCom= 1.00D+00 WtEn= 0.00D+00
 Coeff-Com:  0.481D-04-0.864D-04-0.361D-03-0.101D-02-0.165D-02 0.449D-03
 Coeff-Com:  0.245D-01 0.309D+00 0.669D+00
 Coeff:      0.481D-04-0.864D-04-0.361D-03-0.101D-02-0.165D-02 0.449D-03
 Coeff:      0.245D-01 0.309D+00 0.669D+00
 Gap=     0.197 Goal=   None    Shift=    0.000
 RMSDP=1.30D-07 MaxDP=3.16D-06 DE=-9.21D-09 OVMax= 5.26D-06

 Cycle  10  Pass 1  IDiag  1:
 E= -3074.47291298088     Delta-E=       -0.000000000415 Rises=F Damp=F
 DIIS: error= 4.99D-07 at cycle  10 NSaved=  10.
 NSaved=10 IEnMin=10 EnMin= -3074.47291298088     IErMin=10 ErrMin= 4.99D-07
 ErrMax= 4.99D-07  0.00D+00 EMaxC= 1.00D-01 BMatC= 2.13D-11 BMatP= 4.34D-10
 IDIUse=1 WtCom= 1.00D+00 WtEn= 0.00D+00
 Coeff-Com:  0.555D-05-0.112D-04 0.149D-05-0.297D-04-0.440D-03-0.223D-02
 Coeff-Com: -0.498D-02 0.243D-01 0.159D+00 0.825D+00
 Coeff:      0.555D-05-0.112D-04 0.149D-05-0.297D-04-0.440D-03-0.223D-02
 Coeff:     -0.498D-02 0.243D-01 0.159D+00 0.825D+00
 Gap=     0.197 Goal=   None    Shift=    0.000
 RMSDP=4.32D-08 MaxDP=1.15D-06 DE=-4.15D-10 OVMax= 2.83D-06

 Cycle  11  Pass 1  IDiag  1:
 E= -3074.47291298090     Delta-E=       -0.000000000017 Rises=F Damp=F
 DIIS: error= 5.13D-08 at cycle  11 NSaved=  11.
 NSaved=11 IEnMin=11 EnMin= -3074.47291298090     IErMin=11 ErrMin= 5.13D-08
 ErrMax= 5.13D-08  0.00D+00 EMaxC= 1.00D-01 BMatC= 3.36D-13 BMatP= 2.13D-11
 IDIUse=1 WtCom= 1.00D+00 WtEn= 0.00D+00
 Coeff-Com:  0.331D-06-0.758D-06 0.455D-05 0.601D-05-0.608D-04-0.429D-03
 Coeff-Com: -0.128D-02 0.190D-04 0.216D-01 0.210D+00 0.771D+00
 Coeff:      0.331D-06-0.758D-06 0.455D-05 0.601D-05-0.608D-04-0.429D-03
 Coeff:     -0.128D-02 0.190D-04 0.216D-01 0.210D+00 0.771D+00
 Gap=     0.197 Goal=   None    Shift=    0.000
 RMSDP=4.26D-09 MaxDP=9.66D-08 DE=-1.68D-11 OVMax= 3.10D-07

 CoulSu:  requested number of processors reduced to:  17 ShMem   1 Linda.
 CoulSu:  requested number of processors reduced to:  16 ShMem   1 Linda.
 Error on total polarization charges =  0.00936
 SCF Done:  E(RB3LYP) =  -3074.47291298     A.U. after   11 cycles
            NFock= 11  Conv=0.43D-08     -V/T= 2.0015
 KE= 3.069818847921D+03 PE=-7.700152684414D+03 EE= 1.382293816955D+03
 Leave Link  502 at Fri Oct 18 03:20:57 2019, MaxMem=   104857600 cpu:             194.1 elap:               9.1
 (Enter /share/home/wli/program/opt/Chem_soft/g16/l801.exe)
 DoSCS=F DFT=T ScalE2(SS,OS)=  1.000000  1.000000
 Range of M.O.s used for correlation:     1   134
 NBasis=   134 NAE=    31 NBE=    31 NFC=     0 NFV=     0
 NROrb=    134 NOA=    31 NOB=    31 NVA=   103 NVB=   103
 Leave Link  801 at Fri Oct 18 03:20:57 2019, MaxMem=   104857600 cpu:               1.1 elap:               0.1
 (Enter /share/home/wli/program/opt/Chem_soft/g16/l1101.exe)
 Using compressed storage, NAtomX=     6.
 Will process      7 centers per pass.
 PrsmSu:  requested number of processors reduced to:  11 ShMem   1 Linda.
   1 Symmetry operations used in ECPInt.
 ECPInt:  NShTT=    1378 NPrTT=    5593 LenC2=    1324 LenP2D=    4259.
 LDataN:  DoStor=T MaxTD1= 7 Len=  274
 Number of processors reduced to  18 by ecpmxn.
 R6Disp: Adding Grimme-D3(BJ) dispersion energy 1st derivatives to the gradient.
 Leave Link 1101 at Fri Oct 18 03:20:58 2019, MaxMem=   104857600 cpu:               8.8 elap:               0.4
 (Enter /share/home/wli/program/opt/Chem_soft/g16/l1102.exe)
 Symmetrizing basis deriv contribution to polar:
 IMax=3 JMax=2 DiffMx= 0.00D+00
 Leave Link 1102 at Fri Oct 18 03:20:58 2019, MaxMem=   104857600 cpu:               1.9 elap:               0.1
 (Enter /share/home/wli/program/opt/Chem_soft/g16/l1110.exe)
 Forming Gx(P) for the SCF density, NAtomX=     6.
 Integral derivatives from FoFJK, PRISM(SPDF).
 Do as many integral derivatives as possible in FoFJK.
 G2DrvN: MDV=     104857020.
 G2DrvN: will do     7 centers at a time, making    1 passes.
 Calling FoFCou, ICntrl=  3107 FMM=F I1Cent=   0 AccDes= 0.00D+00.
 FoFJK:  IHMeth= 1 ICntrl=    3107 DoSepK=F KAlg= 0 I1Cent=           0 FoldK=F
 IRaf=         0 NMat=       1 IRICut=       1 DoRegI=T DoRafI=F ISym2E= 0 IDoP0=0 IntGTp=1.
 FoFCou: FMM=F IPFlag=           0 FMFlag=      100000 FMFlg1=           0
         NFxFlg=           0 DoJE=F BraDBF=F KetDBF=F FulRan=T
         wScrn=  0.000000 ICntrl=      3107 IOpCl=  0 I1Cent=           0 NGrid=           0
         NMat0=    1 NMatS0=      1 NMatT0=    0 NMatD0=    1 NMtDS0=    0 NMtDT0=    0
 Symmetry not used in FoFCou.
 NEqPCM:  Using equilibrium solvation (IEInf=0, Eps=   2.2706, EpsInf=   2.2533)
 G2PCM: DoFxE=T DoFxN=T DoGrad=T DoDP/DQ/DG/TGxP=FFFF NFrqRd=   0 IEInf=0 SqF1=F DoCFld=F IF1Alg=4.
 GePol: Maximum number of non-zero 1st derivatives   =     380
 CoulSu:  requested number of processors reduced to:  13 ShMem   1 Linda.
 CoulSu:  requested number of processors reduced to:  13 ShMem   1 Linda.
 CoulSu:  requested number of processors reduced to:  13 ShMem   1 Linda.
 CoulSu:  requested number of processors reduced to:  17 ShMem   1 Linda.
 CoulSu:  requested number of processors reduced to:  23 ShMem   1 Linda.
 CoulSu:  requested number of processors reduced to:  13 ShMem   1 Linda.
 CoulSu:  requested number of processors reduced to:  13 ShMem   1 Linda.
 CoulSu:  requested number of processors reduced to:  13 ShMem   1 Linda.
 CoulSu:  requested number of processors reduced to:  13 ShMem   1 Linda.
 End of G2Drv F.D. properties file   721 does not exist.
 End of G2Drv F.D. properties file   722 does not exist.
 End of G2Drv F.D. properties file   788 does not exist.
 Leave Link 1110 at Fri Oct 18 03:21:05 2019, MaxMem=   104857600 cpu:             170.7 elap:               7.5
 (Enter /share/home/wli/program/opt/Chem_soft/g16/l1002.exe)
 Minotr:  Closed shell wavefunction.
          IDoAtm=111111
 NEqPCM:  Using equilibrium solvation (IEInf=0, Eps=   2.2706, EpsInf=   2.2533)
          Direct CPHF calculation.
          Differentiating once with respect to nuclear coordinates.
          Requested convergence is 1.0D-08 RMS, and 1.0D-07 maximum.
          Secondary convergence is 1.0D-12 RMS, and 1.0D-12 maximum.
          NewPWx=T KeepS1=F KeepF1=F KeepIn=T MapXYZ=F SortEE=F KeepMc=T.
         1761 words used for storage of precomputed grid.
 Keep R1 ints in memory in canonical form, NReq=64236638.
 FoFCou: FMM=F IPFlag=           0 FMFlag=           0 FMFlg1=           0
         NFxFlg=           0 DoJE=F BraDBF=F KetDBF=F FulRan=T
         wScrn=  0.000000 ICntrl=       600 IOpCl=  0 I1Cent=           0 NGrid=           0
         NMat0=    1 NMatS0=   9045 NMatT0=    0 NMatD0=    1 NMtDS0=    0 NMtDT0=    0
 Symmetry not used in FoFCou.
 Two-electron integral symmetry not used.
          MDV=     104857600 using IRadAn=       1.
          Solving linear equations simultaneously, MaxMat=       0.
 CoulSu:  requested number of processors reduced to:  13 ShMem   1 Linda.
 CoulSu:  requested number of processors reduced to:  13 ShMem   1 Linda.
          There are    21 degrees of freedom in the 1st order CPHF.  IDoFFX=6 NUNeed=     0.
     15 vectors produced by pass  0 Test12= 1.52D-14 4.76D-09 XBig12= 1.55D-01 3.27D-01.
 AX will form    15 AO Fock derivatives at one time.
 CoulSu:  requested number of processors reduced to:  16 ShMem   1 Linda.
 CoulSu:  requested number of processors reduced to:  15 ShMem   1 Linda.
     15 vectors produced by pass  1 Test12= 1.52D-14 4.76D-09 XBig12= 2.27D-02 5.19D-02.
 CoulSu:  requested number of processors reduced to:  16 ShMem   1 Linda.
 CoulSu:  requested number of processors reduced to:  15 ShMem   1 Linda.
     15 vectors produced by pass  2 Test12= 1.52D-14 4.76D-09 XBig12= 1.08D-03 8.98D-03.
 CoulSu:  requested number of processors reduced to:  16 ShMem   1 Linda.
 CoulSu:  requested number of processors reduced to:  15 ShMem   1 Linda.
     15 vectors produced by pass  3 Test12= 1.52D-14 4.76D-09 XBig12= 4.39D-05 1.53D-03.
 CoulSu:  requested number of processors reduced to:  16 ShMem   1 Linda.
 CoulSu:  requested number of processors reduced to:  15 ShMem   1 Linda.
     15 vectors produced by pass  4 Test12= 1.52D-14 4.76D-09 XBig12= 4.98D-07 1.77D-04.
 CoulSu:  requested number of processors reduced to:  16 ShMem   1 Linda.
 CoulSu:  requested number of processors reduced to:  15 ShMem   1 Linda.
     15 vectors produced by pass  5 Test12= 1.52D-14 4.76D-09 XBig12= 9.26D-10 1.03D-05.
 CoulSu:  requested number of processors reduced to:  16 ShMem   1 Linda.
 CoulSu:  requested number of processors reduced to:  15 ShMem   1 Linda.
      7 vectors produced by pass  6 Test12= 1.52D-14 4.76D-09 XBig12= 3.97D-12 6.09D-07.
 CoulSu:  requested number of processors reduced to:  22 ShMem   1 Linda.
 CoulSu:  requested number of processors reduced to:  21 ShMem   1 Linda.
      2 vectors produced by pass  7 Test12= 1.52D-14 4.76D-09 XBig12= 4.97D-15 1.36D-08.
 InvSVY:  IOpt=1 It=  1 EMax= 1.44D-15
 Solved reduced A of dimension    99 with    15 vectors.
 End of Minotr F.D. properties file   721 does not exist.
 End of Minotr F.D. properties file   722 does not exist.
 End of Minotr F.D. properties file   788 does not exist.
 Leave Link 1002 at Fri Oct 18 03:21:12 2019, MaxMem=   104857600 cpu:             149.8 elap:               6.9
 (Enter /share/home/wli/program/opt/Chem_soft/g16/l601.exe)
 Copying SCF densities to generalized density rwf, IOpCl= 0 IROHF=0.

 **********************************************************************

            Population analysis using the SCF density.

 **********************************************************************

 Orbital symmetries:
       Occupied  (A) (A) (A) (A) (A) (A) (A) (A) (A) (A) (A) (A)
                 (A) (A) (A) (A) (A) (A) (A) (A) (A) (A) (A) (A)
                 (A) (A) (A) (A) (A) (A) (A)
       Virtual   (A) (A) (A) (A) (A) (A) (A) (A) (A) (A) (A) (A)
                 (A) (A) (A) (A) (A) (A) (A) (A) (A) (A) (A) (A)
                 (A) (A) (A) (A) (A) (A) (A) (A) (A) (A) (A) (A)
                 (A) (A) (A) (A) (A) (A) (A) (A) (A) (A) (A) (A)
                 (A) (A) (A) (A) (A) (A) (A) (A) (A) (A) (A) (A)
                 (A) (A) (A) (A) (A) (A) (A) (A) (A) (A) (A) (A)
                 (A) (A) (A) (A) (A) (A) (A) (A) (A) (A) (A) (A)
                 (A) (A) (A) (A) (A) (A) (A) (A) (A) (A) (A) (A)
                 (A) (A) (A) (A) (A) (A) (A)
 The electronic state is 1-A.
 Alpha  occ. eigenvalues -- -482.73038-101.35933 -62.37886 -56.19375 -56.19203
 Alpha  occ. eigenvalues --  -56.19203 -10.16607  -9.29141  -8.56967  -7.04923
 Alpha  occ. eigenvalues --   -7.04626  -7.04626  -6.39536  -6.39009  -6.39009
 Alpha  occ. eigenvalues --   -2.51043  -2.50902  -2.50901  -2.50482  -2.50482
 Alpha  occ. eigenvalues --   -0.67658  -0.64433  -0.60013  -0.38321  -0.38319
 Alpha  occ. eigenvalues --   -0.25392  -0.19215  -0.19213  -0.18254  -0.18252
 Alpha  occ. eigenvalues --   -0.17259
 Alpha virt. eigenvalues --    0.02407   0.11474   0.17647   0.17654   0.25560
 Alpha virt. eigenvalues --    0.26353   0.26361   0.32963   0.33446   0.33449
 Alpha virt. eigenvalues --    0.38742   0.38747   0.40339   0.41336   0.41337
 Alpha virt. eigenvalues --    0.46869   0.47089   0.47091   0.49872   0.53020
 Alpha virt. eigenvalues --    0.53025   0.55273   0.57852   0.57853   0.58245
 Alpha virt. eigenvalues --    0.58246   0.60804   0.83832   0.83835   0.84468
 Alpha virt. eigenvalues --    1.02308   1.02312   1.03230   1.16726   1.40946
 Alpha virt. eigenvalues --    1.43671   1.43672   1.44973   1.44974   1.51088
 Alpha virt. eigenvalues --    1.51833   1.51835   1.51899   1.53244   1.62274
 Alpha virt. eigenvalues --    1.62274   1.63689   1.63734   1.68627   1.68628
 Alpha virt. eigenvalues --    1.70009   1.73191   1.73198   1.86003   1.86003
 Alpha virt. eigenvalues --    1.88113   1.89509   1.89513   1.99942   1.99943
 Alpha virt. eigenvalues --    2.02867   2.09608   2.11639   2.11639   2.21465
 Alpha virt. eigenvalues --    2.21465   2.22813   2.22920   2.31924   2.31926
 Alpha virt. eigenvalues --    2.34778   2.34779   2.35939   2.39841   2.50804
 Alpha virt. eigenvalues --    2.50813   2.68028   2.72176   2.72182   2.84442
 Alpha virt. eigenvalues --    3.12933   3.12934   3.26199   3.26200   3.29166
 Alpha virt. eigenvalues --    3.35388   3.35390   3.67537   3.89675   4.09174
 Alpha virt. eigenvalues --    4.09177   4.12745   4.12746   4.21389   4.21392
 Alpha virt. eigenvalues --    4.33168   4.75416   7.47554  10.81921  10.81921
 Alpha virt. eigenvalues --   10.93067  22.15988  24.62401
          Condensed to atoms (all electrons):
               1          2          3          4          5          6
     1  C    4.856219   0.409771   0.409750   0.409735   0.021648   0.044818
     2  H    0.409771   0.498953  -0.021959  -0.022060  -0.004568  -0.015533
     3  H    0.409750  -0.021959   0.498994  -0.022052  -0.004546  -0.015526
     4  H    0.409735  -0.022060  -0.022052   0.499226  -0.004487  -0.015475
     5  Cl   0.021648  -0.004568  -0.004546  -0.004487  17.684604   0.009825
     6  Br   0.044818  -0.015533  -0.015526  -0.015475   0.009825  35.603323
 Mulliken charges:
               1
     1  C   -0.151941
     2  H    0.155397
     3  H    0.155338
     4  H    0.155114
     5  Cl  -0.702476
     6  Br  -0.611432
 Sum of Mulliken charges =  -1.00000
 Mulliken charges with hydrogens summed into heavy atoms:
               1
     1  C    0.313907
     5  Cl  -0.702476
     6  Br  -0.611432
 APT charges:
               1
     1  C   -0.808388
     2  H    0.340583
     3  H    0.340521
     4  H    0.340309
     5  Cl  -0.667018
     6  Br  -0.546007
 Sum of APT charges =  -1.00000
 APT charges with hydrogens summed into heavy atoms:
               1
     1  C    0.213025
     5  Cl  -0.667018
     6  Br  -0.546007
 Electronic spatial extent (au):  <R**2>=           1123.4085
 Charge=             -1.0000 electrons
 Dipole moment (field-independent basis, Debye):
    X=             -0.0033    Y=             -0.0247    Z=             -4.4392  Tot=              4.4392
 Quadrupole moment (field-independent basis, Debye-Ang):
   XX=            -42.4631   YY=            -42.4625   ZZ=            -85.3523
   XY=             -0.0002   XZ=              0.0006   YZ=             -0.2394
 Traceless Quadrupole moment (field-independent basis, Debye-Ang):
   XX=             14.2962   YY=             14.2968   ZZ=            -28.5930
   XY=             -0.0002   XZ=              0.0006   YZ=             -0.2394
 Octapole moment (field-independent basis, Debye-Ang**2):
  XXX=              1.0583  YYY=             -0.1876  ZZZ=           -143.3315  XYY=             -1.0662
  XXY=             -0.1538  XXZ=            -15.3364  XZZ=             -0.0091  YZZ=             -0.6282
  YYZ=            -15.3392  XYZ=              0.0056
 Hexadecapole moment (field-independent basis, Debye-Ang**3):
 XXXX=            -61.1712 YYYY=            -61.2042 ZZZZ=          -1670.5255 XXXY=              0.0042
 XXXZ=              0.8134 YYYX=             -0.0134 YYYZ=             -3.5394 ZZZX=              0.0198
 ZZZY=             -5.3729 XXYY=            -20.3971 XXZZ=           -235.3547 YYZZ=           -235.3672
 XXYZ=             -1.2478 YYXZ=             -0.7861 ZZXY=              0.0081
 N-N= 1.735671065563D+02 E-N=-7.700152681003D+03  KE= 3.069818847921D+03
  Exact polarizability:   0.000   0.000   0.000   0.000   0.000   0.000
 Approx polarizability:  60.471   0.000  60.472  -0.004   0.805 205.249
 No NMR shielding tensors so no spin-rotation constants.
 Leave Link  601 at Fri Oct 18 03:21:13 2019, MaxMem=   104857600 cpu:              15.6 elap:               0.7
 (Enter /share/home/wli/program/opt/Chem_soft/g16/l701.exe)
 ... and contract with generalized density number  0.
 Compute integral second derivatives.
 R6Disp: Adding Grimme-D3(BJ) dispersion energy 2nd derivatives to the Hessian.
 PrsmSu:  requested number of processors reduced to:   9 ShMem   1 Linda.
 PrsmSu:  requested number of processors reduced to:  13 ShMem   1 Linda.
   1 Symmetry operations used in ECPInt.
 ECPInt:  NShTT=    1378 NPrTT=    5593 LenC2=    1324 LenP2D=    4259.
 LDataN:  DoStor=T MaxTD1= 8 Len=  415
 D2PCM: PCM CHGder 2nd derivatives, FixD1E=F FixD2E=F DoIter=F DoCFld=F I1PDM=0
 GePol: Maximum number of non-zero 2nd derivatives   =     380
 CoulSu:  requested number of processors reduced to:  13 ShMem   1 Linda.
 CoulSu:  requested number of processors reduced to:  13 ShMem   1 Linda.
 CoulSu:  requested number of processors reduced to:  13 ShMem   1 Linda.
 CoulSu:  requested number of processors reduced to:  13 ShMem   1 Linda.
 CoulSu:  requested number of processors reduced to:  13 ShMem   1 Linda.
 CoulSu:  requested number of processors reduced to:  11 ShMem   1 Linda.
 CoulSu:  requested number of processors reduced to:  13 ShMem   1 Linda.
 CoulSu:  requested number of processors reduced to:  11 ShMem   1 Linda.
 CoulSu:  requested number of processors reduced to:  13 ShMem   1 Linda.
 CoulSu:  requested number of processors reduced to:  11 ShMem   1 Linda.
 CoulSu:  requested number of processors reduced to:  11 ShMem   1 Linda.
 CoulSu:  requested number of processors reduced to:  13 ShMem   1 Linda.
 CoulSu:  requested number of processors reduced to:  13 ShMem   1 Linda.
 CoulSu:  requested number of processors reduced to:  13 ShMem   1 Linda.
 CoulSu:  requested number of processors reduced to:  13 ShMem   1 Linda.
 CoulSu:  requested number of processors reduced to:  13 ShMem   1 Linda.
 Leave Link  701 at Fri Oct 18 03:21:16 2019, MaxMem=   104857600 cpu:              55.9 elap:               3.2
 (Enter /share/home/wli/program/opt/Chem_soft/g16/l702.exe)
 L702 exits ... SP integral derivatives will be done elsewhere.
 Leave Link  702 at Fri Oct 18 03:21:17 2019, MaxMem=   104857600 cpu:               1.1 elap:               0.1
 (Enter /share/home/wli/program/opt/Chem_soft/g16/l703.exe)
 Integral derivatives from FoFJK, PRISM(SPDF).
 Compute integral second derivatives, UseDBF=F ICtDFT=           0.
 Calling FoFJK, ICntrl=    100147 FMM=F ISym2X=0 I1Cent= 0 IOpClX= 0 NMat=1 NMatS=1 NMatT=0.
 FoFJK:  IHMeth= 1 ICntrl=  100147 DoSepK=F KAlg= 0 I1Cent=           0 FoldK=F
 IRaf=         0 NMat=       1 IRICut=       1 DoRegI=T DoRafI=F ISym2E= 0 IDoP0=0 IntGTp=1.
 FoFCou: FMM=F IPFlag=           0 FMFlag=      100000 FMFlg1=         800
         NFxFlg=           0 DoJE=F BraDBF=F KetDBF=F FulRan=T
         wScrn=  0.000000 ICntrl=    100147 IOpCl=  0 I1Cent=           0 NGrid=           0
         NMat0=    1 NMatS0=      1 NMatT0=    0 NMatD0=    1 NMtDS0=    0 NMtDT0=    0
 Symmetry not used in FoFCou.
 CoulSu:  requested number of processors reduced to:  13 ShMem   1 Linda.
 Leave Link  703 at Fri Oct 18 03:21:22 2019, MaxMem=   104857600 cpu:             110.4 elap:               5.8
 (Enter /share/home/wli/program/opt/Chem_soft/g16/l716.exe)
 Dipole        =-1.30843422D-03-9.73184547D-03-1.74650153D+00
 Polarizability= 0.00000000D+00 0.00000000D+00 0.00000000D+00
                 0.00000000D+00 0.00000000D+00 0.00000000D+00
 ***** Axes restored to original set *****
 -------------------------------------------------------------------
 Center     Atomic                   Forces (Hartrees/Bohr)
 Number     Number              X              Y              Z
 -------------------------------------------------------------------
      1        6          -0.002828528    0.000013117    0.000139353
      2        1          -0.000155342   -0.000469055   -0.000233370
      3        1          -0.000073182    0.000340702   -0.000415567
      4        1           0.000056178    0.000030917    0.000498702
      5       17           0.001059488    0.000011525    0.000039723
      6       35           0.001941386    0.000072794   -0.000028840
 -------------------------------------------------------------------
 Cartesian Forces:  Max     0.002828528 RMS     0.000874485
 Force constants in Cartesian coordinates: 
                1             2             3             4             5 
      1 -0.414942D-01
      2 -0.547462D-03  0.678012D+00
      3  0.126938D-02 -0.128980D-02  0.679647D+00
      4 -0.978510D-02  0.163490D-01  0.856478D-02  0.315552D-01
      5  0.145803D-01 -0.308367D+00 -0.136783D+00 -0.150785D-01  0.310353D+00
      6  0.730510D-02 -0.136780D+00 -0.128588D+00 -0.833955D-02  0.143603D+00
      7 -0.939264D-02 -0.156114D-01  0.913982D-02  0.271352D-02  0.148706D-02
      8 -0.137102D-01 -0.292037D+00  0.146972D+00 -0.152943D-02 -0.120558D-01
      9  0.736158D-02  0.147031D+00 -0.143132D+00 -0.786410D-03 -0.129281D-01
     10 -0.955415D-02  0.208403D-03 -0.184536D-01  0.270534D-02  0.884776D-04
     11  0.464761D-03 -0.544223D-01 -0.931024D-02 -0.149050D-02  0.428770D-02
     12 -0.164742D-01 -0.929316D-02 -0.382098D+00 -0.842394D-03  0.349300D-02
     13  0.341632D-01 -0.165476D-03  0.292353D-03 -0.126704D-01  0.163427D-02
     14 -0.465813D-03 -0.982660D-02  0.474758D-03 -0.478794D-02  0.205289D-02
     15  0.980245D-03  0.361261D-03 -0.117863D-01 -0.234368D-02  0.729867D-03
     16  0.360629D-01 -0.233135D-03 -0.812765D-03 -0.145185D-01 -0.271169D-02
     17 -0.321668D-03 -0.133594D-01 -0.638156D-04  0.653731D-02  0.372921D-02
     18 -0.442123D-03 -0.296518D-04 -0.140426D-01  0.374725D-02  0.188549D-02
                6             7             8             9            10 
      6  0.122024D+00
      7 -0.865953D-03  0.318748D-01
      8  0.140983D-01  0.143687D-01  0.293814D+00
      9  0.104032D-01 -0.838571D-02 -0.154105D+00  0.137246D+00
     10  0.170307D-02  0.270385D-02  0.165588D-05  0.171939D-02  0.325270D-01
     11 -0.235607D-01  0.143193D-02  0.533147D-02  0.229577D-01 -0.352421D-03
     12 -0.593142D-02 -0.916964D-03 -0.409444D-02 -0.698678D-02  0.163758D-01
     13  0.132935D-02 -0.130407D-01 -0.162784D-02  0.143367D-02 -0.128042D-01
     14  0.807168D-03  0.478416D-02  0.198575D-02 -0.130380D-02  0.238122D-03
     15  0.104960D-02 -0.290622D-02 -0.117072D-02  0.146201D-02  0.620692D-02
     16 -0.113202D-02 -0.148589D-01  0.249703D-02 -0.134252D-02 -0.155779D-01
     17  0.183231D-02 -0.646054D-02  0.296070D-02 -0.165203D-02 -0.184238D-03
     18  0.104231D-02  0.393503D-02 -0.170031D-02  0.100830D-02 -0.755157D-02
               11            12            13            14            15 
     11  0.450166D-01
     12  0.976661D-02  0.391213D+00
     13 -0.999389D-04 -0.111275D-02  0.275418D-01
     14 -0.956351D-04  0.325158D-04  0.228895D-03  0.437147D-02
     15  0.890317D-04  0.945077D-03 -0.192315D-02 -0.940215D-05  0.679482D-02
     16  0.461716D-04  0.297054D-02 -0.231898D-01  0.257638D-05 -0.141109D-04
     17 -0.117913D-03  0.954775D-04  0.300885D-04  0.151212D-02  0.000000D+00
     18  0.576274D-04  0.285795D-02 -0.194627D-04 -0.124282D-05  0.153480D-02
               16            17            18 
     16  0.320822D-01
     17  0.399044D-03  0.527528D-02
     18  0.330869D-03 -0.211914D-03  0.759922D-02
 FormGI is forming the generalized inverse of G from B-inverse, IUseBI=4.
 Force constants in internal coordinates: 
                1             2             3             4             5 
      1  0.388719D+00
      2 -0.120082D-03  0.389144D+00
      3 -0.118814D-03 -0.116631D-03  0.392212D+00
      4 -0.270466D-02 -0.278674D-02 -0.177147D-02  0.275423D-01
      5 -0.218638D-02 -0.207371D-02 -0.218024D-02  0.231898D-01  0.320823D-01
      6  0.179298D-02  0.170750D-02 -0.330957D-02  0.574068D-03 -0.570210D-03
      7  0.159495D-02 -0.325782D-02  0.186158D-02  0.818790D-03 -0.102353D-02
      8 -0.414943D-02  0.217221D-02  0.127603D-02  0.353218D-02 -0.493229D-02
      9 -0.503136D-02  0.205278D-02  0.119219D-02 -0.446682D-02  0.427836D-02
     10 -0.327116D-02  0.170554D-02  0.167923D-02  0.869664D-03 -0.109294D-02
     11  0.247855D-02 -0.377697D-02  0.124980D-02  0.343236D-02 -0.490807D-02
     12  0.227250D-02 -0.505527D-02  0.115623D-02 -0.504871D-02  0.515334D-02
     13  0.234058D-02  0.249474D-02 -0.120108D-02  0.600287D-02 -0.555793D-02
     14  0.208985D-02  0.211311D-02 -0.367420D-02 -0.345178D-02  0.596667D-02
     15 -0.918079D-02  0.422499D-02  0.246822D-02 -0.934641D-03 -0.653927D-03
     16 -0.184713D-03  0.776971D-02 -0.420987D-02  0.240916D-02  0.946249D-04
     17  0.942852D-03  0.118508D-02  0.117515D-02  0.148218D-01 -0.175891D-01
     18  0.194893D-02  0.185722D-02 -0.354840D-02 -0.347163D-04  0.291193D-03
     19 -0.156044D-02 -0.145321D-02  0.312073D-02  0.256556D-03 -0.253090D-03
     20 -0.176110D-02  0.368336D-02 -0.186470D-02  0.126108D-04  0.109623D-03
     21  0.134473D-02 -0.290904D-02  0.165360D-02  0.128268D-03 -0.130093D-03
     22 -0.371003D-02  0.182614D-02  0.168370D-02  0.473271D-04 -0.181570D-03
     23  0.290518D-02 -0.145583D-02 -0.146713D-02 -0.128289D-03  0.122997D-03
                6             7             8             9            10 
      6  0.674692D-02
      7 -0.342218D-02  0.699131D-02
      8  0.903876D-03  0.105300D-02  0.237004D-01
      9 -0.900420D-03 -0.118948D-02 -0.149522D-01  0.290952D-01
     10 -0.332607D-02 -0.336574D-02 -0.128194D-02  0.135791D-02  0.688101D-02
     11  0.928472D-03 -0.136722D-02 -0.901967D-02  0.617863D-02  0.114644D-02
     12 -0.735548D-03  0.136313D-02  0.588704D-02 -0.117052D-01 -0.137797D-02
     13 -0.183912D-02  0.147952D-02 -0.108132D-01  0.457862D-02  0.121944D-02
     14  0.164428D-02 -0.133970D-02  0.519726D-02 -0.131956D-01 -0.106468D-02
     15  0.345558D-05 -0.136480D-03  0.874818D-02  0.141431D-01  0.759693D-04
     16 -0.223260D-03  0.826886D-04 -0.143620D-02 -0.178689D-02  0.222879D-03
     17  0.671813D-03  0.982038D-03  0.449534D-02 -0.486729D-02  0.899153D-03
     18  0.662059D-02 -0.341213D-02 -0.380901D-03 -0.134455D-03 -0.333124D-02
     19 -0.663804D-02  0.342444D-02 -0.114349D-03 -0.618419D-03  0.334479D-02
     20  0.335751D-02 -0.680509D-02  0.682392D-04  0.288087D-03  0.337762D-02
     21 -0.337456D-02  0.680523D-02  0.201690D-03  0.201214D-03 -0.335713D-02
     22 -0.326307D-02 -0.339295D-02  0.449140D-03  0.422542D-03  0.670886D-02
     23  0.326348D-02  0.338079D-02  0.316038D-03  0.819633D-03 -0.670192D-02
               11            12            13            14            15 
     11  0.243399D-01
     12 -0.149531D-01  0.294240D-01
     13 -0.112649D-01  0.476564D-02  0.270073D-01
     14  0.471875D-02 -0.134187D-01 -0.142730D-01  0.309721D-01
     15 -0.284104D-02 -0.581813D-02 -0.623454D-02 -0.799830D-02  0.228912D-01
     16 -0.921054D-02 -0.133676D-01  0.111191D-01  0.146834D-01 -0.322309D-02
     17  0.471162D-02 -0.497075D-02  0.542523D-02 -0.479414D-02 -0.371955D-03
     18 -0.412484D-03  0.570388D-04  0.906644D-04  0.781739D-03 -0.515356D-03
     19 -0.164608D-03 -0.812783D-03  0.102996D-02  0.678729D-03 -0.732768D-03
     20 -0.403167D-03 -0.436849D-03 -0.655100D-04  0.549973D-03  0.356326D-03
     21 -0.418169D-03 -0.833827D-03  0.637516D-03  0.210865D-03  0.402904D-03
     22  0.931730D-05 -0.493888D-03 -0.156174D-03 -0.231766D-03  0.871682D-03
     23 -0.253561D-03 -0.210445D-04 -0.392441D-03 -0.467864D-03  0.113567D-02
               16            17            18            19            20 
     16  0.279687D-01
     17  0.514572D-03  0.167271D-01
     18  0.710767D-03 -0.133434D-03  0.672424D-02
     19  0.155191D-02  0.186566D-03 -0.664759D-02  0.679728D-02
     20  0.766153D-03 -0.117805D-03  0.340416D-02 -0.336161D-02  0.684005D-02
     21  0.121370D-02  0.139502D-03 -0.337285D-02  0.344719D-02 -0.676641D-02
     22  0.553854D-04  0.156297D-04 -0.332008D-02  0.328597D-02  0.343590D-02
     23 -0.338201D-03 -0.470641D-04  0.327473D-02 -0.335009D-02 -0.340479D-02
               21            22            23 
     21  0.687620D-02
     22 -0.339355D-02  0.675598D-02
     23  0.342901D-02 -0.667952D-02  0.677910D-02
 Leave Link  716 at Fri Oct 18 03:21:23 2019, MaxMem=   104857600 cpu:               2.6 elap:               0.1
 (Enter /share/home/wli/program/opt/Chem_soft/g16/l103.exe)

 GradGradGradGradGradGradGradGradGradGradGradGradGradGradGradGradGradGrad
 Berny optimization.
 Red2BG is reusing G-inverse.
 Internal  Forces:  Max     0.001941382 RMS     0.000499899
 Search for a saddle point.
 Step number   1 out of a maximum of   50
 All quantities printed in internal units (Hartrees-Bohrs-Radians)
 Swapping is turned off.
 Second derivative matrix not updated -- analytic derivatives used.
 ITU=  0
     Eigenvalues ---   -0.01380   0.02954   0.03011   0.03538   0.04291
     Eigenvalues ---    0.05060   0.05437   0.05990   0.06264   0.38908
     Eigenvalues ---    0.38991   0.39256
 Eigenvectors required to have negative eigenvalues:
                          R4        R5        D1        A8        A7
   1                   -0.57904   0.56846   0.47412   0.15038  -0.14428
                          A9        A3        A4        A6        A5
   1                   -0.13762   0.13533  -0.13232   0.12851   0.02508
 Angle between quadratic step and forces= 120.37 degrees.
 Linear search not attempted -- option 19 set.
 Iteration  1 RMS(Cart)=  0.01054066 RMS(Int)=  0.00035368
 Iteration  2 RMS(Cart)=  0.00017836 RMS(Int)=  0.00030534
 Iteration  3 RMS(Cart)=  0.00000001 RMS(Int)=  0.00030534
 ITry= 1 IFail=0 DXMaxC= 4.11D-02 DCOld= 1.00D+10 DXMaxT= 3.00D-01 DXLimC= 3.00D+00 Rises=F
 Variable       Old X    -DE/DX   Delta X   Delta X   Delta X     New X
                                 (Linear)    (Quad)   (Total)
    R1        2.02150   0.00052   0.00000   0.00110   0.00110   2.02259
    R2        2.02150   0.00050   0.00000   0.00056   0.00056   2.02206
    R3        2.02153   0.00050   0.00000   0.00089   0.00089   2.02241
    R4        4.61365   0.00106   0.00000  -0.06457  -0.06457   4.54907
    R5        4.56930  -0.00194   0.00000   0.04921   0.04921   4.61851
    A1        2.09003  -0.00003   0.00000   0.00333   0.00246   2.09249
    A2        2.08995   0.00000   0.00000   0.00323   0.00239   2.09234
    A3        1.52013   0.00016   0.00000   0.02528   0.02524   1.54537
    A4        1.62132  -0.00006   0.00000  -0.02154  -0.02151   1.59982
    A5        2.08994   0.00004   0.00000   0.00496   0.00416   2.09410
    A6        1.52014   0.00002   0.00000   0.01987   0.01983   1.53997
    A7        1.62133  -0.00010   0.00000  -0.02428  -0.02424   1.59709
    A8        1.52038  -0.00009   0.00000   0.02086   0.02082   1.54120
    A9        1.62148   0.00008   0.00000  -0.02019  -0.02015   1.60134
   A10        3.14145   0.00010   0.00000   0.00374   0.00374   3.14519
   A11        3.14182   0.00004   0.00000   0.00294   0.00294   3.14476
    D1        2.96690   0.00010   0.00000   0.07549   0.07563   3.04253
    D2        2.09447  -0.00004   0.00000  -0.00062  -0.00062   2.09385
    D3       -2.09444   0.00004   0.00000   0.00067   0.00064  -2.09381
    D4       -2.09436   0.00000   0.00000   0.00080   0.00071  -2.09365
    D5        2.09437   0.00001   0.00000  -0.00042  -0.00050   2.09387
    D6        2.09436   0.00004   0.00000   0.00142   0.00133   2.09569
    D7       -2.09437  -0.00003   0.00000  -0.00108  -0.00113  -2.09550
         Item               Value     Threshold  Converged?
 Maximum Force            0.001941     0.000450     NO 
 RMS     Force            0.000500     0.000300     NO 
 Maximum Displacement     0.041136     0.001800     NO 
 RMS     Displacement     0.010528     0.001200     NO 
 Predicted change in Energy= 7.495041D-05
 Lowest energy point so far.  Saving SCF results.
 GradGradGradGradGradGradGradGradGradGradGradGradGradGradGradGradGradGrad

 Leave Link  103 at Fri Oct 18 03:21:23 2019, MaxMem=   104857600 cpu:              15.6 elap:               0.7
 (Enter /share/home/wli/program/opt/Chem_soft/g16/l202.exe)
                          Input orientation:                          
 ---------------------------------------------------------------------
 Center     Atomic      Atomic             Coordinates (Angstroms)
 Number     Number       Type             X           Y           Z
 ---------------------------------------------------------------------
      1          6           0        0.726068   -0.001668    0.000689
      2          1           0        0.755416   -0.942339   -0.509057
      3          1           0        0.756596    0.909544   -0.559423
      4          1           0        0.758054    0.026531    1.070053
      5         17           0        3.133327    0.004282   -0.000179
      6         35           0       -1.717936    0.003708   -0.001037
 ---------------------------------------------------------------------
                    Distance matrix (angstroms):
                    1          2          3          4          5
     1  C    0.000000
     2  H    1.070311   0.000000
     3  H    1.070031   1.852569   0.000000
     4  H    1.070214   1.852649   1.853351   0.000000
     5  Cl   2.407267   2.609503   2.604056   2.605344   0.000000
     6  Br   2.444011   2.696398   2.693630   2.697829   4.851263
                    6
     6  Br   0.000000
 Stoichiometry    CH3BrCl(1-)
 Framework group  C1[X(CH3BrCl)]
 Deg. of freedom    12
 Full point group                 C1      NOp   1
 RotChk:  IX=1 Diff= 2.23D+00
 Largest Abelian subgroup         C1      NOp   1
 Largest concise Abelian subgroup C1      NOp   1
                         Standard orientation:                         
 ---------------------------------------------------------------------
 Center     Atomic      Atomic             Coordinates (Angstroms)
 Number     Number       Type             X           Y           Z
 ---------------------------------------------------------------------
      1          6           0       -0.729916    0.003290   -0.003538
      2          1           0       -0.759172    0.031562   -1.073075
      3          1           0       -0.760306   -0.937105    0.506068
      4          1           0       -0.762132    0.915597    0.555046
      5         17           0       -3.137175   -0.000907    0.000961
      6         35           0        1.714088   -0.000411    0.000482
 ---------------------------------------------------------------------
 Rotational constants (GHZ):         146.0470250           0.8649802           0.8649775
 Leave Link  202 at Fri Oct 18 03:21:23 2019, MaxMem=   104857600 cpu:               1.8 elap:               0.1
 (Enter /share/home/wli/program/opt/Chem_soft/g16/l301.exe)
 Standard basis: def2TZVP (5D, 7F)
 Ernie: Thresh=  0.10000D-02 Tol=  0.10000D-05 Strict=F.
 There are   151 symmetry adapted cartesian basis functions of A   symmetry.
 There are   134 symmetry adapted basis functions of A   symmetry.
   134 basis functions,   258 primitive gaussians,   151 cartesian basis functions
    31 alpha electrons       31 beta electrons
       nuclear repulsion energy       173.5163804694 Hartrees.
 IExCor=  402 DFT=T Ex+Corr=B3LYP ExCW=0 ScaHFX=  0.200000
 ScaDFX=  0.800000  0.720000  1.000000  0.810000 ScalE2=  1.000000  1.000000
 IRadAn=      5 IRanWt=     -1 IRanGd=            0 ICorTp=0 IEmpDi=141
 NAtoms=    6 NActive=    6 NUniq=    6 SFac= 1.00D+00 NAtFMM=   60 NAOKFM=F Big=F
 Integral buffers will be    131072 words long.
 Raffenetti 2 integral format.
 Two-electron integral symmetry is turned on.
 R6Disp:  Grimme-D3(BJ) Dispersion energy=       -0.0070018865 Hartrees.
 Nuclear repulsion after empirical dispersion term =      173.5093785829 Hartrees.
 ------------------------------------------------------------------------------
 Polarizable Continuum Model (PCM)
 =================================
 Model                : PCM.
 Atomic radii         : UFF (Universal Force Field).
 Polarization charges : Total charges.
 Charge compensation  : None.
 Solution method      : Matrix inversion.
 Cavity type          : Scaled VdW (van der Waals Surface) (Alpha=1.100).
 Cavity algorithm     : GePol (No added spheres)
                        Default sphere list used, NSphG=    6.
                        Lebedev-Laikov grids with approx.  5.0 points / Ang**2.
                        Smoothing algorithm: York/Karplus (Gamma=1.0000).
                        Polarization charges: spherical gaussians, with
                                              point-specific exponents (IZeta= 3).
                        Self-potential: point-specific (ISelfS= 7).
                        Self-field    : sphere-specific E.n sum rule (ISelfD= 2).
 1st derivatives      : Analytical E(r).r(x)/FMM algorithm (CHGder, D1EAlg=3).
                        Cavity 1st derivative terms included.
 Solvent              : Benzene, Eps=   2.270600 Eps(inf)=   2.253301
 ------------------------------------------------------------------------------
 Spheres list:
 ISph  on   Nord     Re0    Alpha      Xe            Ye            Ze
    1   C      1    1.9255  1.100     -0.729916      0.003290     -0.003538
    2   H      2    1.4430  1.100     -0.759172      0.031562     -1.073075
    3   H      3    1.4430  1.100     -0.760306     -0.937105      0.506068
    4   H      4    1.4430  1.100     -0.762132      0.915597      0.555046
    5  Cl      5    1.9735  1.100     -3.137175     -0.000907      0.000961
    6  Br      6    2.0945  1.100      1.714088     -0.000411      0.000482
 ------------------------------------------------------------------------------
 GePol: Number of generator spheres                  =       6
 GePol: Total number of spheres                      =       6
 GePol: Number of exposed spheres                    =       6 (100.00%)
 GePol: Number of points                             =     872
 GePol: Average weight of points                     =       0.16
 GePol: Minimum weight of points                     =   0.68D-07
 GePol: Maximum weight of points                     =    0.21616
 GePol: Number of points with low weight             =      26
 GePol: Fraction of low-weight points (<1% of avg)   =       2.98%
 GePol: Cavity surface area                          =    136.366 Ang**2
 GePol: Cavity volume                                =    119.776 Ang**3
 Leave Link  301 at Fri Oct 18 03:21:24 2019, MaxMem=   104857600 cpu:               3.1 elap:               0.2
 (Enter /share/home/wli/program/opt/Chem_soft/g16/l302.exe)
 NPDir=0 NMtPBC=     1 NCelOv=     1 NCel=       1 NClECP=     1 NCelD=      1
         NCelK=      1 NCelE2=     1 NClLst=     1 CellRange=     0.0.
 One-electron integrals computed using PRISM.
 One-electron integral symmetry used in STVInt
 PrsmSu:  requested number of processors reduced to:  13 ShMem   1 Linda.
   1 Symmetry operations used in ECPInt.
 ECPInt:  NShTT=    1378 NPrTT=    5593 LenC2=    1324 LenP2D=    4260.
 LDataN:  DoStor=T MaxTD1= 6 Len=  172
 NBasis=   134 RedAO= T EigKep=  1.43D-03  NBF=   134
 NBsUse=   134 1.00D-06 EigRej= -1.00D+00 NBFU=   134
 Precomputing XC quadrature grid using
 IXCGrd= 4 IRadAn=           5 IRanWt=          -1 IRanGd=           0 AccXCQ= 0.00D+00.
 Generated NRdTot=       0 NPtTot=           0 NUsed=           0 NTot=          32
 NSgBfM=   150   150   150   150   150 MxSgAt=     6 MxSgA2=     6.
 Leave Link  302 at Fri Oct 18 03:21:24 2019, MaxMem=   104857600 cpu:              11.9 elap:               0.5
 (Enter /share/home/wli/program/opt/Chem_soft/g16/l303.exe)
 DipDrv:  MaxL=1.
 Leave Link  303 at Fri Oct 18 03:21:24 2019, MaxMem=   104857600 cpu:               3.0 elap:               0.2
 (Enter /share/home/wli/program/opt/Chem_soft/g16/l401.exe)
 Initial guess from the checkpoint file:  "ts2_pcm_benzene_maugccpvtz.chk"
 B after Tr=     0.000000    0.000000    0.000000
         Rot=    0.614234    0.350318    0.612269   -0.353724 Ang= 104.21 deg.
 Guess basis will be translated and rotated to current coordinates.
 JPrj=2 DoOrth=T DoCkMO=T.
 Generating alternative initial guess.
 ExpMin= 9.52D-02 ExpMax= 5.65D+05 ExpMxC= 5.46D+03 IAcc=2 IRadAn=         4 AccDes= 0.00D+00
 Harris functional with IExCor=  402 and IRadAn=       4 diagonalized for initial guess.
 HarFok:  IExCor=  402 AccDes= 0.00D+00 IRadAn=         4 IDoV= 1 UseB2=F ITyADJ=14
 ICtDFT=  3500011 ScaDFX=  1.000000  1.000000  1.000000  1.000000
 FoFCou: FMM=F IPFlag=           0 FMFlag=      100000 FMFlg1=           0
         NFxFlg=           0 DoJE=T BraDBF=F KetDBF=T FulRan=T
         wScrn=  0.000000 ICntrl=       500 IOpCl=  0 I1Cent=   200000004 NGrid=           0
         NMat0=    1 NMatS0=      1 NMatT0=    0 NMatD0=    1 NMtDS0=    0 NMtDT0=    0
 Petite list used in FoFCou.
 Harris En= -3074.56968859993    
 Leave Link  401 at Fri Oct 18 03:21:25 2019, MaxMem=   104857600 cpu:              21.5 elap:               1.0
 (Enter /share/home/wli/program/opt/Chem_soft/g16/l502.exe)
 Keep R1 ints in memory in canonical form, NReq=64315121.
 FoFCou: FMM=F IPFlag=           0 FMFlag=           0 FMFlg1=           0
         NFxFlg=           0 DoJE=F BraDBF=F KetDBF=F FulRan=T
         wScrn=  0.000000 ICntrl=       600 IOpCl=  0 I1Cent=           0 NGrid=           0
         NMat0=    1 NMatS0=   9045 NMatT0=    0 NMatD0=    1 NMtDS0=    0 NMtDT0=    0
 Symmetry not used in FoFCou.
 Two-electron integral symmetry not used.
 Closed shell SCF:
 Using DIIS extrapolation, IDIIS=  1040.
 NGot=   104857600 LenX=    63896377 LenY=    63873135
 Requested convergence on RMS density matrix=1.00D-08 within 128 cycles.
 Requested convergence on MAX density matrix=1.00D-06.
 Requested convergence on             energy=1.00D-06.
 No special actions if energy rises.

 Cycle   1  Pass 1  IDiag  1:
 CoulSu:  requested number of processors reduced to:  17 ShMem   1 Linda.
 Inv3:  Mode=1 IEnd=     2281152.
 Iteration    1 A*A^-1 deviation from unit magnitude is 2.44D-15 for     59.
 Iteration    1 A*A^-1 deviation from orthogonality  is 1.73D-15 for    241      8.
 Iteration    1 A^-1*A deviation from unit magnitude is 2.00D-15 for     53.
 Iteration    1 A^-1*A deviation from orthogonality  is 1.10D-15 for    211    123.
 CoulSu:  requested number of processors reduced to:  17 ShMem   1 Linda.
 CoulSu:  requested number of processors reduced to:  17 ShMem   1 Linda.
 E= -3074.47253928737    
 DIIS: error= 1.37D-03 at cycle   1 NSaved=   1.
 NSaved= 1 IEnMin= 1 EnMin= -3074.47253928737     IErMin= 1 ErrMin= 1.37D-03
 ErrMax= 1.37D-03  0.00D+00 EMaxC= 1.00D-01 BMatC= 1.53D-04 BMatP= 1.53D-04
 IDIUse=3 WtCom= 9.86D-01 WtEn= 1.37D-02
 Coeff-Com:  0.100D+01
 Coeff-En:   0.100D+01
 Coeff:      0.100D+01
 Gap=     0.632 Goal=   None    Shift=    0.000
 GapD=    0.632 DampG=2.000 DampE=1.000 DampFc=2.0000 IDamp=-1.
 RMSDP=1.86D-04 MaxDP=3.84D-03              OVMax= 1.82D-02

 Cycle   2  Pass 1  IDiag  1:
 E= -3074.47280529000     Delta-E=       -0.000266002629 Rises=F Damp=F
 DIIS: error= 3.46D-04 at cycle   2 NSaved=   2.
 NSaved= 2 IEnMin= 2 EnMin= -3074.47280529000     IErMin= 2 ErrMin= 3.46D-04
 ErrMax= 3.46D-04  0.00D+00 EMaxC= 1.00D-01 BMatC= 2.24D-05 BMatP= 1.53D-04
 IDIUse=3 WtCom= 9.97D-01 WtEn= 3.46D-03
 Coeff-Com:  0.101D+00 0.899D+00
 Coeff-En:   0.000D+00 0.100D+01
 Coeff:      0.101D+00 0.899D+00
 Gap=     0.198 Goal=   None    Shift=    0.000
 RMSDP=1.04D-04 MaxDP=2.57D-03 DE=-2.66D-04 OVMax= 6.84D-03

 Cycle   3  Pass 1  IDiag  1:
 E= -3074.47279553055     Delta-E=        0.000009759448 Rises=F Damp=F
 DIIS: error= 4.33D-04 at cycle   3 NSaved=   3.
 NSaved= 3 IEnMin= 2 EnMin= -3074.47280529000     IErMin= 2 ErrMin= 3.46D-04
 ErrMax= 4.33D-04  0.00D+00 EMaxC= 1.00D-01 BMatC= 3.73D-05 BMatP= 2.24D-05
 IDIUse=3 WtCom= 3.24D-01 WtEn= 6.76D-01
 Coeff-Com: -0.197D-01 0.579D+00 0.441D+00
 Coeff-En:   0.000D+00 0.559D+00 0.441D+00
 Coeff:     -0.640D-02 0.566D+00 0.441D+00
 Gap=     0.198 Goal=   None    Shift=    0.000
 RMSDP=5.02D-05 MaxDP=1.39D-03 DE= 9.76D-06 OVMax= 4.27D-03

 Cycle   4  Pass 1  IDiag  1:
 E= -3074.47283801390     Delta-E=       -0.000042483343 Rises=F Damp=F
 DIIS: error= 3.88D-05 at cycle   4 NSaved=   4.
 NSaved= 4 IEnMin= 4 EnMin= -3074.47283801390     IErMin= 4 ErrMin= 3.88D-05
 ErrMax= 3.88D-05  0.00D+00 EMaxC= 1.00D-01 BMatC= 3.38D-07 BMatP= 2.24D-05
 IDIUse=1 WtCom= 1.00D+00 WtEn= 0.00D+00
 Coeff-Com: -0.128D-01 0.161D+00 0.136D+00 0.715D+00
 Coeff:     -0.128D-01 0.161D+00 0.136D+00 0.715D+00
 Gap=     0.198 Goal=   None    Shift=    0.000
 RMSDP=3.83D-06 MaxDP=9.36D-05 DE=-4.25D-05 OVMax= 3.78D-04

 Cycle   5  Pass 1  IDiag  1:
 E= -3074.47283818063     Delta-E=       -0.000000166736 Rises=F Damp=F
 DIIS: error= 1.62D-05 at cycle   5 NSaved=   5.
 NSaved= 5 IEnMin= 5 EnMin= -3074.47283818063     IErMin= 5 ErrMin= 1.62D-05
 ErrMax= 1.62D-05  0.00D+00 EMaxC= 1.00D-01 BMatC= 4.13D-08 BMatP= 3.38D-07
 IDIUse=1 WtCom= 1.00D+00 WtEn= 0.00D+00
 Coeff-Com: -0.421D-02 0.299D-01 0.356D-01 0.255D+00 0.683D+00
 Coeff:     -0.421D-02 0.299D-01 0.356D-01 0.255D+00 0.683D+00
 Gap=     0.198 Goal=   None    Shift=    0.000
 RMSDP=1.84D-06 MaxDP=5.75D-05 DE=-1.67D-07 OVMax= 1.59D-04

 Cycle   6  Pass 1  IDiag  1:
 E= -3074.47283820225     Delta-E=       -0.000000021618 Rises=F Damp=F
 DIIS: error= 1.28D-05 at cycle   6 NSaved=   6.
 NSaved= 6 IEnMin= 6 EnMin= -3074.47283820225     IErMin= 6 ErrMin= 1.28D-05
 ErrMax= 1.28D-05  0.00D+00 EMaxC= 1.00D-01 BMatC= 1.76D-08 BMatP= 4.13D-08
 IDIUse=1 WtCom= 1.00D+00 WtEn= 0.00D+00
 Coeff-Com: -0.449D-03-0.772D-02 0.300D-02 0.443D-01 0.417D+00 0.544D+00
 Coeff:     -0.449D-03-0.772D-02 0.300D-02 0.443D-01 0.417D+00 0.544D+00
 Gap=     0.198 Goal=   None    Shift=    0.000
 RMSDP=8.07D-07 MaxDP=1.77D-05 DE=-2.16D-08 OVMax= 8.42D-05

 Cycle   7  Pass 1  IDiag  1:
 E= -3074.47283822184     Delta-E=       -0.000000019587 Rises=F Damp=F
 DIIS: error= 1.79D-06 at cycle   7 NSaved=   7.
 NSaved= 7 IEnMin= 7 EnMin= -3074.47283822184     IErMin= 7 ErrMin= 1.79D-06
 ErrMax= 1.79D-06  0.00D+00 EMaxC= 1.00D-01 BMatC= 4.02D-10 BMatP= 1.76D-08
 IDIUse=1 WtCom= 1.00D+00 WtEn= 0.00D+00
 Coeff-Com:  0.871D-04-0.539D-02-0.604D-03 0.393D-02 0.116D+00 0.224D+00
 Coeff-Com:  0.662D+00
 Coeff:      0.871D-04-0.539D-02-0.604D-03 0.393D-02 0.116D+00 0.224D+00
 Coeff:      0.662D+00
 Gap=     0.198 Goal=   None    Shift=    0.000
 RMSDP=1.31D-07 MaxDP=2.66D-06 DE=-1.96D-08 OVMax= 9.33D-06

 Cycle   8  Pass 1  IDiag  1:
 E= -3074.47283822227     Delta-E=       -0.000000000428 Rises=F Damp=F
 DIIS: error= 2.59D-07 at cycle   8 NSaved=   8.
 NSaved= 8 IEnMin= 8 EnMin= -3074.47283822227     IErMin= 8 ErrMin= 2.59D-07
 ErrMax= 2.59D-07  0.00D+00 EMaxC= 1.00D-01 BMatC= 8.82D-12 BMatP= 4.02D-10
 IDIUse=1 WtCom= 1.00D+00 WtEn= 0.00D+00
 Coeff-Com:  0.360D-04-0.126D-02-0.114D-03 0.816D-03 0.146D-01 0.408D-01
 Coeff-Com:  0.186D+00 0.759D+00
 Coeff:      0.360D-04-0.126D-02-0.114D-03 0.816D-03 0.146D-01 0.408D-01
 Coeff:      0.186D+00 0.759D+00
 Gap=     0.198 Goal=   None    Shift=    0.000
 RMSDP=2.68D-08 MaxDP=8.57D-07 DE=-4.28D-10 OVMax= 8.97D-07

 Cycle   9  Pass 1  IDiag  1:
 E= -3074.47283822229     Delta-E=       -0.000000000021 Rises=F Damp=F
 DIIS: error= 5.26D-08 at cycle   9 NSaved=   9.
 NSaved= 9 IEnMin= 9 EnMin= -3074.47283822229     IErMin= 9 ErrMin= 5.26D-08
 ErrMax= 5.26D-08  0.00D+00 EMaxC= 1.00D-01 BMatC= 6.10D-13 BMatP= 8.82D-12
 IDIUse=1 WtCom= 1.00D+00 WtEn= 0.00D+00
 Coeff-Com:  0.540D-05-0.836D-04 0.342D-04 0.142D-04-0.182D-02-0.200D-02
 Coeff-Com:  0.485D-02 0.229D+00 0.770D+00
 Coeff:      0.540D-05-0.836D-04 0.342D-04 0.142D-04-0.182D-02-0.200D-02
 Coeff:      0.485D-02 0.229D+00 0.770D+00
 Gap=     0.198 Goal=   None    Shift=    0.000
 RMSDP=8.66D-09 MaxDP=3.32D-07 DE=-2.09D-11 OVMax= 3.53D-07

 CoulSu:  requested number of processors reduced to:  17 ShMem   1 Linda.
 CoulSu:  requested number of processors reduced to:  16 ShMem   1 Linda.
 Error on total polarization charges =  0.00939
 SCF Done:  E(RB3LYP) =  -3074.47283822     A.U. after    9 cycles
            NFock=  9  Conv=0.87D-08     -V/T= 2.0015
 KE= 3.069820907946D+03 PE=-7.700134775991D+03 EE= 1.382331651240D+03
 Leave Link  502 at Fri Oct 18 03:21:31 2019, MaxMem=   104857600 cpu:             115.3 elap:               5.4
 (Enter /share/home/wli/program/opt/Chem_soft/g16/l701.exe)
 ... and contract with generalized density number  0.
 Compute integral first derivatives.
 R6Disp: Adding Grimme-D3(BJ) dispersion energy 1st derivatives to the gradient.
 PrsmSu:  requested number of processors reduced to:  11 ShMem   1 Linda.
   1 Symmetry operations used in ECPInt.
 ECPInt:  NShTT=    1378 NPrTT=    5593 LenC2=    1324 LenP2D=    4260.
 LDataN:  DoStor=T MaxTD1= 7 Len=  274
 D1PCM: PCM CHGder 1st derivatives, ID1Alg=3 FixD1E=F DoIter=F DoCFld=F I1PDM=0.
 GePol: Maximum number of non-zero 1st derivatives   =     380
 CoulSu:  requested number of processors reduced to:  13 ShMem   1 Linda.
 CoulSu:  requested number of processors reduced to:  13 ShMem   1 Linda.
 Leave Link  701 at Fri Oct 18 03:21:32 2019, MaxMem=   104857600 cpu:              22.5 elap:               1.0
 (Enter /share/home/wli/program/opt/Chem_soft/g16/l702.exe)
 L702 exits ... SP integral derivatives will be done elsewhere.
 Leave Link  702 at Fri Oct 18 03:21:32 2019, MaxMem=   104857600 cpu:               1.1 elap:               0.1
 (Enter /share/home/wli/program/opt/Chem_soft/g16/l703.exe)
 Integral derivatives from FoFJK, PRISM(SPDF).
 Compute integral first derivatives, UseDBF=F ICtDFT=           0.
 Calling FoFJK, ICntrl=      2127 FMM=F ISym2X=0 I1Cent= 0 IOpClX= 0 NMat=1 NMatS=1 NMatT=0.
 FoFJK:  IHMeth= 1 ICntrl=    2127 DoSepK=F KAlg= 0 I1Cent=           0 FoldK=F
 IRaf=         0 NMat=       1 IRICut=       1 DoRegI=T DoRafI=F ISym2E= 0 IDoP0=0 IntGTp=1.
 FoFCou: FMM=F IPFlag=           0 FMFlag=      100000 FMFlg1=         800
         NFxFlg=           0 DoJE=F BraDBF=F KetDBF=F FulRan=T
         wScrn=  0.000000 ICntrl=      2127 IOpCl=  0 I1Cent=           0 NGrid=           0
         NMat0=    1 NMatS0=      1 NMatT0=    0 NMatD0=    1 NMtDS0=    0 NMtDT0=    0
 Symmetry not used in FoFCou.
 Leave Link  703 at Fri Oct 18 03:21:33 2019, MaxMem=   104857600 cpu:              34.1 elap:               1.5
 (Enter /share/home/wli/program/opt/Chem_soft/g16/l716.exe)
 Dipole        = 1.52577697D+00 3.07548430D-03-2.09661551D-03
 ***** Axes restored to original set *****
 -------------------------------------------------------------------
 Center     Atomic                   Forces (Hartrees/Bohr)
 Number     Number              X              Y              Z
 -------------------------------------------------------------------
      1        6           0.000122306   -0.000134351   -0.000048955
      2        1           0.000174069    0.000020752   -0.000030827
      3        1          -0.000061909    0.000043097   -0.000001160
      4        1          -0.000151430    0.000215475    0.000005106
      5       17          -0.000082670   -0.000090213    0.000012146
      6       35          -0.000000365   -0.000054761    0.000063690
 -------------------------------------------------------------------
 Cartesian Forces:  Max     0.000215475 RMS     0.000095551
 Leave Link  716 at Fri Oct 18 03:21:33 2019, MaxMem=   104857600 cpu:               1.1 elap:               0.1
 (Enter /share/home/wli/program/opt/Chem_soft/g16/l103.exe)

 GradGradGradGradGradGradGradGradGradGradGradGradGradGradGradGradGradGrad
 Berny optimization.
 Using GDIIS optimizer.
 FormGI is forming the generalized inverse of G from B-inverse, IUseBI=4.
 Internal  Forces:  Max     0.000230750 RMS     0.000095061
 Search for a saddle point.
 Step number   2 out of a maximum of   50
 All quantities printed in internal units (Hartrees-Bohrs-Radians)
 Swapping is turned off.
 Update second derivatives using D2CorX and points    1    2
 ITU=  0  0
     Eigenvalues ---   -0.01462   0.02955   0.03016   0.03547   0.04296
     Eigenvalues ---    0.05067   0.05436   0.05984   0.06259   0.38908
     Eigenvalues ---    0.38991   0.39255
 Eigenvectors required to have negative eigenvalues:
                          R4        R5        D1        A8        A9
   1                   -0.58353   0.56354   0.47436   0.15805  -0.15469
                          A6        A7        A4        A3        A2
   1                    0.15101  -0.13502  -0.12216   0.10275   0.02171
 DIIS coeff's:      0.94069      0.05931
 Cosine:  1.000 >  0.500
 Length:  1.000
 GDIIS step was calculated using  2 of the last  2 vectors.
 Iteration  1 RMS(Cart)=  0.00382856 RMS(Int)=  0.00001905
 Iteration  2 RMS(Cart)=  0.00000664 RMS(Int)=  0.00001783
 Iteration  3 RMS(Cart)=  0.00000000 RMS(Int)=  0.00001783
 ITry= 1 IFail=0 DXMaxC= 1.08D-02 DCOld= 1.00D+10 DXMaxT= 3.00D-01 DXLimC= 3.00D+00 Rises=F
 Variable       Old X    -DE/DX   Delta X   Delta X   Delta X     New X
                                 (Linear)    (Quad)   (Total)
    R1        2.02259   0.00000  -0.00006  -0.00016  -0.00022   2.02237
    R2        2.02206   0.00004  -0.00003   0.00042   0.00038   2.02245
    R3        2.02241   0.00001  -0.00005   0.00003  -0.00003   2.02239
    R4        4.54907  -0.00008   0.00383  -0.00104   0.00279   4.55187
    R5        4.61851   0.00000  -0.00292  -0.00123  -0.00414   4.61437
    A1        2.09249  -0.00001  -0.00015  -0.00013  -0.00022   2.09227
    A2        2.09234   0.00006  -0.00014   0.00186   0.00176   2.09410
    A3        1.54537  -0.00023  -0.00150  -0.00467  -0.00617   1.53921
    A4        1.59982   0.00011   0.00128   0.00083   0.00210   1.60192
    A5        2.09410  -0.00005  -0.00025  -0.00162  -0.00182   2.09229
    A6        1.53997   0.00016  -0.00118   0.00430   0.00313   1.54310
    A7        1.59709   0.00006   0.00144   0.00093   0.00237   1.59945
    A8        1.54120   0.00009  -0.00123   0.00152   0.00030   1.54150
    A9        1.60134  -0.00018   0.00119  -0.00293  -0.00173   1.59960
   A10        3.14519  -0.00012  -0.00022  -0.00384  -0.00406   3.14113
   A11        3.14476  -0.00018  -0.00017  -0.00383  -0.00400   3.14076
    D1        3.04253   0.00002  -0.00449   0.00133  -0.00316   3.03936
    D2        2.09385  -0.00000   0.00004  -0.00009  -0.00007   2.09379
    D3       -2.09381  -0.00000  -0.00004   0.00004  -0.00000  -2.09381
    D4       -2.09365  -0.00006  -0.00004  -0.00202  -0.00206  -2.09571
    D5        2.09387   0.00005   0.00003   0.00176   0.00178   2.09566
    D6        2.09569  -0.00006  -0.00008  -0.00192  -0.00200   2.09369
    D7       -2.09550   0.00005   0.00007   0.00171   0.00179  -2.09371
         Item               Value     Threshold  Converged?
 Maximum Force            0.000231     0.000450     YES
 RMS     Force            0.000095     0.000300     YES
 Maximum Displacement     0.010794     0.001800     NO 
 RMS     Displacement     0.003830     0.001200     NO 
 Predicted change in Energy=-2.084793D-06
 GradGradGradGradGradGradGradGradGradGradGradGradGradGradGradGradGradGrad

[...]
     14  0.539849D-04 -0.120955D-01  0.129191D-03 -0.525965D-02  0.201727D-02
     15 -0.163208D-03 -0.270212D-04 -0.120221D-01 -0.336351D-02  0.116370D-02
     16  0.359666D-01 -0.700300D-03  0.217529D-03 -0.146669D-01 -0.271484D-02
     17 -0.557142D-03 -0.125239D-01  0.404184D-03  0.579183D-02  0.303844D-02
     18  0.335671D-03  0.397561D-03 -0.119609D-01  0.332918D-02  0.158364D-02
                6             7             8             9            10 
      6  0.125049D+00
      7 -0.506640D-03  0.321748D-01
      8  0.141072D-01  0.682874D-02  0.296507D+00
      9  0.104288D-01 -0.441308D-02 -0.154104D+00  0.139195D+00
     10  0.982242D-03  0.261607D-02  0.306722D-04  0.955552D-03  0.306251D-01
     11 -0.234810D-01  0.825450D-03  0.535909D-02  0.228762D-01 -0.103438D-02
     12 -0.585046D-02 -0.516460D-03 -0.411061D-02 -0.682152D-02  0.990671D-02
     13  0.391590D-03 -0.137353D-01 -0.105845D-02  0.802876D-03 -0.135002D-01
     14  0.110683D-02  0.576913D-02  0.831268D-03 -0.616210D-03  0.403576D-03
     15  0.631649D-03 -0.347077D-02 -0.571408D-03  0.253643D-03  0.577423D-02
     16 -0.135495D-02 -0.152603D-01  0.244806D-02 -0.141380D-02 -0.137298D-01
     17  0.162819D-02 -0.589315D-02  0.182703D-02 -0.134227D-02  0.288699D-03
     18  0.775264D-03  0.366726D-02 -0.135708D-02  0.857632D-03 -0.729205D-02
               11            12            13            14            15 
     11  0.440337D-01
     12  0.930046D-02  0.387948D+00
     13  0.131897D-04 -0.213023D-02  0.277783D-01
     14  0.584765D-03  0.310901D-03 -0.988539D-03  0.710104D-02
     15  0.366167D-03  0.196961D-02  0.119198D-02 -0.922904D-03  0.763408D-02
     16  0.564733D-03  0.254550D-02 -0.235829D-01  0.215018D-04  0.312760D-04
     17  0.755746D-04 -0.250389D-03 -0.110693D-04  0.156118D-02 -0.853006D-05
     18 -0.185140D-03  0.475700D-02 -0.145186D-04 -0.780377D-05  0.153311D-02
               16            17            18 
     16  0.312733D-01
     17  0.380838D-03  0.602163D-02
     18 -0.255475D-04 -0.431181D-03  0.403785D-02
 FormGI is forming the generalized inverse of G from B-inverse, IUseBI=4.
 Force constants in internal coordinates: 
                1             2             3             4             5 
      1  0.389610D+00
      2 -0.146117D-03  0.391042D+00
      3 -0.135314D-03 -0.153133D-03  0.388463D+00
      4 -0.263870D-02 -0.169418D-02 -0.251277D-02  0.277746D-01
      5 -0.261539D-02 -0.240802D-02 -0.217255D-02  0.235827D-01  0.312723D-01
      6  0.149226D-02  0.175275D-02 -0.330455D-02  0.123131D-03 -0.327060D-03
      7  0.184824D-02 -0.331009D-02  0.170511D-02  0.743964D-03 -0.659743D-03
      8 -0.374517D-02  0.101962D-02  0.223618D-02  0.481995D-02 -0.521496D-02
      9 -0.476546D-02  0.138248D-02  0.203189D-02 -0.525075D-02  0.477635D-02
     10 -0.329148D-02  0.163366D-02  0.164702D-02  0.489726D-03 -0.450236D-03
     11  0.210422D-02 -0.138467D-02  0.209475D-02  0.583602D-02 -0.536776D-02
     12  0.216125D-02 -0.380396D-02  0.234017D-02 -0.384042D-02  0.585490D-02
     13  0.214691D-02  0.115526D-02 -0.384416D-02  0.334873D-02 -0.425082D-02
     14  0.209483D-02  0.164273D-02 -0.486994D-02 -0.491600D-02  0.420252D-02
     15 -0.851062D-02  0.240210D-02  0.426807D-02 -0.430803D-03 -0.438607D-03
     16 -0.471763D-05  0.460849D-02 -0.759756D-02 -0.205772D-02 -0.308626D-03
     17  0.665128D-03  0.100328D-02  0.379526D-03  0.161040D-01 -0.170672D-01
     18  0.157526D-02  0.177350D-02 -0.352262D-02 -0.400159D-03  0.192303D-03
     19 -0.137769D-02 -0.163635D-02  0.310272D-02  0.304755D-03 -0.175481D-03
     20 -0.192640D-02  0.342003D-02 -0.178696D-02 -0.352004D-03  0.205018D-03
     21  0.171512D-02 -0.316307D-02  0.156623D-02  0.232015D-03 -0.207556D-03
     22 -0.350166D-02  0.164653D-02  0.173566D-02  0.481550D-04  0.127149D-04
     23  0.309282D-02 -0.152672D-02 -0.153649D-02 -0.727398D-04 -0.320744D-04
                6             7             8             9            10 
      6  0.690603D-02
      7 -0.351058D-02  0.692394D-02
      8  0.296472D-03  0.887328D-03  0.274311D-01
      9 -0.381414D-03 -0.740416D-03 -0.152998D-01  0.284465D-01
     10 -0.339815D-02 -0.333855D-02 -0.758408D-03  0.680907D-03  0.678346D-02
     11  0.570443D-03 -0.897351D-03 -0.121115D-01  0.504546D-02  0.786764D-03
     12 -0.514262D-03  0.795388D-03  0.512577D-02 -0.127190D-01 -0.667648D-03
     13 -0.891242D-03  0.780889D-03 -0.109226D-01  0.570028D-02  0.452105D-03
     14  0.933090D-03 -0.841552D-03  0.577941D-02 -0.111696D-01 -0.491258D-03
     15 -0.849419D-04  0.146912D-03  0.121312D-01  0.131467D-01 -0.775013D-04
     16 -0.787108D-05  0.287234D-04  0.105356D-02  0.126508D-02 -0.966987D-04
     17  0.354363D-03  0.691502D-03  0.506344D-02 -0.525245D-02  0.364267D-03
     18  0.687454D-02 -0.351573D-02 -0.455605D-03  0.121711D-03 -0.340500D-02
     19 -0.687388D-02  0.351183D-02  0.165272D-03 -0.323901D-03  0.340378D-02
     20  0.348701D-02 -0.685432D-02 -0.104440D-03  0.285145D-03  0.332931D-02
     21 -0.348897D-02  0.685587D-02  0.403837D-03  0.138750D-03 -0.333440D-02
     22 -0.338752D-02 -0.333859D-02  0.351165D-03  0.163434D-03  0.673431D-02
     23  0.338490D-02  0.334405D-02  0.238565D-03  0.462650D-03 -0.673818D-02
               11            12            13            14            15 
     11  0.285172D-01
     12 -0.142808D-01  0.292762D-01
     13 -0.116797D-01  0.517505D-02  0.261445D-01
     14  0.449894D-02 -0.125880D-01 -0.144112D-01  0.278992D-01
     15 -0.706603D-02 -0.759322D-02 -0.522231D-02 -0.539023D-02  0.252779D-01
     16 -0.123637D-01 -0.129371D-01  0.105380D-01  0.124650D-01  0.231864D-02
     17  0.548753D-02 -0.461436D-02  0.400464D-02 -0.469004D-02 -0.189011D-03
     18 -0.234629D-03 -0.653198D-04  0.217692D-03  0.429654D-03 -0.333894D-03
     19 -0.117852D-03 -0.304484D-03  0.379448D-03  0.188750D-03 -0.158628D-03
     20 -0.247303D-03 -0.300351D-03 -0.380845D-04  0.421193D-03  0.180706D-03
     21 -0.417029D-03 -0.480594D-03  0.346829D-03 -0.690438D-05  0.542587D-03
     22 -0.126741D-04 -0.235032D-03 -0.255777D-03 -0.846179D-05  0.514600D-03
     23 -0.299177D-03 -0.176110D-03 -0.326194D-04 -0.195655D-03  0.701215D-03
               16            17            18            19            20 
     16  0.278962D-01
     17 -0.900268D-03  0.167495D-01
     18  0.547754D-03 -0.163397D-03  0.691949D-02
     19  0.571807D-03  0.110501D-03 -0.688725D-02  0.691375D-02
     20  0.532402D-03 -0.256013D-03  0.350990D-02 -0.349096D-02  0.685807D-02
     21  0.719381D-03  0.190735D-03 -0.349393D-02  0.351086D-02 -0.683033D-02
     22 -0.153519D-04 -0.926154D-04 -0.340959D-02  0.339630D-02  0.334818D-02
     23  0.147574D-03  0.802345D-04  0.339332D-02 -0.340290D-02 -0.333938D-02
               21            22            23 
     21  0.687420D-02
     22 -0.333640D-02  0.675777D-02
     23  0.336334D-02 -0.673270D-02  0.676624D-02
 Leave Link  716 at Fri Oct 18 03:25:16 2019, MaxMem=   104857600 cpu:               6.1 elap:               0.3
 (Enter /share/home/wli/program/opt/Chem_soft/g16/l103.exe)

 GradGradGradGradGradGradGradGradGradGradGradGradGradGradGradGradGradGrad
 Berny optimization.
 Red2BG is reusing G-inverse.
 Internal  Forces:  Max     0.000321904 RMS     0.000115123
 Search for a saddle point.
 Step number   1 out of a maximum of    2
 All quantities printed in internal units (Hartrees-Bohrs-Radians)
 Swapping is turned off.
 Second derivative matrix not updated -- analytic derivatives used.
 ITU=  0
     Eigenvalues ---   -0.01480   0.03004   0.03076   0.04098   0.04475
     Eigenvalues ---    0.05073   0.05429   0.05920   0.06103   0.38887
     Eigenvalues ---    0.39022   0.39145
 Eigenvectors required to have negative eigenvalues:
                          R4        R5        D1        A6        A7
   1                   -0.58423   0.56424   0.47524   0.14457  -0.14022
                          A3        A4        A9        A8        A2
   1                    0.13944  -0.13684  -0.13591   0.12895   0.01514
 Angle between quadratic step and forces=  31.69 degrees.
 Linear search not attempted -- option 19 set.
 Iteration  1 RMS(Cart)=  0.00368282 RMS(Int)=  0.00000755
 Iteration  2 RMS(Cart)=  0.00000702 RMS(Int)=  0.00000289
 Iteration  3 RMS(Cart)=  0.00000000 RMS(Int)=  0.00000289
 ITry= 1 IFail=0 DXMaxC= 1.06D-02 DCOld= 1.00D+10 DXMaxT= 3.00D-01 DXLimC= 3.00D+00 Rises=F
 Variable       Old X    -DE/DX   Delta X   Delta X   Delta X     New X
                                 (Linear)    (Quad)   (Total)
    R1        2.02254   0.00000   0.00000  -0.00023  -0.00023   2.02231
    R2        2.02260  -0.00011   0.00000  -0.00015  -0.00015   2.02245
    R3        2.02267  -0.00010   0.00000  -0.00028  -0.00028   2.02239
    R4        4.54974  -0.00014   0.00000  -0.00017  -0.00017   4.54957
    R5        4.62134  -0.00000   0.00000  -0.00300  -0.00300   4.61835
    A1        2.09369   0.00003   0.00000   0.00083   0.00083   2.09452
    A2        2.09214   0.00000   0.00000  -0.00002  -0.00002   2.09212
    A3        1.54246   0.00003   0.00000  -0.00088  -0.00088   1.54158
    A4        1.59959  -0.00024   0.00000  -0.00365  -0.00365   1.59594
    A5        2.09328  -0.00003   0.00000  -0.00109  -0.00109   2.09219
    A6        1.54246  -0.00004   0.00000  -0.00085  -0.00085   1.54161
    A7        1.59649   0.00032   0.00000   0.00650   0.00650   1.60299
    A8        1.54346  -0.00002   0.00000  -0.00112  -0.00112   1.54234
    A9        1.60032  -0.00005   0.00000  -0.00001  -0.00001   1.60031
   A10        3.14205  -0.00022   0.00000  -0.00452  -0.00452   3.13752
   A11        3.14438  -0.00021   0.00000  -0.00391  -0.00391   3.14047
    D1        3.04472  -0.00003   0.00000  -0.00323  -0.00322   3.04149
    D2        2.09508   0.00003   0.00000   0.00091   0.00092   2.09600
    D3       -2.09497  -0.00003   0.00000  -0.00097  -0.00097  -2.09594
    D4       -2.09348  -0.00000   0.00000  -0.00008  -0.00008  -2.09356
    D5        2.09361  -0.00001   0.00000  -0.00020  -0.00020   2.09341
    D6        2.09463  -0.00003   0.00000  -0.00099  -0.00100   2.09363
    D7       -2.09460   0.00002   0.00000   0.00077   0.00076  -2.09384
         Item               Value     Threshold  Converged?
 Maximum Force            0.000322     0.000450     YES
 RMS     Force            0.000115     0.000300     YES
 Maximum Displacement     0.010632     0.001800     NO 
 RMS     Displacement     0.003681     0.001200     NO 
 Predicted change in Energy=-2.561996D-06
                           ----------------------------
                           ! Non-Optimized Parameters !
                           ! (Angstroms and Degrees)  !
 --------------------------                            --------------------------
 ! Name  Definition              Value          Derivative Info.                !
 --------------------------------------------------------------------------------
 ! R1    R(1,2)                  1.0702         -DE/DX =    0.0                 !
 ! R2    R(1,3)                  1.0702         -DE/DX =   -0.0001              !
 ! R3    R(1,4)                  1.0702         -DE/DX =   -0.0001              !
 ! R4    R(1,5)                  2.4075         -DE/DX =   -0.0001              !
 ! R5    R(1,6)                  2.4439         -DE/DX =    0.0                 !
 ! A1    A(2,1,3)              120.0071         -DE/DX =    0.0                 !
 ! A2    A(2,1,4)              119.8698         -DE/DX =    0.0                 !
 ! A3    A(2,1,5)               88.3262         -DE/DX =    0.0                 !
 ! A4    A(2,1,6)               91.4407         -DE/DX =   -0.0002              !
 ! A5    A(3,1,4)              119.8738         -DE/DX =    0.0                 !
 ! A6    A(3,1,5)               88.328          -DE/DX =    0.0                 !
 ! A7    A(3,1,6)               91.8446         -DE/DX =    0.0003              !
 ! A8    A(4,1,5)               88.3696         -DE/DX =    0.0                 !
 ! A9    A(4,1,6)               91.691          -DE/DX =   -0.0001              !
 ! A10   L(5,1,6,2,-1)         179.7669         -DE/DX =   -0.0002              !
 ! A11   L(5,1,6,2,-2)         179.9356         -DE/DX =   -0.0002              !
 ! D1    D(2,1,4,3)            174.2647         -DE/DX =    0.0                 !
 ! D2    D(2,1,5,3)            120.0918         -DE/DX =    0.0                 !
 ! D3    D(2,1,6,3)           -120.0883         -DE/DX =    0.0                 !
 ! D4    D(2,1,5,4)           -119.9522         -DE/DX =    0.0                 !
 ! D5    D(2,1,6,4)            119.9436         -DE/DX =    0.0                 !
 ! D6    D(3,1,5,4)            119.9561         -DE/DX =    0.0                 !
 ! D7    D(3,1,6,4)           -119.968          -DE/DX =    0.0                 !
 --------------------------------------------------------------------------------
 GradGradGradGradGradGradGradGradGradGradGradGradGradGradGradGradGradGrad

 Leave Link  103 at Fri Oct 18 03:25:17 2019, MaxMem=   104857600 cpu:              15.5 elap:               0.7
 (Enter /share/home/wli/program/opt/Chem_soft/g16/l9999.exe)

 ----------------------------------------------------------------------

 Electric dipole moment (input orientation):
 (Debye = 10**-18 statcoulomb cm , SI units = C m)
                  (au)            (Debye)         (10**-30 SI)
   Tot        0.152234D+01      0.386941D+01      0.129070D+02
   x         -0.152234D+01     -0.386940D+01     -0.129069D+02
   y         -0.227906D-02     -0.579279D-02     -0.193227D-01
   z          0.314007D-02      0.798126D-02      0.266226D-01

 Dipole polarizability, Alpha (input orientation).
 (esu units = cm**3 , SI units = C**2 m**2 J**-1)
 Alpha(0;0):
               (au)            (10**-24 esu)      (10**-40 SI)
   iso        0.813294D+02      0.120518D+02      0.134094D+02
   aniso      0.113917D+03      0.168808D+02      0.187824D+02
   xx         0.157274D+03      0.233056D+02      0.259310D+02
   yx        -0.226470D-01     -0.335594D-02     -0.373399D-02
   yy         0.433657D+02      0.642613D+01      0.715003D+01
   zx         0.980177D-02      0.145247D-02      0.161609D-02
   zy        -0.305999D-02     -0.453443D-03     -0.504523D-03
   zz         0.433482D+02      0.642354D+01      0.714716D+01

 ----------------------------------------------------------------------

 Dipole orientation:
     6          0.00467525         -0.00319627         -1.37303848
     1         -0.95492252         -1.78268782         -1.42997122
     1         -1.05534906          1.71835072         -1.43260798
     1          2.02584196          0.05356338         -1.42641963
    17          0.00906449         -0.00650348         -5.92277261
    35         -0.01011952          0.00813320          3.24826686

 Electric dipole moment (dipole orientation):
 (Debye = 10**-18 statcoulomb cm , SI units = C m)
                  (au)            (Debye)         (10**-30 SI)
   Tot        0.152234D+01      0.386941D+01      0.129070D+02
   x          0.000000D+00      0.000000D+00      0.000000D+00
   y          0.000000D+00      0.000000D+00      0.000000D+00
   z          0.152234D+01      0.386941D+01      0.129070D+02

 Dipole polarizability, Alpha (dipole orientation).
 (esu units = cm**3 , SI units = C**2 m**2 J**-1)
 Alpha(0;0):
               (au)            (10**-24 esu)      (10**-40 SI)
   iso        0.813294D+02      0.120518D+02      0.134094D+02
   aniso      0.113917D+03      0.168808D+02      0.187824D+02
   xx         0.433488D+02      0.642362D+01      0.714724D+01
   yx        -0.349889D-02     -0.518483D-03     -0.576890D-03
   yy         0.433660D+02      0.642617D+01      0.715008D+01
   zx        -0.245075D+00     -0.363164D-01     -0.404074D-01
   zy         0.192803D+00      0.285705D-01      0.317890D-01
   zz         0.157273D+03      0.233055D+02      0.259309D+02

 ----------------------------------------------------------------------
 1\1\GINC-C37N06\Freq\RB3LYP\def2TZVP\C1H3Br1Cl1(1-)\ROOT\18-Oct-2019\0
 \\#P Geom=AllCheck Guess=TCheck SCRF=Check GenChk RB3LYP/def2TZVP Freq
 \\Title Card Required\\-1,1\C,0.726585947,-0.0006073401,0.0009728082\H
 ,0.7570716504,-0.9414678676,-0.508294698\H,0.7555893601,0.911279284,-0
 .5586672574\H,0.7569975879,0.0278728921,1.0705113973\Cl,3.1342011583,0
 .0012434671,-0.0016732083\Br,-1.7189207036,0.0017385645,-0.0018030417\
 \Version=ES64L-G16RevA.03\State=1-A\HF=-3074.4728558\RMSD=3.067e-09\RM
 SF=1.158e-04\ZeroPoint=0.0365722\Thermal=0.041383\Dipole=-1.5223393,-0
 .0022791,0.0031401\DipoleDeriv=3.8735296,0.0016689,-0.0015992,-0.00365
 45,0.0339824,-0.0002559,0.0023437,0.0024822,0.0341871,-0.2120816,0.003
 0023,0.0011403,-0.0177782,0.0696023,-0.0011003,-0.0118693,0.0014321,0.
 0749623,-0.215525,-0.0064391,0.0038247,0.0207914,0.0704532,0.002265,-0
 .0129251,0.001133,0.074592,-0.2118869,-0.0005978,-0.004436,0.0001668,0
 .0747431,0.0004293,0.0219448,-0.0031761,0.0736642,-2.1880266,-0.002123
 1,0.0022852,0.0002276,-0.6518468,0.0005946,0.0022151,0.0005017,-0.6535
 372,-2.0460095,0.0044888,-0.001215,0.0002469,-0.5969341,-0.0019326,-0.
 0017091,-0.002373,-0.6038685\Polar=157.2743121,-0.022647,43.3656533,0.
 0098018,-0.00306,43.3482153\Quadrupole=-20.8655972,10.4330719,10.43252
 53,-0.0012786,0.0046651,-0.0006795\PG=C01 [X(C1H3Br1Cl1)]\NImag=1\\-0.
 04725168,-0.00064650,0.68018141,0.00039634,-0.00046205,0.68093321,-0.0
 0904731,0.00973244,0.00471483,0.03281282,0.00807205,-0.30856668,-0.137
 23019,-0.00856899,0.31109305,0.00422835,-0.13720649,-0.13103419,-0.003
 74060,0.14384531,0.12504894,-0.00839958,-0.00837554,0.00523969,0.00260
 435,0.00084538,-0.00050664,0.03217477,-0.00741485,-0.29261261,0.146035
 51,-0.00083417,-0.01191170,0.01410720,0.00682874,0.29650691,0.00452409
 ,0.14606402,-0.14391358,-0.00045563,-0.01287812,0.01042880,-0.00441308
 ,-0.15410361,0.13919503,-0.00866192,0.00026998,-0.01032669,0.00265074,
 0.00004145,0.00098224,0.00261607,0.00003067,0.00095555,0.03062508,0.00
 049246,-0.05438275,-0.00887664,-0.00086146,0.00432963,-0.02348104,0.00
 082545,0.00535909,0.02287619,-0.00103438,0.04403369,-0.00932124,-0.008
 76602,-0.38200248,-0.00048428,0.00351566,-0.00585046,-0.00051646,-0.00
 411061,-0.00682152,0.00990671,0.00930046,0.38794786,0.03739385,-0.0002
 8008,-0.00024170,-0.01435368,0.00232495,0.00039159,-0.01373535,-0.0010
 5845,0.00080288,-0.01350019,0.00001319,-0.00213023,0.02777826,0.000053
 98,-0.01209552,0.00012919,-0.00525965,0.00201727,0.00110683,0.00576913
 ,0.00083127,-0.00061621,0.00040358,0.00058477,0.00031090,-0.00098854,0
 .00710104,-0.00016321,-0.00002702,-0.01202210,-0.00336351,0.00116370,0
 .00063165,-0.00347077,-0.00057141,0.00025364,0.00577423,0.00036617,0.0
 0196961,0.00119198,-0.00092290,0.00763408,0.03596663,-0.00070030,0.000
 21753,-0.01466693,-0.00271484,-0.00135495,-0.01526027,0.00244806,-0.00
 141380,-0.01372979,0.00056473,0.00254550,-0.02358290,0.00002150,0.0000
 3128,0.03127325,-0.00055714,-0.01252385,0.00040418,0.00579183,0.003038
 44,0.00162819,-0.00589315,0.00182703,-0.00134227,0.00028870,0.00007557
 ,-0.00025039,-0.00001107,0.00156118,-0.00000853,0.00038084,0.00602163,
 0.00033567,0.00039756,-0.01196086,0.00332918,0.00158364,0.00077526,0.0
 0366726,-0.00135708,0.00085763,-0.00729205,-0.00018514,0.00475700,-0.0
 0001452,-0.00000780,0.00153311,-0.00002555,-0.00043118,0.00403785\\-0.
 00007019,-0.00026104,0.00013268,0.00013834,0.00005019,-0.00008345,-0.0
 0021001,0.00008502,-0.00009012,0.00000894,-0.00009312,0.00009933,0.000
 13559,0.00010284,-0.00002743,-0.00000267,0.00011611,-0.00003100\\\@


 Make no judgements where you have no compassion.
                               -- Anne McCaffrey
 Job cpu time:       0 days  0 hours 10 minutes 32.1 seconds.
 Elapsed time:       0 days  0 hours  0 minutes 30.3 seconds.
 File lengths (MBytes):  RWF=    272 Int=      0 D2E=      0 Chk=     32 Scr=     32
 Normal termination of Gaussian 16 at Fri Oct 18 03:25:17 2019.
