 Entering Gaussian System, Link 0=g16
 Input=ts_def2tzvp_scrf_pcm_dichloromethane.gjf
 Output=ts_def2tzvp_scrf_pcm_dichloromethane.log
 Initial command:
 /share/home/wli/program/opt/Chem_soft/g16/l1.exe "/scratch/wli/Gau-4030.inp" -scrdir="/scratch/wli/"
 Entering Link 1 = /share/home/wli/program/opt/Chem_soft/g16/l1.exe PID=      4031.
  
 Copyright (c) 1988,1990,1992,1993,1995,1998,2003,2009,2016,
            Gaussian, Inc.  All Rights Reserved.
  
 This is part of the Gaussian(R) 16 program.  It is based on
 the Gaussian(R) 09 system (copyright 2009, Gaussian, Inc.),
 the Gaussian(R) 03 system (copyright 2003, Gaussian, Inc.),
 the Gaussian(R) 98 system (copyright 1998, Gaussian, Inc.),
 the Gaussian(R) 94 system (copyright 1995, Gaussian, Inc.),
 the Gaussian 92(TM) system (copyright 1992, Gaussian, Inc.),
 the Gaussian 90(TM) system (copyright 1990, Gaussian, Inc.),
 the Gaussian 88(TM) system (copyright 1988, Gaussian, Inc.),
 the Gaussian 86(TM) system (copyright 1986, Carnegie Mellon
 University), and the Gaussian 82(TM) system (copyright 1983,
 Carnegie Mellon University). Gaussian is a federally registered
 trademark of Gaussian, Inc.
  
 This software contains proprietary and confidential information,
 including trade secrets, belonging to Gaussian, Inc.
  
 This software is provided under written license and may be
 used, copied, transmitted, or stored only in accord with that
 written license.
  
 The following legend is applicable only to US Government
 contracts under FAR:
  
                    RESTRICTED RIGHTS LEGEND
  
 Use, reproduction and disclosure by the US Government is
 subject to restrictions as set forth in subparagraphs (a)
 and (c) of the Commercial Computer Software - Restricted
 Rights clause in FAR 52.227-19.
  
 Gaussian, Inc.
 340 Quinnipiac St., Bldg. 40, Wallingford CT 06492
  
  
 ---------------------------------------------------------------
 Warning -- This program may not be used in any manner that
 competes with the business of Gaussian, Inc. or will provide
 assistance to any competitor of Gaussian, Inc.  The licensee
 of this program is prohibited from giving any competitor of
 Gaussian, Inc. access to this program.  By using this program,
 the user acknowledges that Gaussian, Inc. is engaged in the
 business of creating and licensing software in the field of
 computational chemistry and represents and warrants to the
 licensee that it is not a competitor of Gaussian, Inc. and that
 it will not use this program in any manner prohibited above.
 ---------------------------------------------------------------
  

 Cite this work as:
 Gaussian 16, Revision A.03,
 M. J. Frisch, G. W. Trucks, H. B. Schlegel, G. E. Scuseria, 
 M. A. Robb, J. R. Cheeseman, G. Scalmani, V. Barone, 
 G. A. Petersson, H. Nakatsuji, X. Li, M. Caricato, A. V. Marenich, 
 J. Bloino, B. G. Janesko, R. Gomperts, B. Mennucci, H. P. Hratchian, 
 J. V. Ortiz, A. F. Izmaylov, J. L. Sonnenberg, D. Williams-Young, 
 F. Ding, F. Lipparini, F. Egidi, J. Goings, B. Peng, A. Petrone, 
 T. Henderson, D. Ranasinghe, V. G. Zakrzewski, J. Gao, N. Rega, 
 G. Zheng, W. Liang, M. Hada, M. Ehara, K. Toyota, R. Fukuda, 
 J. Hasegawa, M. Ishida, T. Nakajima, Y. Honda, O. Kitao, H. Nakai, 
 T. Vreven, K. Throssell, J. A. Montgomery, Jr., J. E. Peralta, 
 F. Ogliaro, M. J. Bearpark, J. J. Heyd, E. N. Brothers, K. N. Kudin, 
 V. N. Staroverov, T. A. Keith, R. Kobayashi, J. Normand, 
 K. Raghavachari, A. P. Rendell, J. C. Burant, S. S. Iyengar, 
 J. Tomasi, M. Cossi, J. M. Millam, M. Klene, C. Adamo, R. Cammi, 
 J. W. Ochterski, R. L. Martin, K. Morokuma, O. Farkas, 
 J. B. Foresman, and D. J. Fox, Gaussian, Inc., Wallingford CT, 2016.
 
 ******************************************
 Gaussian 16:  ES64L-G16RevA.03 25-Dec-2016
                18-Oct-2019 
 ******************************************
 %chk=ts_pcm_dichloromethane_maugccpvtz.chk
 %nprocshared=24
 Will use up to   24 processors via shared memory.
 ----------------------------------------------------------------------
 #p opt=(calcall,ts,noeigen) freq b3lyp def2tzvp em=gd3bj scrf=(pcm,sol
 vent=dichloromethane)
 ----------------------------------------------------------------------
 1/5=1,10=4,11=1,18=20,26=3,38=1/1,3;
 2/9=110,12=2,17=6,18=5,40=1/2;
 3/5=44,7=101,11=2,25=1,30=1,70=2201,71=2,72=9,74=-5,124=41,140=1/1,2,3;
 4//1;
 5/5=2,38=5,53=9/2;
 8/6=4,10=90,11=11/1;
 11/6=1,8=1,9=11,15=111,16=1/1,2,10;
 10/6=1/2;
 6/7=2,8=2,9=2,10=2,18=1,28=1/1;
 7/10=1,25=1/1,2,3,16;
 1/5=1,10=4,11=1,18=20,26=3/3(3);
 2/9=110/2;
 7/8=1,9=1,25=1,44=-1/16;
 99//99;
 2/9=110/2;
 3/5=44,7=101,11=2,25=1,30=1,70=2205,71=2,72=9,74=-5,124=41,140=1/1,2,3;
 4/5=5,16=3,69=1/1;
 5/5=2,38=5,53=9/2;
 8/6=4,10=90,11=11/1;
 11/6=1,8=1,9=11,15=111,16=1/1,2,10;
 10/6=1/2;
 7/10=1,25=1/1,2,3,16;
 1/5=1,10=4,11=1,18=20,26=3/3(-8);
 2/9=110/2;
 6/7=2,8=2,9=2,10=2,18=1,19=2,28=1/1;
 7/8=1,9=1,25=1,44=-1/16;
 99//99;
 Leave Link    1 at Fri Oct 18 01:07:09 2019, MaxMem=           0 cpu:              10.2 elap:               0.4
 (Enter /share/home/wli/program/opt/Chem_soft/g16/l101.exe)
 -------------------
 Title Card Required
 -------------------
 Symbolic Z-matrix:
 Charge = -1 Multiplicity = 1
 C                     0.7043    0.00002   0.00027 
 H                     0.7584   -0.9393   -0.50874 
 H                     0.7584    0.91052  -0.55864 
 H                     0.75836   0.02883   1.06826 
 Cl                    3.14574  0.        -0.00007 
 Br                   -1.71367  0.        -0.00004 
 
 Add virtual bond connecting atoms Br6        and C1         Dist= 4.57D+00.
 Add virtual bond connecting atoms Cl5        and C1         Dist= 4.61D+00.
 ITRead=  0  0  0  0  0  0
 MicOpt= -1 -1 -1 -1 -1 -1
 NAtoms=      6 NQM=        6 NQMF=       0 NMMI=      0 NMMIF=      0
                NMic=       0 NMicF=      0.
                    Isotopes and Nuclear Properties:
 (Nuclear quadrupole moments (NQMom) in fm**2, nuclear magnetic moments (NMagM)
  in nuclear magnetons)

  Atom         1           2           3           4           5           6
 IAtWgt=          12           1           1           1          35          79
 AtmWgt=  12.0000000   1.0078250   1.0078250   1.0078250  34.9688527  78.9183361
 NucSpn=           0           1           1           1           3           3
 AtZEff=  -0.0000000  -0.0000000  -0.0000000  -0.0000000  -0.0000000  -0.0000000
 NQMom=    0.0000000   0.0000000   0.0000000   0.0000000  -8.1650000  31.3000000
 NMagM=    0.0000000   2.7928460   2.7928460   2.7928460   0.8218740   2.1063990
 AtZNuc=   6.0000000   1.0000000   1.0000000   1.0000000  17.0000000  35.0000000
 Leave Link  101 at Fri Oct 18 01:07:09 2019, MaxMem=   104857600 cpu:               3.1 elap:               0.2
 (Enter /share/home/wli/program/opt/Chem_soft/g16/l103.exe)

 GradGradGradGradGradGradGradGradGradGradGradGradGradGradGradGradGradGrad
 Berny optimization.
 Initialization pass.
                           ----------------------------
                           !    Initial Parameters    !
                           ! (Angstroms and Degrees)  !
 --------------------------                            --------------------------
 ! Name  Definition              Value          Derivative Info.                !
 --------------------------------------------------------------------------------
 ! R1    R(1,2)                  1.0697         calculate D2E/DX2 analytically  !
 ! R2    R(1,3)                  1.0697         calculate D2E/DX2 analytically  !
 ! R3    R(1,4)                  1.0697         calculate D2E/DX2 analytically  !
 ! R4    R(1,5)                  2.4414         calculate D2E/DX2 analytically  !
 ! R5    R(1,6)                  2.418          calculate D2E/DX2 analytically  !
 ! A1    A(2,1,3)              119.75           calculate D2E/DX2 analytically  !
 ! A2    A(2,1,4)              119.7451         calculate D2E/DX2 analytically  !
 ! A3    A(2,1,5)               87.097          calculate D2E/DX2 analytically  !
 ! A4    A(2,1,6)               92.895          calculate D2E/DX2 analytically  !
 ! A5    A(3,1,4)              119.7448         calculate D2E/DX2 analytically  !
 ! A6    A(3,1,5)               87.0974         calculate D2E/DX2 analytically  !
 ! A7    A(3,1,6)               92.8953         calculate D2E/DX2 analytically  !
 ! A8    A(4,1,5)               87.1112         calculate D2E/DX2 analytically  !
 ! A9    A(4,1,6)               92.9041         calculate D2E/DX2 analytically  !
 ! A10   L(5,1,6,2,-1)         179.9919         calculate D2E/DX2 analytically  !
 ! A11   L(5,1,6,2,-2)         180.0131         calculate D2E/DX2 analytically  !
 ! D1    D(2,1,4,3)            169.9907         calculate D2E/DX2 analytically  !
 ! D2    D(2,1,5,3)            120.0042         calculate D2E/DX2 analytically  !
 ! D3    D(2,1,6,3)           -120.0028         calculate D2E/DX2 analytically  !
 ! D4    D(2,1,5,4)           -119.998          calculate D2E/DX2 analytically  !
 ! D5    D(2,1,6,4)            119.9987         calculate D2E/DX2 analytically  !
 ! D6    D(3,1,5,4)            119.9978         calculate D2E/DX2 analytically  !
 ! D7    D(3,1,6,4)           -119.9985         calculate D2E/DX2 analytically  !
 --------------------------------------------------------------------------------
 Trust Radius=3.00D-01 FncErr=1.00D-07 GrdErr=1.00D-06 EigMax=2.50D+02 EigMin=1.00D-04
 Number of steps in this run=     33 maximum allowed number of steps=    100.
 Search for a saddle point of order  1.
 GradGradGradGradGradGradGradGradGradGradGradGradGradGradGradGradGradGrad

 Leave Link  103 at Fri Oct 18 01:07:09 2019, MaxMem=   104857600 cpu:               0.8 elap:               0.1
 (Enter /share/home/wli/program/opt/Chem_soft/g16/l202.exe)
                          Input orientation:                          
 ---------------------------------------------------------------------
 Center     Atomic      Atomic             Coordinates (Angstroms)
 Number     Number       Type             X           Y           Z
 ---------------------------------------------------------------------
      1          6           0        0.704300    0.000015    0.000271
      2          1           0        0.758398   -0.939298   -0.508737
      3          1           0        0.758398    0.910520   -0.558639
      4          1           0        0.758363    0.028828    1.068261
      5         17           0        3.145737   -0.000004   -0.000074
      6         35           0       -1.713671   -0.000002   -0.000036
 ---------------------------------------------------------------------
                    Distance matrix (angstroms):
                    1          2          3          4          5
     1  C    0.000000
     2  H    1.069731   0.000000
     3  H    1.069732   1.850491   0.000000
     4  H    1.069746   1.850457   1.850455   0.000000
     5  Cl   2.441437   2.615416   2.615423   2.615669   0.000000
     6  Br   2.417971   2.692987   2.692993   2.693147   4.859408
                    6
     6  Br   0.000000
 This structure is nearly, but not quite of a higher symmetry.
 Consider Symm=Loose if the higher symmetry is desired.
 Stoichiometry    CH3BrCl(1-)
 Framework group  C1[X(CH3BrCl)]
 Deg. of freedom    12
 Full point group                 C1      NOp   1
 Largest Abelian subgroup         C1      NOp   1
 Largest concise Abelian subgroup C1      NOp   1
                         Standard orientation:                         
 ---------------------------------------------------------------------
 Center     Atomic      Atomic             Coordinates (Angstroms)
 Number     Number       Type             X           Y           Z
 ---------------------------------------------------------------------
      1          6           0        0.000249    0.003906    0.704289
      2          1           0       -0.513980    0.940658    0.753158
      3          1           0       -0.553586   -0.909380    0.763454
      4          1           0        1.068382   -0.018660    0.758512
      5         17           0       -0.000171    0.017512    3.145688
      6         35           0        0.000017   -0.009536   -1.713645
 ---------------------------------------------------------------------
 Rotational constants (GHZ):         146.4430850           0.8630335           0.8630334
 Leave Link  202 at Fri Oct 18 01:07:09 2019, MaxMem=   104857600 cpu:               1.8 elap:               0.1
 (Enter /share/home/wli/program/opt/Chem_soft/g16/l301.exe)
 Standard basis: def2TZVP (5D, 7F)
 Ernie: Thresh=  0.10000D-02 Tol=  0.10000D-05 Strict=F.
 There are   151 symmetry adapted cartesian basis functions of A   symmetry.
 There are   134 symmetry adapted basis functions of A   symmetry.
   134 basis functions,   258 primitive gaussians,   151 cartesian basis functions
    31 alpha electrons       31 beta electrons
       nuclear repulsion energy       173.5741035171 Hartrees.
 IExCor=  402 DFT=T Ex+Corr=B3LYP ExCW=0 ScaHFX=  0.200000
 ScaDFX=  0.800000  0.720000  1.000000  0.810000 ScalE2=  1.000000  1.000000
 IRadAn=      5 IRanWt=     -1 IRanGd=            0 ICorTp=0 IEmpDi=141
 NAtoms=    6 NActive=    6 NUniq=    6 SFac= 1.00D+00 NAtFMM=   60 NAOKFM=F Big=F
 Integral buffers will be    131072 words long.
 Raffenetti 2 integral format.
 Two-electron integral symmetry is turned on.
 R6Disp:  Grimme-D3(BJ) Dispersion energy=       -0.0069969608 Hartrees.
 Nuclear repulsion after empirical dispersion term =      173.5671065563 Hartrees.
 Force inversion solution in PCM.
 ------------------------------------------------------------------------------
 Polarizable Continuum Model (PCM)
 =================================
 Model                : PCM.
 Atomic radii         : UFF (Universal Force Field).
 Polarization charges : Total charges.
 Charge compensation  : None.
 Solution method      : Matrix inversion.
 Cavity type          : Scaled VdW (van der Waals Surface) (Alpha=1.100).
 Cavity algorithm     : GePol (No added spheres)
                        Default sphere list used, NSphG=    6.
                        Lebedev-Laikov grids with approx.  5.0 points / Ang**2.
                        Smoothing algorithm: York/Karplus (Gamma=1.0000).
                        Polarization charges: spherical gaussians, with
                                              point-specific exponents (IZeta= 3).
                        Self-potential: point-specific (ISelfS= 7).
                        Self-field    : sphere-specific E.n sum rule (ISelfD= 2).
 1st derivatives      : Analytical E(r).r(x)/FMM algorithm (CHGder, D1EAlg=3).
                        Cavity 1st derivative terms included.
 2nd derivatives      : Analytical E(r).r(xy)/FMM algorithm (CHGder, D2EAlg=3).
                        Cavity 2nd derivative terms included.
 Solvent              : Dichloromethane, Eps=   8.930000 Eps(inf)=   2.028346
 ------------------------------------------------------------------------------
 Spheres list:
 ISph  on   Nord     Re0    Alpha      Xe            Ye            Ze
    1   C      1    1.9255  1.100      0.000249      0.003906      0.704289
    2   H      2    1.4430  1.100     -0.513980      0.940658      0.753158
    3   H      3    1.4430  1.100     -0.553586     -0.909380      0.763454
    4   H      4    1.4430  1.100      1.068382     -0.018660      0.758512
    5  Cl      5    1.9735  1.100     -0.000171      0.017512      3.145688
    6  Br      6    2.0945  1.100      0.000017     -0.009536     -1.713645
 ------------------------------------------------------------------------------
 GePol: Number of generator spheres                  =       6
 GePol: Total number of spheres                      =       6
 GePol: Number of exposed spheres                    =       6 (100.00%)
 GePol: Number of points                             =     873
 GePol: Average weight of points                     =       0.16
 GePol: Minimum weight of points                     =   0.22D-10
 GePol: Maximum weight of points                     =    0.21616
 GePol: Number of points with low weight             =      25
 GePol: Fraction of low-weight points (<1% of avg)   =       2.86%
 GePol: Cavity surface area                          =    136.563 Ang**2
 GePol: Cavity volume                                =    119.900 Ang**3
 Leave Link  301 at Fri Oct 18 01:07:09 2019, MaxMem=   104857600 cpu:               2.9 elap:               0.1
 (Enter /share/home/wli/program/opt/Chem_soft/g16/l302.exe)
 NPDir=0 NMtPBC=     1 NCelOv=     1 NCel=       1 NClECP=     1 NCelD=      1
         NCelK=      1 NCelE2=     1 NClLst=     1 CellRange=     0.0.
 One-electron integrals computed using PRISM.
 One-electron integral symmetry used in STVInt
 PrsmSu:  requested number of processors reduced to:  13 ShMem   1 Linda.
   1 Symmetry operations used in ECPInt.
 ECPInt:  NShTT=    1378 NPrTT=    5593 LenC2=    1324 LenP2D=    4259.
 LDataN:  DoStor=T MaxTD1= 6 Len=  172
 NBasis=   134 RedAO= T EigKep=  1.43D-03  NBF=   134
 NBsUse=   134 1.00D-06 EigRej= -1.00D+00 NBFU=   134
 Precomputing XC quadrature grid using
 IXCGrd= 4 IRadAn=           5 IRanWt=          -1 IRanGd=           0 AccXCQ= 0.00D+00.
 Generated NRdTot=       0 NPtTot=           0 NUsed=           0 NTot=          32
 NSgBfM=   150   150   150   150   150 MxSgAt=     6 MxSgA2=     6.
 Leave Link  302 at Fri Oct 18 01:07:10 2019, MaxMem=   104857600 cpu:              13.6 elap:               0.6
 (Enter /share/home/wli/program/opt/Chem_soft/g16/l303.exe)
 DipDrv:  MaxL=1.
 Leave Link  303 at Fri Oct 18 01:07:10 2019, MaxMem=   104857600 cpu:               3.0 elap:               0.1
 (Enter /share/home/wli/program/opt/Chem_soft/g16/l401.exe)
 ExpMin= 9.52D-02 ExpMax= 5.65D+05 ExpMxC= 5.46D+03 IAcc=3 IRadAn=         5 AccDes= 0.00D+00
 Harris functional with IExCor=  402 and IRadAn=       5 diagonalized for initial guess.
 HarFok:  IExCor=  402 AccDes= 0.00D+00 IRadAn=         5 IDoV= 1 UseB2=F ITyADJ=14
 ICtDFT=  3500011 ScaDFX=  1.000000  1.000000  1.000000  1.000000
 FoFCou: FMM=F IPFlag=           0 FMFlag=      100000 FMFlg1=           0
         NFxFlg=           0 DoJE=T BraDBF=F KetDBF=T FulRan=T
         wScrn=  0.000000 ICntrl=       500 IOpCl=  0 I1Cent=   200000004 NGrid=           0
         NMat0=    1 NMatS0=      1 NMatT0=    0 NMatD0=    1 NMtDS0=    0 NMtDT0=    0
 Petite list used in FoFCou.
 Harris En= -3074.56577756357    
 JPrj=0 DoOrth=F DoCkMO=F.
 Leave Link  401 at Fri Oct 18 01:07:11 2019, MaxMem=   104857600 cpu:               9.0 elap:               0.4
 (Enter /share/home/wli/program/opt/Chem_soft/g16/l502.exe)
 Keep R1 ints in memory in canonical form, NReq=64315121.
 FoFCou: FMM=F IPFlag=           0 FMFlag=           0 FMFlg1=           0
         NFxFlg=           0 DoJE=F BraDBF=F KetDBF=F FulRan=T
         wScrn=  0.000000 ICntrl=       600 IOpCl=  0 I1Cent=           0 NGrid=           0
         NMat0=    1 NMatS0=   9045 NMatT0=    0 NMatD0=    1 NMtDS0=    0 NMtDT0=    0
 Symmetry not used in FoFCou.
 Two-electron integral symmetry not used.
 Closed shell SCF:
 Using DIIS extrapolation, IDIIS=  1040.
 NGot=   104857600 LenX=    63896377 LenY=    63873135
 Requested convergence on RMS density matrix=1.00D-08 within 128 cycles.
 Requested convergence on MAX density matrix=1.00D-06.
 Requested convergence on             energy=1.00D-06.
 No special actions if energy rises.

 Cycle   1  Pass 1  IDiag  1:
 CoulSu:  requested number of processors reduced to:  17 ShMem   1 Linda.
 Inv3:  Mode=1 IEnd=     2286387.
 Iteration    1 A*A^-1 deviation from unit magnitude is 3.33D-15 for    559.
 Iteration    1 A*A^-1 deviation from orthogonality  is 1.46D-15 for    202    116.
 Iteration    1 A^-1*A deviation from unit magnitude is 3.11D-15 for    559.
 Iteration    1 A^-1*A deviation from orthogonality  is 1.30D-15 for    865    691.
 CoulSu:  requested number of processors reduced to:  17 ShMem   1 Linda.
 CoulSu:  requested number of processors reduced to:  17 ShMem   1 Linda.
 E= -3074.40676380089    
 DIIS: error= 5.06D-02 at cycle   1 NSaved=   1.
 NSaved= 1 IEnMin= 1 EnMin= -3074.40676380089     IErMin= 1 ErrMin= 5.06D-02
 ErrMax= 5.06D-02  0.00D+00 EMaxC= 1.00D-01 BMatC= 2.13D-01 BMatP= 2.13D-01
 IDIUse=3 WtCom= 4.94D-01 WtEn= 5.06D-01
 Coeff-Com:  0.100D+01
 Coeff-En:   0.100D+01
 Coeff:      0.100D+01
 Gap=     0.306 Goal=   None    Shift=    0.000
 GapD=    0.306 DampG=1.000 DampE=0.500 DampFc=0.5000 IDamp=-1.
 Damping current iteration by 5.00D-01
 RMSDP=4.37D-03 MaxDP=1.29D-01              OVMax= 2.70D-01

 Cycle   2  Pass 1  IDiag  1:
 E= -3074.45063712986     Delta-E=       -0.043873328962 Rises=F Damp=T
 DIIS: error= 2.04D-02 at cycle   2 NSaved=   2.
 NSaved= 2 IEnMin= 2 EnMin= -3074.45063712986     IErMin= 2 ErrMin= 2.04D-02
 ErrMax= 2.04D-02  0.00D+00 EMaxC= 1.00D-01 BMatC= 2.54D-02 BMatP= 2.13D-01
 IDIUse=3 WtCom= 7.96D-01 WtEn= 2.04D-01
 Coeff-Com: -0.199D+00 0.120D+01
 Coeff-En:   0.000D+00 0.100D+01
 Coeff:     -0.158D+00 0.116D+01
 Gap=     0.190 Goal=   None    Shift=    0.000
 RMSDP=1.47D-03 MaxDP=3.99D-02 DE=-4.39D-02 OVMax= 1.97D-01

 Cycle   3  Pass 1  IDiag  1:
 E= -3074.48026409958     Delta-E=       -0.029626969723 Rises=F Damp=F
 DIIS: error= 1.34D-02 at cycle   3 NSaved=   3.
 NSaved= 3 IEnMin= 3 EnMin= -3074.48026409958     IErMin= 3 ErrMin= 1.34D-02
 ErrMax= 1.34D-02  0.00D+00 EMaxC= 1.00D-01 BMatC= 1.84D-02 BMatP= 2.54D-02
 IDIUse=3 WtCom= 8.66D-01 WtEn= 1.34D-01
 Coeff-Com: -0.195D+00 0.638D+00 0.556D+00
 Coeff-En:   0.000D+00 0.000D+00 0.100D+01
 Coeff:     -0.168D+00 0.553D+00 0.616D+00
 Gap=     0.209 Goal=   None    Shift=    0.000
 RMSDP=9.85D-04 MaxDP=2.51D-02 DE=-2.96D-02 OVMax= 1.12D-01

 Cycle   4  Pass 1  IDiag  1:
 E= -3074.49759281218     Delta-E=       -0.017328712598 Rises=F Damp=F
 DIIS: error= 5.03D-03 at cycle   4 NSaved=   4.
 NSaved= 4 IEnMin= 4 EnMin= -3074.49759281218     IErMin= 4 ErrMin= 5.03D-03
 ErrMax= 5.03D-03  0.00D+00 EMaxC= 1.00D-01 BMatC= 2.84D-03 BMatP= 1.84D-02
 IDIUse=3 WtCom= 9.50D-01 WtEn= 5.03D-02
 Coeff-Com: -0.190D-01 0.670D-01 0.299D+00 0.653D+00
 Coeff-En:   0.000D+00 0.000D+00 0.153D+00 0.847D+00
 Coeff:     -0.180D-01 0.636D-01 0.291D+00 0.663D+00
 Gap=     0.199 Goal=   None    Shift=    0.000
 RMSDP=3.62D-04 MaxDP=1.08D-02 DE=-1.73D-02 OVMax= 3.14D-02

 Cycle   5  Pass 1  IDiag  1:
 E= -3074.50078886317     Delta-E=       -0.003196050990 Rises=F Damp=F
 DIIS: error= 8.14D-04 at cycle   5 NSaved=   5.
 NSaved= 5 IEnMin= 5 EnMin= -3074.50078886317     IErMin= 5 ErrMin= 8.14D-04
 ErrMax= 8.14D-04  0.00D+00 EMaxC= 1.00D-01 BMatC= 9.86D-05 BMatP= 2.84D-03
 IDIUse=3 WtCom= 9.92D-01 WtEn= 8.14D-03
 Coeff-Com: -0.973D-02 0.189D-01 0.140D+00 0.329D+00 0.522D+00
 Coeff-En:   0.000D+00 0.000D+00 0.000D+00 0.000D+00 0.100D+01
 Coeff:     -0.965D-02 0.188D-01 0.138D+00 0.326D+00 0.526D+00
 Gap=     0.199 Goal=   None    Shift=    0.000
 RMSDP=8.62D-05 MaxDP=3.67D-03 DE=-3.20D-03 OVMax= 4.26D-03

 Cycle   6  Pass 1  IDiag  1:
 E= -3074.50085958996     Delta-E=       -0.000070726793 Rises=F Damp=F
 DIIS: error= 1.25D-04 at cycle   6 NSaved=   6.
 NSaved= 6 IEnMin= 6 EnMin= -3074.50085958996     IErMin= 6 ErrMin= 1.25D-04
 ErrMax= 1.25D-04  0.00D+00 EMaxC= 1.00D-01 BMatC= 4.05D-06 BMatP= 9.86D-05
 IDIUse=3 WtCom= 9.99D-01 WtEn= 1.25D-03
 Coeff-Com: -0.479D-03-0.453D-03 0.216D-01 0.541D-01 0.189D+00 0.737D+00
 Coeff-En:   0.000D+00 0.000D+00 0.000D+00 0.000D+00 0.000D+00 0.100D+01
 Coeff:     -0.478D-03-0.453D-03 0.215D-01 0.540D-01 0.188D+00 0.737D+00
 Gap=     0.199 Goal=   None    Shift=    0.000
 RMSDP=2.18D-05 MaxDP=6.47D-04 DE=-7.07D-05 OVMax= 1.92D-03

 Cycle   7  Pass 1  IDiag  1:
 E= -3074.50086289581     Delta-E=       -0.000003305851 Rises=F Damp=F
 DIIS: error= 9.97D-05 at cycle   7 NSaved=   7.
 NSaved= 7 IEnMin= 7 EnMin= -3074.50086289581     IErMin= 7 ErrMin= 9.97D-05
 ErrMax= 9.97D-05  0.00D+00 EMaxC= 1.00D-01 BMatC= 7.75D-07 BMatP= 4.05D-06
 IDIUse=1 WtCom= 1.00D+00 WtEn= 0.00D+00
 Coeff-Com:  0.766D-03-0.193D-02-0.629D-02-0.150D-01 0.248D-01 0.372D+00
 Coeff-Com:  0.626D+00
 Coeff:      0.766D-03-0.193D-02-0.629D-02-0.150D-01 0.248D-01 0.372D+00
 Coeff:      0.626D+00
 Gap=     0.199 Goal=   None    Shift=    0.000
 RMSDP=8.01D-06 MaxDP=3.20D-04 DE=-3.31D-06 OVMax= 4.17D-04

 Cycle   8  Pass 1  IDiag  1:
 E= -3074.50086364504     Delta-E=       -0.000000749228 Rises=F Damp=F
 DIIS: error= 7.71D-06 at cycle   8 NSaved=   8.
 NSaved= 8 IEnMin= 8 EnMin= -3074.50086364504     IErMin= 8 ErrMin= 7.71D-06
 ErrMax= 7.71D-06  0.00D+00 EMaxC= 1.00D-01 BMatC= 7.81D-09 BMatP= 7.75D-07
 IDIUse=1 WtCom= 1.00D+00 WtEn= 0.00D+00
 Coeff-Com:  0.150D-03-0.279D-03-0.149D-02-0.380D-02-0.448D-02 0.284D-01
 Coeff-Com:  0.133D+00 0.848D+00
 Coeff:      0.150D-03-0.279D-03-0.149D-02-0.380D-02-0.448D-02 0.284D-01
 Coeff:      0.133D+00 0.848D+00
 Gap=     0.199 Goal=   None    Shift=    0.000
 RMSDP=1.02D-06 MaxDP=3.47D-05 DE=-7.49D-07 OVMax= 7.99D-05

 Cycle   9  Pass 1  IDiag  1:
 E= -3074.50086365484     Delta-E=       -0.000000009800 Rises=F Damp=F
 DIIS: error= 1.93D-06 at cycle   9 NSaved=   9.
 NSaved= 9 IEnMin= 9 EnMin= -3074.50086365484     IErMin= 9 ErrMin= 1.93D-06
 ErrMax= 1.93D-06  0.00D+00 EMaxC= 1.00D-01 BMatC= 4.19D-10 BMatP= 7.81D-09
 IDIUse=1 WtCom= 1.00D+00 WtEn= 0.00D+00
 Coeff-Com:  0.446D-04-0.768D-04-0.334D-03-0.869D-03-0.238D-02-0.144D-02
 Coeff-Com:  0.178D-01 0.278D+00 0.709D+00
 Coeff:      0.446D-04-0.768D-04-0.334D-03-0.869D-03-0.238D-02-0.144D-02
 Coeff:      0.178D-01 0.278D+00 0.709D+00
 Gap=     0.199 Goal=   None    Shift=    0.000
 RMSDP=1.52D-07 MaxDP=4.51D-06 DE=-9.80D-09 OVMax= 5.61D-06

 Cycle  10  Pass 1  IDiag  1:
 E= -3074.50086365527     Delta-E=       -0.000000000431 Rises=F Damp=F
 DIIS: error= 4.74D-07 at cycle  10 NSaved=  10.
 NSaved=10 IEnMin=10 EnMin= -3074.50086365527     IErMin=10 ErrMin= 4.74D-07
 ErrMax= 4.74D-07  0.00D+00 EMaxC= 1.00D-01 BMatC= 2.77D-11 BMatP= 4.19D-10
 IDIUse=1 WtCom= 1.00D+00 WtEn= 0.00D+00
 Coeff-Com:  0.116D-05-0.253D-05 0.323D-04 0.689D-04-0.420D-03-0.280D-02
 Coeff-Com: -0.834D-02 0.176D-01 0.198D+00 0.796D+00
 Coeff:      0.116D-05-0.253D-05 0.323D-04 0.689D-04-0.420D-03-0.280D-02
 Coeff:     -0.834D-02 0.176D-01 0.198D+00 0.796D+00
 Gap=     0.199 Goal=   None    Shift=    0.000
 RMSDP=5.78D-08 MaxDP=1.46D-06 DE=-4.31D-10 OVMax= 1.93D-06

 Cycle  11  Pass 1  IDiag  1:
 E= -3074.50086365528     Delta-E=       -0.000000000007 Rises=F Damp=F
 DIIS: error= 5.41D-08 at cycle  11 NSaved=  11.
 NSaved=11 IEnMin=11 EnMin= -3074.50086365528     IErMin=11 ErrMin= 5.41D-08
 ErrMax= 5.41D-08  0.00D+00 EMaxC= 1.00D-01 BMatC= 3.44D-13 BMatP= 2.77D-11
 IDIUse=1 WtCom= 1.00D+00 WtEn= 0.00D+00
 Coeff-Com: -0.980D-06 0.192D-05 0.798D-05 0.241D-04 0.331D-05-0.151D-03
 Coeff-Com: -0.910D-03-0.275D-02 0.356D-02 0.103D+00 0.898D+00
 Coeff:     -0.980D-06 0.192D-05 0.798D-05 0.241D-04 0.331D-05-0.151D-03
 Coeff:     -0.910D-03-0.275D-02 0.356D-02 0.103D+00 0.898D+00
 Gap=     0.199 Goal=   None    Shift=    0.000
 RMSDP=4.35D-09 MaxDP=1.02D-07 DE=-7.28D-12 OVMax= 3.10D-07

 CoulSu:  requested number of processors reduced to:  17 ShMem   1 Linda.
 CoulSu:  requested number of processors reduced to:  16 ShMem   1 Linda.
 Error on total polarization charges =  0.01922
 SCF Done:  E(RB3LYP) =  -3074.50086366     A.U. after   11 cycles
            NFock= 11  Conv=0.44D-08     -V/T= 2.0015
 KE= 3.069823802430D+03 PE=-7.700144883928D+03 EE= 1.382253111286D+03
 Leave Link  502 at Fri Oct 18 01:07:16 2019, MaxMem=   104857600 cpu:             121.9 elap:               5.8
 (Enter /share/home/wli/program/opt/Chem_soft/g16/l801.exe)
 DoSCS=F DFT=T ScalE2(SS,OS)=  1.000000  1.000000
 Range of M.O.s used for correlation:     1   134
 NBasis=   134 NAE=    31 NBE=    31 NFC=     0 NFV=     0
 NROrb=    134 NOA=    31 NOB=    31 NVA=   103 NVB=   103
 Leave Link  801 at Fri Oct 18 01:07:16 2019, MaxMem=   104857600 cpu:               1.0 elap:               0.1
 (Enter /share/home/wli/program/opt/Chem_soft/g16/l1101.exe)
 Using compressed storage, NAtomX=     6.
 Will process      7 centers per pass.
 PrsmSu:  requested number of processors reduced to:  11 ShMem   1 Linda.
   1 Symmetry operations used in ECPInt.
 ECPInt:  NShTT=    1378 NPrTT=    5593 LenC2=    1324 LenP2D=    4259.
 LDataN:  DoStor=T MaxTD1= 7 Len=  274
 Number of processors reduced to  18 by ecpmxn.
 R6Disp: Adding Grimme-D3(BJ) dispersion energy 1st derivatives to the gradient.
 Leave Link 1101 at Fri Oct 18 01:07:17 2019, MaxMem=   104857600 cpu:               8.6 elap:               0.4
 (Enter /share/home/wli/program/opt/Chem_soft/g16/l1102.exe)
 Symmetrizing basis deriv contribution to polar:
 IMax=3 JMax=2 DiffMx= 0.00D+00
 Leave Link 1102 at Fri Oct 18 01:07:17 2019, MaxMem=   104857600 cpu:               2.3 elap:               0.1
 (Enter /share/home/wli/program/opt/Chem_soft/g16/l1110.exe)
 Forming Gx(P) for the SCF density, NAtomX=     6.
 Integral derivatives from FoFJK, PRISM(SPDF).
 Do as many integral derivatives as possible in FoFJK.
 G2DrvN: MDV=     104857020.
 G2DrvN: will do     7 centers at a time, making    1 passes.
 Calling FoFCou, ICntrl=  3107 FMM=F I1Cent=   0 AccDes= 0.00D+00.
 FoFJK:  IHMeth= 1 ICntrl=    3107 DoSepK=F KAlg= 0 I1Cent=           0 FoldK=F
 IRaf=         0 NMat=       1 IRICut=       1 DoRegI=T DoRafI=F ISym2E= 0 IDoP0=0 IntGTp=1.
 FoFCou: FMM=F IPFlag=           0 FMFlag=      100000 FMFlg1=           0
         NFxFlg=           0 DoJE=F BraDBF=F KetDBF=F FulRan=T
         wScrn=  0.000000 ICntrl=      3107 IOpCl=  0 I1Cent=           0 NGrid=           0
         NMat0=    1 NMatS0=      1 NMatT0=    0 NMatD0=    1 NMtDS0=    0 NMtDT0=    0
 Symmetry not used in FoFCou.
 NEqPCM:  Using equilibrium solvation (IEInf=0, Eps=   8.9300, EpsInf=   2.0283)
 G2PCM: DoFxE=T DoFxN=T DoGrad=T DoDP/DQ/DG/TGxP=FFFF NFrqRd=   0 IEInf=0 SqF1=F DoCFld=F IF1Alg=4.
 GePol: Maximum number of non-zero 1st derivatives   =     380
 CoulSu:  requested number of processors reduced to:  13 ShMem   1 Linda.
 CoulSu:  requested number of processors reduced to:  13 ShMem   1 Linda.
 CoulSu:  requested number of processors reduced to:  13 ShMem   1 Linda.
 CoulSu:  requested number of processors reduced to:  17 ShMem   1 Linda.
 CoulSu:  requested number of processors reduced to:  23 ShMem   1 Linda.
 CoulSu:  requested number of processors reduced to:  13 ShMem   1 Linda.
 CoulSu:  requested number of processors reduced to:  13 ShMem   1 Linda.
 CoulSu:  requested number of processors reduced to:  13 ShMem   1 Linda.
 CoulSu:  requested number of processors reduced to:  13 ShMem   1 Linda.
 End of G2Drv F.D. properties file   721 does not exist.
 End of G2Drv F.D. properties file   722 does not exist.
 End of G2Drv F.D. properties file   788 does not exist.
 Leave Link 1110 at Fri Oct 18 01:07:22 2019, MaxMem=   104857600 cpu:             121.3 elap:               5.4
 (Enter /share/home/wli/program/opt/Chem_soft/g16/l1002.exe)
 Minotr:  Closed shell wavefunction.
          IDoAtm=111111
 NEqPCM:  Using equilibrium solvation (IEInf=0, Eps=   8.9300, EpsInf=   2.0283)
          Direct CPHF calculation.
          Differentiating once with respect to electric field.
                with respect to dipole field.
          Differentiating once with respect to nuclear coordinates.
          Requested convergence is 1.0D-08 RMS, and 1.0D-07 maximum.
          Secondary convergence is 1.0D-12 RMS, and 1.0D-12 maximum.
          NewPWx=T KeepS1=F KeepF1=F KeepIn=T MapXYZ=F SortEE=F KeepMc=T.
         1761 words used for storage of precomputed grid.
 Keep R1 ints in memory in canonical form, NReq=64236638.
 FoFCou: FMM=F IPFlag=           0 FMFlag=           0 FMFlg1=           0
         NFxFlg=           0 DoJE=F BraDBF=F KetDBF=F FulRan=T
         wScrn=  0.000000 ICntrl=       600 IOpCl=  0 I1Cent=           0 NGrid=           0
         NMat0=    1 NMatS0=   9045 NMatT0=    0 NMatD0=    1 NMtDS0=    0 NMtDT0=    0
 Symmetry not used in FoFCou.
 Two-electron integral symmetry not used.
          MDV=     104857600 using IRadAn=       1.
          Solving linear equations simultaneously, MaxMat=       0.
 CoulSu:  requested number of processors reduced to:  13 ShMem   1 Linda.
 CoulSu:  requested number of processors reduced to:  13 ShMem   1 Linda.
          There are    21 degrees of freedom in the 1st order CPHF.  IDoFFX=6 NUNeed=     3.
     18 vectors produced by pass  0 Test12= 1.52D-14 4.76D-09 XBig12= 2.17D+02 1.41D+01.
 AX will form    18 AO Fock derivatives at one time.
 CoulSu:  requested number of processors reduced to:  15 ShMem   1 Linda.
 CoulSu:  requested number of processors reduced to:  14 ShMem   1 Linda.
     18 vectors produced by pass  1 Test12= 1.52D-14 4.76D-09 XBig12= 3.24D+01 1.98D+00.
 CoulSu:  requested number of processors reduced to:  15 ShMem   1 Linda.
 CoulSu:  requested number of processors reduced to:  14 ShMem   1 Linda.
     18 vectors produced by pass  2 Test12= 1.52D-14 4.76D-09 XBig12= 1.45D+00 2.46D-01.
 CoulSu:  requested number of processors reduced to:  15 ShMem   1 Linda.
 CoulSu:  requested number of processors reduced to:  14 ShMem   1 Linda.
     18 vectors produced by pass  3 Test12= 1.52D-14 4.76D-09 XBig12= 3.68D-02 4.38D-02.
 CoulSu:  requested number of processors reduced to:  15 ShMem   1 Linda.
 CoulSu:  requested number of processors reduced to:  14 ShMem   1 Linda.
     18 vectors produced by pass  4 Test12= 1.52D-14 4.76D-09 XBig12= 8.10D-04 9.56D-03.
 CoulSu:  requested number of processors reduced to:  15 ShMem   1 Linda.
 CoulSu:  requested number of processors reduced to:  14 ShMem   1 Linda.
     14 vectors produced by pass  5 Test12= 1.52D-14 4.76D-09 XBig12= 4.31D-06 5.88D-04.
 CoulSu:  requested number of processors reduced to:  17 ShMem   1 Linda.
 CoulSu:  requested number of processors reduced to:  16 ShMem   1 Linda.
      5 vectors produced by pass  6 Test12= 1.52D-14 4.76D-09 XBig12= 5.36D-09 1.75D-05.
      3 vectors produced by pass  7 Test12= 1.52D-14 4.76D-09 XBig12= 5.57D-12 4.97D-07.
      1 vectors produced by pass  8 Test12= 1.52D-14 4.76D-09 XBig12= 1.18D-14 1.91D-08.
 InvSVY:  IOpt=1 It=  1 EMax= 2.66D-15
 Solved reduced A of dimension   113 with    21 vectors.
 FullF1:  Do perturbations      1 to       3.
 Isotropic polarizability for W=    0.000000       91.23 Bohr**3.
 End of Minotr F.D. properties file   721 does not exist.
 End of Minotr F.D. properties file   722 does not exist.
 End of Minotr F.D. properties file   788 does not exist.
 Leave Link 1002 at Fri Oct 18 01:07:28 2019, MaxMem=   104857600 cpu:             121.8 elap:               5.6
 (Enter /share/home/wli/program/opt/Chem_soft/g16/l601.exe)
 Copying SCF densities to generalized density rwf, IOpCl= 0 IROHF=0.

 **********************************************************************

            Population analysis using the SCF density.

 **********************************************************************

 Orbital symmetries:
       Occupied  (A) (A) (A) (A) (A) (A) (A) (A) (A) (A) (A) (A)
                 (A) (A) (A) (A) (A) (A) (A) (A) (A) (A) (A) (A)
                 (A) (A) (A) (A) (A) (A) (A)
       Virtual   (A) (A) (A) (A) (A) (A) (A) (A) (A) (A) (A) (A)
                 (A) (A) (A) (A) (A) (A) (A) (A) (A) (A) (A) (A)
                 (A) (A) (A) (A) (A) (A) (A) (A) (A) (A) (A) (A)
                 (A) (A) (A) (A) (A) (A) (A) (A) (A) (A) (A) (A)
                 (A) (A) (A) (A) (A) (A) (A) (A) (A) (A) (A) (A)
                 (A) (A) (A) (A) (A) (A) (A) (A) (A) (A) (A) (A)
                 (A) (A) (A) (A) (A) (A) (A) (A) (A) (A) (A) (A)
                 (A) (A) (A) (A) (A) (A) (A) (A) (A) (A) (A) (A)
                 (A) (A) (A) (A) (A) (A) (A)
 The electronic state is 1-A.
 Alpha  occ. eigenvalues -- -482.78094-101.41312 -62.42940 -56.24431 -56.24258
 Alpha  occ. eigenvalues --  -56.24258 -10.21462  -9.34532  -8.62021  -7.10299
 Alpha  occ. eigenvalues --   -7.10024  -7.10024  -6.44590  -6.44062  -6.44062
 Alpha  occ. eigenvalues --   -2.56097  -2.55955  -2.55955  -2.55535  -2.55535
 Alpha  occ. eigenvalues --   -0.72714  -0.69704  -0.65034  -0.43106  -0.43104
 Alpha  occ. eigenvalues --   -0.30488  -0.24378  -0.24376  -0.23656  -0.23654
 Alpha  occ. eigenvalues --   -0.22532
 Alpha virt. eigenvalues --   -0.02598   0.07116   0.13260   0.13264   0.20697
 Alpha virt. eigenvalues --    0.21700   0.21702   0.27857   0.28481   0.28483
 Alpha virt. eigenvalues --    0.33685   0.33689   0.35152   0.36263   0.36263
 Alpha virt. eigenvalues --    0.41560   0.41562   0.42185   0.44992   0.48196
 Alpha virt. eigenvalues --    0.48199   0.50363   0.52617   0.52618   0.53030
 Alpha virt. eigenvalues --    0.53032   0.55449   0.78827   0.78829   0.79538
 Alpha virt. eigenvalues --    0.97657   0.97659   0.98119   1.11715   1.36019
 Alpha virt. eigenvalues --    1.38603   1.38605   1.39967   1.39967   1.46156
 Alpha virt. eigenvalues --    1.46906   1.46909   1.46991   1.48551   1.57239
 Alpha virt. eigenvalues --    1.57239   1.58613   1.58659   1.63621   1.63621
 Alpha virt. eigenvalues --    1.65039   1.68317   1.68323   1.80569   1.80569
 Alpha virt. eigenvalues --    1.83179   1.84278   1.84281   1.94899   1.94900
 Alpha virt. eigenvalues --    1.97431   2.04814   2.06719   2.06719   2.16037
 Alpha virt. eigenvalues --    2.16037   2.17296   2.17409   2.26642   2.26643
 Alpha virt. eigenvalues --    2.29427   2.29427   2.30523   2.34893   2.45970
 Alpha virt. eigenvalues --    2.45979   2.63098   2.67481   2.67486   2.79593
 Alpha virt. eigenvalues --    3.08051   3.08052   3.21358   3.21360   3.24226
 Alpha virt. eigenvalues --    3.30501   3.30503   3.62775   3.84745   4.04111
 Alpha virt. eigenvalues --    4.04115   4.07714   4.07715   4.16631   4.16634
 Alpha virt. eigenvalues --    4.28176   4.70642   7.42520  10.76500  10.76500
 Alpha virt. eigenvalues --   10.87689  22.11136  24.57004
          Condensed to atoms (all electrons):
               1          2          3          4          5          6
     1  C    4.876009   0.408281   0.408269   0.408253   0.011467   0.047385
     2  H    0.408281   0.489186  -0.021300  -0.021342  -0.004069  -0.014799
     3  H    0.408269  -0.021300   0.489227  -0.021337  -0.004054  -0.014796
     4  H    0.408253  -0.021342  -0.021337   0.489360  -0.003995  -0.014765
     5  Cl   0.011467  -0.004069  -0.004054  -0.003995  17.712532   0.009619
     6  Br   0.047385  -0.014799  -0.014796  -0.014765   0.009619  35.598054
 Mulliken charges:
               1
     1  C   -0.159665
     2  H    0.164044
     3  H    0.163992
     4  H    0.163826
     5  Cl  -0.721500
     6  Br  -0.610696
 Sum of Mulliken charges =  -1.00000
 Mulliken charges with hydrogens summed into heavy atoms:
               1
     1  C    0.332196
     5  Cl  -0.721500
     6  Br  -0.610696
 APT charges:
               1
     1  C    1.481807
     2  H   -0.023146
     3  H   -0.023136
     4  H   -0.023656
     5  Cl  -1.266945
     6  Br  -1.144924
 Sum of APT charges =  -1.00000
 APT charges with hydrogens summed into heavy atoms:
               1
     1  C    1.411869
     5  Cl  -1.266945
     6  Br  -1.144924
 Electronic spatial extent (au):  <R**2>=           1124.0668
 Charge=             -1.0000 electrons
 Dipole moment (field-independent basis, Debye):
    X=             -0.0013    Y=             -0.0261    Z=             -4.6870  Tot=              4.6871
 Quadrupole moment (field-independent basis, Debye-Ang):
   XX=            -42.4192   YY=            -42.4188   ZZ=            -86.3252
   XY=             -0.0001   XZ=              0.0014   YZ=             -0.2447
 Traceless Quadrupole moment (field-independent basis, Debye-Ang):
   XX=             14.6352   YY=             14.6356   ZZ=            -29.2708
   XY=             -0.0001   XZ=              0.0014   YZ=             -0.2447
 Octapole moment (field-independent basis, Debye-Ang**2):
  XXX=              1.0925  YYY=             -0.1880  ZZZ=           -147.8798  XYY=             -1.0955
  XXY=             -0.1565  XXZ=            -15.4856  XZZ=             -0.0031  YZZ=             -0.6511
  YYZ=            -15.4878  XYZ=              0.0059
 Hexadecapole moment (field-independent basis, Debye-Ang**3):
 XXXX=            -60.9867 YYYY=            -61.0214 ZZZZ=          -1687.8376 XXXY=              0.0044
 XXXZ=              0.8365 YYYX=             -0.0136 YYYZ=             -3.5474 ZZZX=              0.0276
 ZZZY=             -5.4580 XXYY=            -20.3361 XXZZ=           -235.8845 YYZZ=           -235.8978
 XXYZ=             -1.2523 YYXZ=             -0.8076 ZZXY=              0.0087
 N-N= 1.735671065563D+02 E-N=-7.700144885883D+03  KE= 3.069823802430D+03
  Exact polarizability:  48.192   0.004  48.178  -0.002   0.720 177.319
 Approx polarizability:  60.247   0.000  60.248  -0.004   0.779 200.298
 No NMR shielding tensors so no spin-rotation constants.
 Leave Link  601 at Fri Oct 18 01:07:29 2019, MaxMem=   104857600 cpu:              13.8 elap:               0.6
 (Enter /share/home/wli/program/opt/Chem_soft/g16/l701.exe)
 ... and contract with generalized density number  0.
 Compute integral second derivatives.
 R6Disp: Adding Grimme-D3(BJ) dispersion energy 2nd derivatives to the Hessian.
 PrsmSu:  requested number of processors reduced to:   9 ShMem   1 Linda.
 PrsmSu:  requested number of processors reduced to:  13 ShMem   1 Linda.
   1 Symmetry operations used in ECPInt.
 ECPInt:  NShTT=    1378 NPrTT=    5593 LenC2=    1324 LenP2D=    4259.
 LDataN:  DoStor=T MaxTD1= 8 Len=  415
 D2PCM: PCM CHGder 2nd derivatives, FixD1E=F FixD2E=F DoIter=F DoCFld=F I1PDM=0
 GePol: Maximum number of non-zero 2nd derivatives   =     380
 CoulSu:  requested number of processors reduced to:  13 ShMem   1 Linda.
 CoulSu:  requested number of processors reduced to:  13 ShMem   1 Linda.
 CoulSu:  requested number of processors reduced to:  13 ShMem   1 Linda.
 CoulSu:  requested number of processors reduced to:  13 ShMem   1 Linda.
 CoulSu:  requested number of processors reduced to:  13 ShMem   1 Linda.
 CoulSu:  requested number of processors reduced to:  11 ShMem   1 Linda.
 CoulSu:  requested number of processors reduced to:  13 ShMem   1 Linda.
 CoulSu:  requested number of processors reduced to:  11 ShMem   1 Linda.
 CoulSu:  requested number of processors reduced to:  13 ShMem   1 Linda.
 CoulSu:  requested number of processors reduced to:  11 ShMem   1 Linda.
 CoulSu:  requested number of processors reduced to:  11 ShMem   1 Linda.
 CoulSu:  requested number of processors reduced to:  13 ShMem   1 Linda.
 CoulSu:  requested number of processors reduced to:  13 ShMem   1 Linda.
 CoulSu:  requested number of processors reduced to:  13 ShMem   1 Linda.
 CoulSu:  requested number of processors reduced to:  13 ShMem   1 Linda.
 CoulSu:  requested number of processors reduced to:  13 ShMem   1 Linda.
 Leave Link  701 at Fri Oct 18 01:07:34 2019, MaxMem=   104857600 cpu:              97.0 elap:               5.0
 (Enter /share/home/wli/program/opt/Chem_soft/g16/l702.exe)
 L702 exits ... SP integral derivatives will be done elsewhere.
 Leave Link  702 at Fri Oct 18 01:07:34 2019, MaxMem=   104857600 cpu:               1.1 elap:               0.1
 (Enter /share/home/wli/program/opt/Chem_soft/g16/l703.exe)
 Integral derivatives from FoFJK, PRISM(SPDF).
 Compute integral second derivatives, UseDBF=F ICtDFT=           0.
 Calling FoFJK, ICntrl=    100127 FMM=F ISym2X=0 I1Cent= 0 IOpClX= 0 NMat=1 NMatS=1 NMatT=0.
 FoFJK:  IHMeth= 1 ICntrl=  100127 DoSepK=F KAlg= 0 I1Cent=           0 FoldK=F
 IRaf=         0 NMat=       1 IRICut=       1 DoRegI=T DoRafI=F ISym2E= 0 IDoP0=0 IntGTp=1.
 FoFCou: FMM=F IPFlag=           0 FMFlag=      100000 FMFlg1=         800
         NFxFlg=           0 DoJE=F BraDBF=F KetDBF=F FulRan=T
         wScrn=  0.000000 ICntrl=    100127 IOpCl=  0 I1Cent=           0 NGrid=           0
         NMat0=    1 NMatS0=      1 NMatT0=    0 NMatD0=    1 NMtDS0=    0 NMtDT0=    0
 Symmetry not used in FoFCou.
 CoulSu:  requested number of processors reduced to:  13 ShMem   1 Linda.
 Leave Link  703 at Fri Oct 18 01:07:40 2019, MaxMem=   104857600 cpu:             116.0 elap:               6.2
 (Enter /share/home/wli/program/opt/Chem_soft/g16/l716.exe)
 Dipole        =-5.26510093D-04-1.02516696D-02-1.84401696D+00
 Polarizability= 4.81924474D+01 3.80751062D-03 4.81775946D+01
                -2.00283056D-03 7.19982143D-01 1.77319137D+02
 ***** Axes restored to original set *****
 -------------------------------------------------------------------
 Center     Atomic                   Forces (Hartrees/Bohr)
 Number     Number              X              Y              Z
 -------------------------------------------------------------------
      1        6          -0.005507961    0.000020690    0.000068526
      2        1          -0.000053326   -0.000768328   -0.000429273
      3        1          -0.000044454    0.000724018   -0.000504573
      4        1           0.000014820    0.000021223    0.000835509
      5       17           0.002337388   -0.000009733    0.000029992
      6       35           0.003253533    0.000012130   -0.000000181
 -------------------------------------------------------------------
 Cartesian Forces:  Max     0.005507961 RMS     0.001644008
 Force constants in Cartesian coordinates: 
                1             2             3             4             5 
      1 -0.533965D-01
      2  0.687979D-04  0.678011D+00
      3 -0.181040D-04 -0.179663D-03  0.678336D+00
      4 -0.100005D-01  0.160844D-01  0.871614D-02  0.332410D-01
      5  0.143708D-01 -0.308429D+00 -0.137748D+00 -0.148681D-01  0.311474D+00
      6  0.767354D-02 -0.137703D+00 -0.128686D+00 -0.814131D-02  0.144837D+00
      7 -0.998230D-02 -0.155806D-01  0.961400D-02  0.285460D-02  0.147201D-02
      8 -0.138994D-01 -0.293031D+00  0.146717D+00 -0.151881D-02 -0.118322D-01
      9  0.834442D-02  0.146698D+00 -0.144074D+00 -0.831072D-03 -0.128344D-01
     10 -0.101463D-01 -0.456080D-03 -0.182615D-01  0.284946D-02  0.432594D-04
     11 -0.358308D-03 -0.545145D-01 -0.890598D-02 -0.152140D-02  0.437256D-02
     12 -0.163675D-01 -0.888114D-02 -0.382849D+00 -0.813773D-03  0.348374D-02
     13  0.406889D-01 -0.699853D-04  0.913335D-04 -0.132126D-01  0.170510D-02
     14 -0.117323D-03 -0.880347D-02  0.137937D-03 -0.493938D-02  0.190010D-02
     15  0.402190D-03  0.954250D-04 -0.936778D-02 -0.254596D-02  0.939093D-03
     16  0.428367D-01 -0.465281D-04 -0.141827D-03 -0.157320D-01 -0.272311D-02
     17 -0.645808D-04 -0.132330D-01 -0.216999D-04  0.676326D-02  0.251411D-02
     18 -0.345640D-04 -0.293495D-04 -0.133594D-01  0.361599D-02  0.132215D-02
                6             7             8             9            10 
      6  0.122568D+00
      7 -0.910975D-03  0.333938D-01
      8  0.140224D-01  0.143778D-01  0.295338D+00
      9  0.104509D-01 -0.893998D-02 -0.154149D+00  0.138809D+00
     10  0.171988D-02  0.284955D-02  0.482064D-04  0.172387D-02  0.336501D-01
     11 -0.233932D-01  0.146960D-02  0.541282D-02  0.227903D-01  0.396594D-03
     12 -0.575432D-02 -0.892466D-03 -0.408487D-02 -0.680080D-02  0.166979D-01
     13  0.113050D-02 -0.133510D-01 -0.162121D-02  0.129247D-02 -0.134178D-01
     14  0.948610D-03  0.482794D-02  0.179813D-02 -0.112479D-02  0.171354D-03
     15  0.716844D-03 -0.284217D-02 -0.110657D-02  0.821557D-03  0.583369D-02
     16 -0.147163D-02 -0.157647D-01  0.261341D-02 -0.158971D-02 -0.157851D-01
     17  0.128811D-02 -0.656675D-02  0.231408D-02 -0.138020D-02 -0.203333D-03
     18  0.704675D-03  0.397160D-02 -0.139942D-02  0.793292D-03 -0.771382D-02
               11            12            13            14            15 
     11  0.447805D-01
     12  0.931673D-02  0.390947D+00
     13 -0.719099D-04 -0.166616D-02  0.250524D-01
     14 -0.607342D-04  0.799149D-04  0.493090D-04  0.381036D-02
     15  0.112868D-03  0.161661D-02 -0.841938D-03 -0.413791D-04  0.484436D-02
     16  0.854161D-04  0.304195D-02 -0.257599D-01  0.810304D-05 -0.580351D-05
     17  0.937166D-05  0.856250D-04  0.869479D-05  0.135561D-02  0.000000D+00
     18  0.793207D-04  0.284027D-02 -0.621053D-05  0.000000D+00  0.136841D-02
               16            17            18 
     16  0.302049D-01
     17  0.627112D-04  0.703982D-02
     18  0.167012D-03  0.275949D-04  0.765276D-02
 FormGI is forming the generalized inverse of G from B-inverse, IUseBI=4.
 Force constants in internal coordinates: 
                1             2             3             4             5 
      1  0.390733D+00
      2 -0.204210D-03  0.390751D+00
      3 -0.201644D-03 -0.198541D-03  0.391965D+00
      4 -0.270155D-02 -0.272747D-02 -0.234801D-02  0.250526D-01
      5 -0.229621D-02 -0.225784D-02 -0.224094D-02  0.257599D-01  0.302050D-01
      6  0.165799D-02  0.164720D-02 -0.322342D-02  0.522559D-03 -0.529159D-03
      7  0.166546D-02 -0.318636D-02  0.170613D-02  0.911995D-03 -0.114918D-02
      8 -0.318204D-02  0.197098D-02  0.161942D-02  0.406026D-02 -0.542015D-02
      9 -0.401241D-02  0.163460D-02  0.127942D-02 -0.452571D-02  0.524385D-02
     10 -0.319100D-02  0.167272D-02  0.171706D-02  0.914116D-03 -0.114815D-02
     11  0.197248D-02 -0.323187D-02  0.155532D-02  0.406834D-02 -0.538925D-02
     12  0.164304D-02 -0.401689D-02  0.123645D-02 -0.471698D-02  0.536272D-02
     13  0.196903D-02  0.202668D-02 -0.203043D-02  0.533248D-02 -0.539019D-02
     14  0.161049D-02  0.161703D-02 -0.366124D-02 -0.421839D-02  0.559312D-02
     15 -0.719445D-02  0.360558D-02  0.289884D-02 -0.465449D-03 -0.176296D-03
     16 -0.202794D-04  0.629696D-02 -0.490482D-02  0.101896D-02  0.132775D-03
     17  0.103151D-02  0.103766D-02  0.978437D-03  0.153787D-01 -0.184974D-01
     18  0.177273D-02  0.176641D-02 -0.351881D-02 -0.188736D-03  0.417570D-03
     19 -0.145889D-02 -0.144692D-02  0.301948D-02  0.284428D-03 -0.397270D-03
     20 -0.177986D-02  0.355288D-02 -0.175111D-02 -0.936246D-04  0.207915D-03
     21  0.146301D-02 -0.291742D-02  0.150614D-02  0.149564D-03 -0.204396D-03
     22 -0.355259D-02  0.178647D-02  0.176770D-02  0.951113D-04 -0.209655D-03
     23  0.292189D-02 -0.147049D-02 -0.151334D-02 -0.134864D-03  0.192874D-03
                6             7             8             9            10 
      6  0.681822D-02
      7 -0.340339D-02  0.696292D-02
      8  0.852711D-03  0.118050D-02  0.245064D-01
      9 -0.935583D-03 -0.127661D-02 -0.158911D-01  0.307066D-01
     10 -0.340687D-02 -0.335738D-02 -0.128178D-02  0.144383D-02  0.696515D-02
     11  0.898498D-03 -0.129958D-02 -0.978611D-02  0.602879D-02  0.116372D-02
     12 -0.917028D-03  0.143544D-02  0.601381D-02 -0.129469D-01 -0.129309D-02
     13 -0.170470D-02  0.127723D-02 -0.104142D-01  0.545893D-02  0.126902D-02
     14  0.180766D-02 -0.131773D-02  0.557100D-02 -0.133567D-01 -0.130254D-02
     15 -0.828728D-04 -0.961116D-04  0.861523D-02  0.148155D-01  0.162048D-03
     16  0.711580D-04 -0.102458D-03 -0.619758D-03 -0.566709D-03  0.549681D-04
     17  0.739654D-03  0.975812D-03  0.498938D-02 -0.510825D-02  0.967331D-03
     18  0.669938D-02 -0.341039D-02 -0.435799D-03 -0.741682D-04 -0.341398D-02
     19 -0.669072D-02  0.340685D-02  0.822539D-05 -0.615464D-03  0.341104D-02
     20  0.334593D-02 -0.678313D-02  0.456210D-04  0.370662D-03  0.337359D-02
     21 -0.334443D-02  0.677097D-02  0.280203D-03  0.240938D-03 -0.336204D-02
     22 -0.335344D-02 -0.337274D-02  0.481420D-03  0.444830D-03  0.678757D-02
     23  0.334629D-02  0.336412D-02  0.271977D-03  0.856402D-03 -0.677308D-02
               11            12            13            14            15 
     11  0.246842D-01
     12 -0.159437D-01  0.307556D-01
     13 -0.105277D-01  0.549021D-02  0.257664D-01
     14  0.554423D-02 -0.133694D-01 -0.157732D-01  0.313849D-01
     15 -0.375732D-02 -0.693309D-02 -0.495532D-02 -0.778572D-02  0.234307D-01
     16 -0.793355D-02 -0.131174D-01  0.868950D-02  0.135491D-01 -0.118647D-02
     17  0.506715D-02 -0.514758D-02  0.531953D-02 -0.512025D-02 -0.118877D-03
     18 -0.405532D-03 -0.494997D-04  0.125994D-03  0.840630D-03 -0.509967D-03
     19 -0.345862D-04 -0.638250D-03  0.754258D-03  0.524308D-03 -0.607239D-03
     20 -0.473611D-03 -0.434893D-03  0.639257D-04  0.429067D-03  0.416283D-03
     21 -0.290956D-03 -0.865819D-03  0.379924D-03  0.254992D-03  0.521140D-03
     22 -0.680791D-04 -0.385393D-03 -0.620688D-04 -0.411562D-03  0.926250D-03
     23 -0.256370D-03 -0.227569D-03 -0.374334D-03 -0.269316D-03  0.112838D-02
               16            17            18            19            20 
     16  0.250255D-01
     17  0.161620D-03  0.175809D-01
     18  0.822817D-03 -0.139867D-03  0.680764D-02
     19  0.112718D-02  0.154976D-03 -0.672273D-02  0.683469D-02
     20  0.810674D-03 -0.775662D-04  0.340069D-02 -0.335738D-02  0.682735D-02
     21  0.103525D-02  0.835014D-04 -0.336064D-02  0.341623D-02 -0.674769D-02
     22 -0.121435D-04  0.623007D-04 -0.340695D-02  0.336535D-02  0.342666D-02
     23 -0.919276D-04 -0.714749D-04  0.336209D-02 -0.341845D-02 -0.339030D-02
               21            22            23 
     21  0.684912D-02
     22 -0.338704D-02  0.683361D-02
     23  0.343289D-02 -0.675239D-02  0.685134D-02
 Leave Link  716 at Fri Oct 18 01:07:40 2019, MaxMem=   104857600 cpu:               1.5 elap:               0.1
 (Enter /share/home/wli/program/opt/Chem_soft/g16/l103.exe)

 GradGradGradGradGradGradGradGradGradGradGradGradGradGradGradGradGradGrad
 Berny optimization.
 Red2BG is reusing G-inverse.
 Internal  Forces:  Max     0.003253533 RMS     0.000892123
 Search for a saddle point.
 Step number   1 out of a maximum of   33
 All quantities printed in internal units (Hartrees-Bohrs-Radians)
 Swapping is turned off.
 Second derivative matrix not updated -- analytic derivatives used.
 ITU=  0
     Eigenvalues ---   -0.01776   0.02996   0.03018   0.03759   0.04187
     Eigenvalues ---    0.04546   0.05492   0.06336   0.06406   0.39068
     Eigenvalues ---    0.39153   0.39244
 Eigenvectors required to have negative eigenvalues:
                          R4        R5        D1        A8        A7
   1                   -0.59592   0.58246   0.44869   0.13608  -0.13267
                          A4        A9        A3        A6        A5
   1                   -0.13045  -0.12917   0.12889   0.12733   0.02414
 RFO step:  Lambda0=5.717725985D-04 Lambda=-1.20623666D-04.
 Linear search not attempted -- option 19 set.
 Iteration  1 RMS(Cart)=  0.01495049 RMS(Int)=  0.00076765
 Iteration  2 RMS(Cart)=  0.00038662 RMS(Int)=  0.00066308
 Iteration  3 RMS(Cart)=  0.00000002 RMS(Int)=  0.00066308
 ITry= 1 IFail=0 DXMaxC= 6.12D-02 DCOld= 1.00D+10 DXMaxT= 3.00D-01 DXLimC= 3.00D+00 Rises=F
 Variable       Old X    -DE/DX   Delta X   Delta X   Delta X     New X
                                 (Linear)    (Quad)   (Total)
    R1        2.02150   0.00088   0.00000   0.00166   0.00166   2.02316
    R2        2.02150   0.00088   0.00000   0.00160   0.00160   2.02310
    R3        2.02153   0.00084   0.00000   0.00155   0.00155   2.02307
    R4        4.61365   0.00234   0.00000  -0.09271  -0.09271   4.52093
    R5        4.56930  -0.00325   0.00000   0.07769   0.07769   4.64700
    A1        2.09003  -0.00001   0.00000   0.00549   0.00364   2.09367
    A2        2.08995   0.00001   0.00000   0.00560   0.00378   2.09373
    A3        1.52013   0.00006   0.00000   0.03310   0.03302   1.55315
    A4        1.62132  -0.00004   0.00000  -0.03270  -0.03262   1.58871
    A5        2.08994   0.00002   0.00000   0.00596   0.00415   2.09409
    A6        1.52014   0.00006   0.00000   0.03255   0.03247   1.55261
    A7        1.62133  -0.00004   0.00000  -0.03313  -0.03305   1.58828
    A8        1.52038  -0.00004   0.00000   0.03205   0.03197   1.55234
    A9        1.62148   0.00000   0.00000  -0.03188  -0.03180   1.58969
   A10        3.14145   0.00002   0.00000   0.00041   0.00041   3.14186
   A11        3.14182  -0.00003   0.00000   0.00043   0.00043   3.14225
    D1        2.96690   0.00008   0.00000   0.11179   0.11203   3.07893
    D2        2.09447  -0.00002   0.00000  -0.00025  -0.00024   2.09423
    D3       -2.09444   0.00002   0.00000   0.00025   0.00023  -2.09421
    D4       -2.09436  -0.00000   0.00000   0.00008   0.00007  -2.09429
    D5        2.09437   0.00000   0.00000  -0.00004  -0.00006   2.09431
    D6        2.09436   0.00001   0.00000   0.00033   0.00031   2.09467
    D7       -2.09437  -0.00001   0.00000  -0.00029  -0.00029  -2.09466
         Item               Value     Threshold  Converged?
 Maximum Force            0.003254     0.000450     NO 
 RMS     Force            0.000892     0.000300     NO 
 Maximum Displacement     0.061202     0.001800     NO 
 RMS     Displacement     0.014917     0.001200     NO 
 Predicted change in Energy= 2.343370D-04
 Lowest energy point so far.  Saving SCF results.
 GradGradGradGradGradGradGradGradGradGradGradGradGradGradGradGradGradGrad

 Leave Link  103 at Fri Oct 18 01:07:41 2019, MaxMem=   104857600 cpu:              15.1 elap:               0.7
 (Enter /share/home/wli/program/opt/Chem_soft/g16/l202.exe)
                          Input orientation:                          
 ---------------------------------------------------------------------
 Center     Atomic      Atomic             Coordinates (Angstroms)
 Number     Number       Type             X           Y           Z
 ---------------------------------------------------------------------
      1          6           0        0.736687   -0.000174    0.000392
      2          1           0        0.755762   -0.941284   -0.509658
      3          1           0        0.755810    0.911974   -0.559750
      4          1           0        0.756603    0.028563    1.070385
      5         17           0        3.129062    0.000510    0.000008
      6         35           0       -1.722399    0.000471   -0.000331
 ---------------------------------------------------------------------
                    Distance matrix (angstroms):
                    1          2          3          4          5
     1  C    0.000000
     2  H    1.070609   0.000000
     3  H    1.070579   1.853935   0.000000
     4  H    1.070564   1.853952   1.854119   0.000000
     5  Cl   2.392376   2.603707   2.603156   2.602894   0.000000
     6  Br   2.459085   2.699555   2.699130   2.700495   4.851461
                    6
     6  Br   0.000000
 Stoichiometry    CH3BrCl(1-)
 Framework group  C1[X(CH3BrCl)]
 Deg. of freedom    12
 Full point group                 C1      NOp   1
 RotChk:  IX=2 Diff= 2.26D+00
 Largest Abelian subgroup         C1      NOp   1
 Largest concise Abelian subgroup C1      NOp   1
                         Standard orientation:                         
 ---------------------------------------------------------------------
 Center     Atomic      Atomic             Coordinates (Angstroms)
 Number     Number       Type             X           Y           Z
 ---------------------------------------------------------------------
      1          6           0       -0.743270    0.000657   -0.000290
      2          1           0       -0.762310   -0.040154   -1.069951
      3          1           0       -0.762337   -0.905366    0.569708
      4          1           0       -0.763279    0.947407    0.499081
      5         17           0       -3.135646   -0.000185    0.000081
      6         35           0        1.715815   -0.000077    0.000044
 ---------------------------------------------------------------------
 Rotational constants (GHZ):         145.8849659           0.8644252           0.8644245
 Leave Link  202 at Fri Oct 18 01:07:41 2019, MaxMem=   104857600 cpu:               1.8 elap:               0.1
 (Enter /share/home/wli/program/opt/Chem_soft/g16/l301.exe)
 Standard basis: def2TZVP (5D, 7F)
 Ernie: Thresh=  0.10000D-02 Tol=  0.10000D-05 Strict=F.
 There are   151 symmetry adapted cartesian basis functions of A   symmetry.
 There are   134 symmetry adapted basis functions of A   symmetry.
   134 basis functions,   258 primitive gaussians,   151 cartesian basis functions
    31 alpha electrons       31 beta electrons
       nuclear repulsion energy       173.3540164560 Hartrees.
 IExCor=  402 DFT=T Ex+Corr=B3LYP ExCW=0 ScaHFX=  0.200000
 ScaDFX=  0.800000  0.720000  1.000000  0.810000 ScalE2=  1.000000  1.000000
 IRadAn=      5 IRanWt=     -1 IRanGd=            0 ICorTp=0 IEmpDi=141
 NAtoms=    6 NActive=    6 NUniq=    6 SFac= 1.00D+00 NAtFMM=   60 NAOKFM=F Big=F
 Integral buffers will be    131072 words long.
 Raffenetti 2 integral format.
 Two-electron integral symmetry is turned on.
 R6Disp:  Grimme-D3(BJ) Dispersion energy=       -0.0069992592 Hartrees.
 Nuclear repulsion after empirical dispersion term =      173.3470171967 Hartrees.
 Force inversion solution in PCM.
 ------------------------------------------------------------------------------
 Polarizable Continuum Model (PCM)
 =================================
 Model                : PCM.
 Atomic radii         : UFF (Universal Force Field).
 Polarization charges : Total charges.
 Charge compensation  : None.
 Solution method      : Matrix inversion.
 Cavity type          : Scaled VdW (van der Waals Surface) (Alpha=1.100).
 Cavity algorithm     : GePol (No added spheres)
                        Default sphere list used, NSphG=    6.
                        Lebedev-Laikov grids with approx.  5.0 points / Ang**2.
                        Smoothing algorithm: York/Karplus (Gamma=1.0000).
                        Polarization charges: spherical gaussians, with
                                              point-specific exponents (IZeta= 3).
                        Self-potential: point-specific (ISelfS= 7).
                        Self-field    : sphere-specific E.n sum rule (ISelfD= 2).
 1st derivatives      : Analytical E(r).r(x)/FMM algorithm (CHGder, D1EAlg=3).
                        Cavity 1st derivative terms included.
 2nd derivatives      : Analytical E(r).r(xy)/FMM algorithm (CHGder, D2EAlg=3).
                        Cavity 2nd derivative terms included.
 Solvent              : Dichloromethane, Eps=   8.930000 Eps(inf)=   2.028346
 ------------------------------------------------------------------------------
 Spheres list:
 ISph  on   Nord     Re0    Alpha      Xe            Ye            Ze
    1   C      1    1.9255  1.100     -0.743270      0.000657     -0.000290
    2   H      2    1.4430  1.100     -0.762310     -0.040154     -1.069951
    3   H      3    1.4430  1.100     -0.762337     -0.905366      0.569708
    4   H      4    1.4430  1.100     -0.763279      0.947407      0.499081
    5  Cl      5    1.9735  1.100     -3.135646     -0.000185      0.000081
    6  Br      6    2.0945  1.100      1.715815     -0.000077      0.000044
 ------------------------------------------------------------------------------
 GePol: Number of generator spheres                  =       6
 GePol: Total number of spheres                      =       6
 GePol: Number of exposed spheres                    =       6 (100.00%)
 GePol: Number of points                             =     874
 GePol: Average weight of points                     =       0.16
 GePol: Minimum weight of points                     =   0.52D-11
 GePol: Maximum weight of points                     =    0.21616
 GePol: Number of points with low weight             =      22
 GePol: Fraction of low-weight points (<1% of avg)   =       2.52%
 GePol: Cavity surface area                          =    136.334 Ang**2
 GePol: Cavity volume                                =    119.764 Ang**3
 Leave Link  301 at Fri Oct 18 01:07:41 2019, MaxMem=   104857600 cpu:               3.1 elap:               0.2
 (Enter /share/home/wli/program/opt/Chem_soft/g16/l302.exe)
 NPDir=0 NMtPBC=     1 NCelOv=     1 NCel=       1 NClECP=     1 NCelD=      1
         NCelK=      1 NCelE2=     1 NClLst=     1 CellRange=     0.0.
 One-electron integrals computed using PRISM.
 One-electron integral symmetry used in STVInt
 PrsmSu:  requested number of processors reduced to:  13 ShMem   1 Linda.
   1 Symmetry operations used in ECPInt.
 ECPInt:  NShTT=    1378 NPrTT=    5593 LenC2=    1324 LenP2D=    4259.
 LDataN:  DoStor=T MaxTD1= 6 Len=  172
 NBasis=   134 RedAO= T EigKep=  1.43D-03  NBF=   134
 NBsUse=   134 1.00D-06 EigRej= -1.00D+00 NBFU=   134
 Precomputing XC quadrature grid using
 IXCGrd= 4 IRadAn=           5 IRanWt=          -1 IRanGd=           0 AccXCQ= 0.00D+00.
 Generated NRdTot=       0 NPtTot=           0 NUsed=           0 NTot=          32
 NSgBfM=   150   150   150   150   150 MxSgAt=     6 MxSgA2=     6.
 Leave Link  302 at Fri Oct 18 01:07:41 2019, MaxMem=   104857600 cpu:               7.4 elap:               0.3
 (Enter /share/home/wli/program/opt/Chem_soft/g16/l303.exe)
 DipDrv:  MaxL=1.
 Leave Link  303 at Fri Oct 18 01:07:41 2019, MaxMem=   104857600 cpu:               3.5 elap:               0.2
 (Enter /share/home/wli/program/opt/Chem_soft/g16/l401.exe)
 Initial guess from the checkpoint file:  "ts_pcm_dichloromethane_maugccpvtz.chk"
 B after Tr=     0.000000    0.000000    0.000000
         Rot=    0.602621    0.369945    0.600539   -0.373285 Ang= 105.88 deg.
 Guess basis will be translated and rotated to current coordinates.
 JPrj=2 DoOrth=T DoCkMO=T.
 Generating alternative initial guess.
 ExpMin= 9.52D-02 ExpMax= 5.65D+05 ExpMxC= 5.46D+03 IAcc=2 IRadAn=         4 AccDes= 0.00D+00
 Harris functional with IExCor=  402 and IRadAn=       4 diagonalized for initial guess.
 HarFok:  IExCor=  402 AccDes= 0.00D+00 IRadAn=         4 IDoV= 1 UseB2=F ITyADJ=14
 ICtDFT=  3500011 ScaDFX=  1.000000  1.000000  1.000000  1.000000
 FoFCou: FMM=F IPFlag=           0 FMFlag=      100000 FMFlg1=           0
         NFxFlg=           0 DoJE=T BraDBF=F KetDBF=T FulRan=T
         wScrn=  0.000000 ICntrl=       500 IOpCl=  0 I1Cent=   200000004 NGrid=           0
         NMat0=    1 NMatS0=      1 NMatT0=    0 NMatD0=    1 NMtDS0=    0 NMtDT0=    0
 Petite list used in FoFCou.
 Harris En= -3074.57092092816    
 Leave Link  401 at Fri Oct 18 01:07:42 2019, MaxMem=   104857600 cpu:              18.5 elap:               0.8
 (Enter /share/home/wli/program/opt/Chem_soft/g16/l502.exe)
 Keep R1 ints in memory in canonical form, NReq=64315121.
 FoFCou: FMM=F IPFlag=           0 FMFlag=           0 FMFlg1=           0
         NFxFlg=           0 DoJE=F BraDBF=F KetDBF=F FulRan=T
         wScrn=  0.000000 ICntrl=       600 IOpCl=  0 I1Cent=           0 NGrid=           0
         NMat0=    1 NMatS0=   9045 NMatT0=    0 NMatD0=    1 NMtDS0=    0 NMtDT0=    0
 Symmetry not used in FoFCou.
 Two-electron integral symmetry not used.
 Closed shell SCF:
 Using DIIS extrapolation, IDIIS=  1040.
 NGot=   104857600 LenX=    63896377 LenY=    63873135
 Requested convergence on RMS density matrix=1.00D-08 within 128 cycles.
 Requested convergence on MAX density matrix=1.00D-06.
 Requested convergence on             energy=1.00D-06.
 No special actions if energy rises.

 Cycle   1  Pass 1  IDiag  1:
 CoulSu:  requested number of processors reduced to:  17 ShMem   1 Linda.
 Inv3:  Mode=1 IEnd=     2291628.
 Iteration    1 A*A^-1 deviation from unit magnitude is 2.66D-15 for     81.
 Iteration    1 A*A^-1 deviation from orthogonality  is 1.88D-15 for    611    216.
 Iteration    1 A^-1*A deviation from unit magnitude is 2.44D-15 for    872.
 Iteration    1 A^-1*A deviation from orthogonality  is 7.82D-15 for    830    612.
 CoulSu:  requested number of processors reduced to:  17 ShMem   1 Linda.
 CoulSu:  requested number of processors reduced to:  17 ShMem   1 Linda.
 E= -3074.49992837407    
 DIIS: error= 2.03D-03 at cycle   1 NSaved=   1.
 NSaved= 1 IEnMin= 1 EnMin= -3074.49992837407     IErMin= 1 ErrMin= 2.03D-03
 ErrMax= 2.03D-03  0.00D+00 EMaxC= 1.00D-01 BMatC= 3.41D-04 BMatP= 3.41D-04
 IDIUse=3 WtCom= 9.80D-01 WtEn= 2.03D-02
 Coeff-Com:  0.100D+01
 Coeff-En:   0.100D+01
 Coeff:      0.100D+01
 Gap=     0.635 Goal=   None    Shift=    0.000
 GapD=    0.635 DampG=2.000 DampE=1.000 DampFc=2.0000 IDamp=-1.
 RMSDP=2.81D-04 MaxDP=5.80D-03              OVMax= 2.80D-02

 Cycle   2  Pass 1  IDiag  1:
 E= -3074.50056778928     Delta-E=       -0.000639415211 Rises=F Damp=F
 DIIS: error= 4.61D-04 at cycle   2 NSaved=   2.
 NSaved= 2 IEnMin= 2 EnMin= -3074.50056778928     IErMin= 2 ErrMin= 4.61D-04
 ErrMax= 4.61D-04  0.00D+00 EMaxC= 1.00D-01 BMatC= 4.86D-05 BMatP= 3.41D-04
 IDIUse=3 WtCom= 9.95D-01 WtEn= 4.61D-03
 Coeff-Com:  0.914D-01 0.909D+00
 Coeff-En:   0.000D+00 0.100D+01
 Coeff:      0.910D-01 0.909D+00
 Gap=     0.200 Goal=   None    Shift=    0.000
 RMSDP=1.47D-04 MaxDP=3.56D-03 DE=-6.39D-04 OVMax= 7.30D-03

 Cycle   3  Pass 1  IDiag  1:
 E= -3074.50056064003     Delta-E=        0.000007149243 Rises=F Damp=F
 DIIS: error= 5.90D-04 at cycle   3 NSaved=   3.
 NSaved= 3 IEnMin= 2 EnMin= -3074.50056778928     IErMin= 2 ErrMin= 4.61D-04
 ErrMax= 5.90D-04  0.00D+00 EMaxC= 1.00D-01 BMatC= 7.01D-05 BMatP= 4.86D-05
 IDIUse=3 WtCom= 2.92D-01 WtEn= 7.08D-01
 Coeff-Com: -0.242D-01 0.563D+00 0.461D+00
 Coeff-En:   0.000D+00 0.525D+00 0.475D+00
 Coeff:     -0.705D-02 0.536D+00 0.471D+00
 Gap=     0.200 Goal=   None    Shift=    0.000
 RMSDP=7.13D-05 MaxDP=2.06D-03 DE= 7.15D-06 OVMax= 6.03D-03

 Cycle   4  Pass 1  IDiag  1:
 E= -3074.50063638032     Delta-E=       -0.000075740287 Rises=F Damp=F
 DIIS: error= 6.08D-05 at cycle   4 NSaved=   4.
 NSaved= 4 IEnMin= 4 EnMin= -3074.50063638032     IErMin= 4 ErrMin= 6.08D-05
 ErrMax= 6.08D-05  0.00D+00 EMaxC= 1.00D-01 BMatC= 1.17D-06 BMatP= 4.86D-05
 IDIUse=1 WtCom= 1.00D+00 WtEn= 0.00D+00
 Coeff-Com: -0.131D-01 0.124D+00 0.162D+00 0.727D+00
 Coeff:     -0.131D-01 0.124D+00 0.162D+00 0.727D+00
 Gap=     0.200 Goal=   None    Shift=    0.000
 RMSDP=6.95D-06 MaxDP=1.54D-04 DE=-7.57D-05 OVMax= 4.28D-04

 Cycle   5  Pass 1  IDiag  1:
 E= -3074.50063693762     Delta-E=       -0.000000557300 Rises=F Damp=F
 DIIS: error= 3.17D-05 at cycle   5 NSaved=   5.
 NSaved= 5 IEnMin= 5 EnMin= -3074.50063693762     IErMin= 5 ErrMin= 3.17D-05
 ErrMax= 3.17D-05  0.00D+00 EMaxC= 1.00D-01 BMatC= 1.29D-07 BMatP= 1.17D-06
 IDIUse=1 WtCom= 1.00D+00 WtEn= 0.00D+00
 Coeff-Com: -0.366D-02 0.523D-02 0.414D-01 0.263D+00 0.694D+00
 Coeff:     -0.366D-02 0.523D-02 0.414D-01 0.263D+00 0.694D+00
 Gap=     0.200 Goal=   None    Shift=    0.000
 RMSDP=3.58D-06 MaxDP=1.09D-04 DE=-5.57D-07 OVMax= 2.44D-04

 Cycle   6  Pass 1  IDiag  1:
 E= -3074.50063702623     Delta-E=       -0.000000088612 Rises=F Damp=F
 DIIS: error= 1.99D-05 at cycle   6 NSaved=   6.
 NSaved= 6 IEnMin= 6 EnMin= -3074.50063702623     IErMin= 6 ErrMin= 1.99D-05
 ErrMax= 1.99D-05  0.00D+00 EMaxC= 1.00D-01 BMatC= 4.32D-08 BMatP= 1.29D-07
 IDIUse=1 WtCom= 1.00D+00 WtEn= 0.00D+00
 Coeff-Com: -0.168D-04-0.178D-01 0.306D-02 0.443D-01 0.411D+00 0.560D+00
 Coeff:     -0.168D-04-0.178D-01 0.306D-02 0.443D-01 0.411D+00 0.560D+00
 Gap=     0.200 Goal=   None    Shift=    0.000
 RMSDP=1.43D-06 MaxDP=3.04D-05 DE=-8.86D-08 OVMax= 1.29D-04

 Cycle   7  Pass 1  IDiag  1:
 E= -3074.50063707472     Delta-E=       -0.000000048489 Rises=F Damp=F
 DIIS: error= 2.54D-06 at cycle   7 NSaved=   7.
 NSaved= 7 IEnMin= 7 EnMin= -3074.50063707472     IErMin= 7 ErrMin= 2.54D-06
 ErrMax= 2.54D-06  0.00D+00 EMaxC= 1.00D-01 BMatC= 9.44D-10 BMatP= 4.32D-08
 IDIUse=1 WtCom= 1.00D+00 WtEn= 0.00D+00
 Coeff-Com:  0.222D-03-0.781D-02-0.670D-03 0.435D-02 0.114D+00 0.228D+00
 Coeff-Com:  0.662D+00
 Coeff:      0.222D-03-0.781D-02-0.670D-03 0.435D-02 0.114D+00 0.228D+00
 Coeff:      0.662D+00
 Gap=     0.200 Goal=   None    Shift=    0.000
 RMSDP=2.23D-07 MaxDP=6.48D-06 DE=-4.85D-08 OVMax= 1.43D-05

 Cycle   8  Pass 1  IDiag  1:
 E= -3074.50063707566     Delta-E=       -0.000000000939 Rises=F Damp=F
 DIIS: error= 3.85D-07 at cycle   8 NSaved=   8.
 NSaved= 8 IEnMin= 8 EnMin= -3074.50063707566     IErMin= 8 ErrMin= 3.85D-07
 ErrMax= 3.85D-07  0.00D+00 EMaxC= 1.00D-01 BMatC= 1.74D-11 BMatP= 9.44D-10
 IDIUse=1 WtCom= 1.00D+00 WtEn= 0.00D+00
 Coeff-Com:  0.537D-04-0.123D-02-0.123D-03 0.441D-03 0.847D-02 0.302D-01
 Coeff-Com:  0.164D+00 0.799D+00
 Coeff:      0.537D-04-0.123D-02-0.123D-03 0.441D-03 0.847D-02 0.302D-01
 Coeff:      0.164D+00 0.799D+00
 Gap=     0.200 Goal=   None    Shift=    0.000
 RMSDP=4.60D-08 MaxDP=1.52D-06 DE=-9.39D-10 OVMax= 1.28D-06

 Cycle   9  Pass 1  IDiag  1:
 E= -3074.50063707570     Delta-E=       -0.000000000042 Rises=F Damp=F
 DIIS: error= 8.68D-08 at cycle   9 NSaved=   9.
 NSaved= 9 IEnMin= 9 EnMin= -3074.50063707570     IErMin= 9 ErrMin= 8.68D-08
 ErrMax= 8.68D-08  0.00D+00 EMaxC= 1.00D-01 BMatC= 1.72D-12 BMatP= 1.74D-11
 IDIUse=1 WtCom= 1.00D+00 WtEn= 0.00D+00
 Coeff-Com:  0.248D-05 0.848D-04 0.367D-04-0.159D-03-0.367D-02-0.572D-02
 Coeff-Com: -0.179D-02 0.276D+00 0.735D+00
 Coeff:      0.248D-05 0.848D-04 0.367D-04-0.159D-03-0.367D-02-0.572D-02
 Coeff:     -0.179D-02 0.276D+00 0.735D+00
 Gap=     0.200 Goal=   None    Shift=    0.000
 RMSDP=1.44D-08 MaxDP=5.68D-07 DE=-4.18D-11 OVMax= 4.47D-07

 Cycle  10  Pass 1  IDiag  1:
 E= -3074.50063707569     Delta-E=        0.000000000012 Rises=F Damp=F
 DIIS: error= 2.10D-08 at cycle  10 NSaved=  10.
 NSaved=10 IEnMin= 9 EnMin= -3074.50063707570     IErMin=10 ErrMin= 2.10D-08
 ErrMax= 2.10D-08  0.00D+00 EMaxC= 1.00D-01 BMatC= 4.24D-14 BMatP= 1.72D-12
 IDIUse=1 WtCom= 1.00D+00 WtEn= 0.00D+00
 Coeff-Com:  0.122D-06 0.676D-04 0.120D-04-0.982D-04-0.178D-02-0.328D-02
 Coeff-Com: -0.491D-02 0.946D-01 0.283D+00 0.632D+00
 Coeff:      0.122D-06 0.676D-04 0.120D-04-0.982D-04-0.178D-02-0.328D-02
 Coeff:     -0.491D-02 0.946D-01 0.283D+00 0.632D+00
 Gap=     0.200 Goal=   None    Shift=    0.000
 RMSDP=1.04D-09 MaxDP=2.05D-08 DE= 1.18D-11 OVMax= 5.65D-08

 CoulSu:  requested number of processors reduced to:  17 ShMem   1 Linda.
 CoulSu:  requested number of processors reduced to:  16 ShMem   1 Linda.
 Error on total polarization charges =  0.01934
 SCF Done:  E(RB3LYP) =  -3074.50063708     A.U. after   10 cycles
            NFock= 10  Conv=0.10D-08     -V/T= 2.0015
 KE= 3.069824807188D+03 PE=-7.699859809667D+03 EE= 1.382187348207D+03
 Leave Link  502 at Fri Oct 18 01:07:48 2019, MaxMem=   104857600 cpu:             113.7 elap:               5.4
 (Enter /share/home/wli/program/opt/Chem_soft/g16/l801.exe)
 DoSCS=F DFT=T ScalE2(SS,OS)=  1.000000  1.000000
 Range of M.O.s used for correlation:     1   134
 NBasis=   134 NAE=    31 NBE=    31 NFC=     0 NFV=     0
 NROrb=    134 NOA=    31 NOB=    31 NVA=   103 NVB=   103
 Leave Link  801 at Fri Oct 18 01:07:48 2019, MaxMem=   104857600 cpu:               1.2 elap:               0.1
 (Enter /share/home/wli/program/opt/Chem_soft/g16/l1101.exe)
 Using compressed storage, NAtomX=     6.
 Will process      7 centers per pass.
 PrsmSu:  requested number of processors reduced to:  11 ShMem   1 Linda.
   1 Symmetry operations used in ECPInt.
 ECPInt:  NShTT=    1378 NPrTT=    5593 LenC2=    1324 LenP2D=    4259.
 LDataN:  DoStor=T MaxTD1= 7 Len=  274
 Number of processors reduced to  18 by ecpmxn.
 R6Disp: Adding Grimme-D3(BJ) dispersion energy 1st derivatives to the gradient.
 Leave Link 1101 at Fri Oct 18 01:07:48 2019, MaxMem=   104857600 cpu:               8.2 elap:               0.4
 (Enter /share/home/wli/program/opt/Chem_soft/g16/l1102.exe)
 Symmetrizing basis deriv contribution to polar:
 IMax=3 JMax=2 DiffMx= 0.00D+00
 Leave Link 1102 at Fri Oct 18 01:07:48 2019, MaxMem=   104857600 cpu:               2.4 elap:               0.1
 (Enter /share/home/wli/program/opt/Chem_soft/g16/l1110.exe)
 Forming Gx(P) for the SCF density, NAtomX=     6.
 Integral derivatives from FoFJK, PRISM(SPDF).
 Do as many integral derivatives as possible in FoFJK.
 G2DrvN: MDV=     104857020.
 G2DrvN: will do     7 centers at a time, making    1 passes.
 Calling FoFCou, ICntrl=  3107 FMM=F I1Cent=   0 AccDes= 0.00D+00.
 FoFJK:  IHMeth= 1 ICntrl=    3107 DoSepK=F KAlg= 0 I1Cent=           0 FoldK=F
 IRaf=         0 NMat=       1 IRICut=       1 DoRegI=T DoRafI=F ISym2E= 0 IDoP0=0 IntGTp=1.
 FoFCou: FMM=F IPFlag=           0 FMFlag=      100000 FMFlg1=           0
         NFxFlg=           0 DoJE=F BraDBF=F KetDBF=F FulRan=T
         wScrn=  0.000000 ICntrl=      3107 IOpCl=  0 I1Cent=           0 NGrid=           0
         NMat0=    1 NMatS0=      1 NMatT0=    0 NMatD0=    1 NMtDS0=    0 NMtDT0=    0
 Symmetry not used in FoFCou.
 NEqPCM:  Using equilibrium solvation (IEInf=0, Eps=   8.9300, EpsInf=   2.0283)
 G2PCM: DoFxE=T DoFxN=T DoGrad=T DoDP/DQ/DG/TGxP=FFFF NFrqRd=   0 IEInf=0 SqF1=F DoCFld=F IF1Alg=4.
 GePol: Maximum number of non-zero 1st derivatives   =     379
 CoulSu:  requested number of processors reduced to:  13 ShMem   1 Linda.
 CoulSu:  requested number of processors reduced to:  13 ShMem   1 Linda.
 CoulSu:  requested number of processors reduced to:  13 ShMem   1 Linda.
 CoulSu:  requested number of processors reduced to:  17 ShMem   1 Linda.
 CoulSu:  requested number of processors reduced to:  23 ShMem   1 Linda.
 CoulSu:  requested number of processors reduced to:  13 ShMem   1 Linda.
 CoulSu:  requested number of processors reduced to:  13 ShMem   1 Linda.
 CoulSu:  requested number of processors reduced to:  13 ShMem   1 Linda.
 CoulSu:  requested number of processors reduced to:  13 ShMem   1 Linda.
 End of G2Drv F.D. properties file   721 does not exist.
 End of G2Drv F.D. properties file   722 does not exist.
 End of G2Drv F.D. properties file   788 does not exist.
 Leave Link 1110 at Fri Oct 18 01:07:54 2019, MaxMem=   104857600 cpu:             123.4 elap:               5.4
 (Enter /share/home/wli/program/opt/Chem_soft/g16/l1002.exe)
 Minotr:  Closed shell wavefunction.
          IDoAtm=111111
 NEqPCM:  Using equilibrium solvation (IEInf=0, Eps=   8.9300, EpsInf=   2.0283)
          Direct CPHF calculation.
          Differentiating once with respect to electric field.
                with respect to dipole field.
          Differentiating once with respect to nuclear coordinates.
          Requested convergence is 1.0D-08 RMS, and 1.0D-07 maximum.
          Secondary convergence is 1.0D-12 RMS, and 1.0D-12 maximum.
          NewPWx=T KeepS1=F KeepF1=F KeepIn=T MapXYZ=F SortEE=F KeepMc=T.
         1761 words used for storage of precomputed grid.
 Keep R1 ints in memory in canonical form, NReq=64236638.
 FoFCou: FMM=F IPFlag=           0 FMFlag=           0 FMFlg1=           0
         NFxFlg=           0 DoJE=F BraDBF=F KetDBF=F FulRan=T
         wScrn=  0.000000 ICntrl=       600 IOpCl=  0 I1Cent=           0 NGrid=           0
         NMat0=    1 NMatS0=   9045 NMatT0=    0 NMatD0=    1 NMtDS0=    0 NMtDT0=    0
 Symmetry not used in FoFCou.
 Two-electron integral symmetry not used.
          MDV=     104857600 using IRadAn=       1.
          Solving linear equations simultaneously, MaxMat=       0.
 CoulSu:  requested number of processors reduced to:  13 ShMem   1 Linda.
 CoulSu:  requested number of processors reduced to:  13 ShMem   1 Linda.
          There are    21 degrees of freedom in the 1st order CPHF.  IDoFFX=6 NUNeed=     3.
     18 vectors produced by pass  0 Test12= 1.52D-14 4.76D-09 XBig12= 2.19D+02 1.42D+01.
 AX will form    18 AO Fock derivatives at one time.
 CoulSu:  requested number of processors reduced to:  15 ShMem   1 Linda.
 CoulSu:  requested number of processors reduced to:  14 ShMem   1 Linda.
     18 vectors produced by pass  1 Test12= 1.52D-14 4.76D-09 XBig12= 3.31D+01 2.16D+00.
 CoulSu:  requested number of processors reduced to:  15 ShMem   1 Linda.
 CoulSu:  requested number of processors reduced to:  14 ShMem   1 Linda.
     18 vectors produced by pass  2 Test12= 1.52D-14 4.76D-09 XBig12= 1.62D+00 3.03D-01.
 CoulSu:  requested number of processors reduced to:  15 ShMem   1 Linda.
 CoulSu:  requested number of processors reduced to:  14 ShMem   1 Linda.
     18 vectors produced by pass  3 Test12= 1.52D-14 4.76D-09 XBig12= 3.94D-02 4.05D-02.
[...]
     14 -0.157552D-04 -0.109877D-01 -0.921982D-04 -0.582968D-02  0.140686D-02
     15 -0.244462D-04 -0.301310D-04 -0.108480D-01 -0.317478D-02  0.827865D-03
     16  0.418622D-01  0.103837D-03  0.429517D-04 -0.151002D-01 -0.236892D-02
     17  0.299088D-04 -0.116283D-01 -0.966377D-04  0.614660D-02  0.194588D-02
     18  0.552517D-04 -0.762409D-04 -0.115056D-01  0.333754D-02  0.109624D-02
                6             7             8             9            10 
      6  0.123187D+00
      7 -0.364073D-03  0.332195D-01
      8  0.139880D-01  0.525772D-02  0.294626D+00
      9  0.104757D-01 -0.297914D-02 -0.153485D+00  0.138984D+00
     10  0.646009D-03  0.274971D-02  0.453684D-04  0.646281D-03  0.329059D-01
     11 -0.232960D-01  0.573664D-03  0.546665D-02  0.226630D-01  0.248639D-03
     12 -0.559820D-02 -0.320426D-03 -0.411487D-02 -0.663845D-02  0.636066D-02
     13  0.934168D-03 -0.146857D-01 -0.213763D-02  0.919417D-03 -0.144577D-01
     14  0.869801D-03  0.532883D-02  0.198270D-02 -0.119306D-02  0.898318D-04
     15  0.481691D-03 -0.353867D-02 -0.121045D-02  0.708401D-03  0.632763D-02
     16 -0.127228D-02 -0.150225D-01  0.239493D-02 -0.142960D-02 -0.149032D-01
     17  0.109464D-02 -0.584382D-02  0.209190D-02 -0.137007D-02 -0.157289D-03
     18  0.618787D-03  0.367260D-02 -0.135819D-02  0.817549D-03 -0.698218D-02
               11            12            13            14            15 
     11  0.447986D-01
     12  0.920802D-02  0.388677D+00
     13 -0.126923D-03 -0.225336D-02  0.253877D-01
     14  0.181673D-03  0.696490D-04  0.445032D-03  0.602015D-02
     15  0.669367D-04  0.258472D-02  0.410727D-03  0.341574D-03  0.568650D-02
     16  0.711796D-04  0.273283D-02 -0.263892D-01 -0.182559D-04  0.000000D+00
     17  0.276392D-04  0.743378D-04  0.736811D-05  0.139629D-02  0.421003D-05
     18  0.404490D-04  0.301473D-02 -0.977649D-05  0.423005D-05  0.138666D-02
               16            17            18 
     16  0.295529D-01
     17 -0.182768D-03  0.616657D-02
     18 -0.734318D-04  0.293517D-03  0.566789D-02
 FormGI is forming the generalized inverse of G from B-inverse, IUseBI=4.
 Force constants in internal coordinates: 
                1             2             3             4             5 
      1  0.390132D+00
      2 -0.223890D-03  0.388994D+00
      3 -0.233455D-03 -0.236019D-03  0.389037D+00
      4 -0.219773D-02 -0.256379D-02 -0.252506D-02  0.253878D-01
      5 -0.241969D-02 -0.251907D-02 -0.245684D-02  0.263893D-01  0.295529D-01
      6  0.163124D-02  0.161136D-02 -0.322797D-02  0.974448D-04 -0.184097D-03
      7  0.162570D-02 -0.322589D-02  0.161325D-02  0.359334D-03 -0.388573D-03
      8 -0.259886D-02  0.190891D-02  0.192752D-02  0.546091D-02 -0.506452D-02
      9 -0.323699D-02  0.175815D-02  0.172449D-02 -0.468632D-02  0.532683D-02
     10 -0.323810D-02  0.162925D-02  0.163425D-02  0.466558D-03 -0.382371D-03
     11  0.138929D-02 -0.359989D-02  0.192675D-02  0.484799D-02 -0.514375D-02
     12  0.141564D-02 -0.380018D-02  0.172764D-02 -0.506293D-02  0.499383D-02
     13  0.150830D-02  0.192656D-02 -0.354097D-02  0.442923D-02 -0.503572D-02
     14  0.152051D-02  0.180900D-02 -0.376554D-02 -0.498874D-02  0.492345D-02
     15 -0.583585D-02  0.366706D-02  0.365201D-02  0.774592D-03  0.262311D-03
     16  0.129638D-03  0.642888D-02 -0.632830D-02 -0.198976D-03  0.217968D-04
     17  0.405631D-03  0.329122D-03  0.242575D-03  0.169923D-01 -0.175788D-01
     18  0.167045D-02  0.166400D-02 -0.334964D-02 -0.222483D-03  0.132543D-03
     19 -0.157701D-02 -0.154911D-02  0.312418D-02  0.201349D-03 -0.132070D-03
     20 -0.166180D-02  0.334789D-02 -0.166346D-02 -0.501684D-04  0.730927D-04
     21  0.157074D-02 -0.311441D-02  0.155085D-02  0.513114D-04 -0.620368D-04
     22 -0.333226D-02  0.168389D-02  0.168618D-02  0.172314D-03 -0.594501D-04
     23  0.314775D-02 -0.156530D-02 -0.157333D-02 -0.150038D-03  0.700327D-04
                6             7             8             9            10 
      6  0.679802D-02
      7 -0.340301D-02  0.680865D-02
      8  0.338670D-03  0.483298D-03  0.279434D-01
      9 -0.322331D-03 -0.484629D-03 -0.157500D-01  0.297787D-01
     10 -0.339572D-02 -0.338017D-02 -0.534468D-03  0.531251D-03  0.680294D-02
     11  0.267644D-03 -0.519742D-03 -0.116796D-01  0.570967D-02  0.526638D-03
     12 -0.299231D-03  0.509846D-03  0.557161D-02 -0.127111D-01 -0.486671D-03
     13 -0.619809D-03  0.442582D-03 -0.116688D-01  0.563644D-02  0.442243D-03
     14  0.637645D-03 -0.435498D-03  0.558623D-02 -0.126605D-01 -0.477441D-03
     15  0.163383D-04 -0.133093D-05  0.121934D-01  0.140287D-01 -0.321696D-05
     16  0.278292D-04  0.117947D-04  0.149651D-04 -0.122143D-04 -0.446836D-04
     17  0.232717D-03  0.345722D-03  0.530207D-02 -0.508454D-02  0.374896D-03
     18  0.678355D-02 -0.340422D-02 -0.172053D-03 -0.758679D-05 -0.339749D-02
     19 -0.678322D-02  0.340425D-02 -0.295242D-04 -0.195391D-03  0.339661D-02
     20  0.339666D-02 -0.678414D-02  0.343677D-04  0.163809D-03  0.337926D-02
     21 -0.339554D-02  0.678392D-02  0.153641D-03  0.726630D-04 -0.338045D-02
     22 -0.338689D-02 -0.337991D-02  0.206421D-03  0.171395D-03  0.677675D-02
     23  0.338769D-02  0.337968D-02  0.183166D-03  0.268054D-03 -0.677706D-02
               11            12            13            14            15 
     11  0.271820D-01
     12 -0.160863D-01  0.292277D-01
     13 -0.111226D-01  0.610957D-02  0.270179D-01
     14  0.599581D-02 -0.121127D-01 -0.159743D-01  0.291633D-01
     15 -0.596996D-02 -0.713948D-02 -0.603235D-02 -0.707423D-02  0.262221D-01
     16 -0.936695D-02 -0.110544D-01  0.927087D-02  0.111467D-01  0.275085D-05
     17  0.506103D-02 -0.509007D-02  0.485371D-02 -0.504216D-02  0.217528D-03
     18 -0.207093D-03  0.234328D-04  0.871135D-04  0.278719D-03 -0.179640D-03
     19  0.528898D-04 -0.211931D-03  0.260131D-03  0.121172D-03 -0.224915D-03
     20 -0.192831D-03 -0.145158D-03  0.278987D-04  0.116092D-03  0.198176D-03
     21 -0.147112D-03 -0.281132D-03  0.119540D-03  0.782943D-04  0.226304D-03
     22  0.142620D-04 -0.168591D-03 -0.592148D-04 -0.162628D-03  0.377816D-03
     23 -0.200002D-03 -0.692004D-04 -0.140591D-03 -0.428776D-04  0.451219D-03
               16            17            18            19            20 
     16  0.235803D-01
     17 -0.920880D-04  0.175492D-01
     18  0.316564D-03 -0.887468D-04  0.679967D-02
     19  0.312688D-03  0.789846D-04 -0.678829D-02  0.679996D-02
     20  0.276305D-03 -0.283800D-04  0.340372D-02 -0.339932D-02  0.679050D-02
     21  0.363502D-03  0.231980D-04 -0.339797D-02  0.340410D-02 -0.677980D-02
     22 -0.402582D-04  0.603668D-04 -0.339594D-02  0.338897D-02  0.338678D-02
     23  0.508132D-04 -0.557866D-04  0.339032D-02 -0.339586D-02 -0.338047D-02
               21            22            23 
     21  0.679333D-02
     22 -0.338183D-02  0.678272D-02
     23  0.338923D-02 -0.677079D-02  0.678509D-02
 Leave Link  716 at Fri Oct 18 01:08:39 2019, MaxMem=   104857600 cpu:               6.7 elap:               0.3
 (Enter /share/home/wli/program/opt/Chem_soft/g16/l103.exe)

 GradGradGradGradGradGradGradGradGradGradGradGradGradGradGradGradGradGrad
 Berny optimization.
 Red2BG is reusing G-inverse.
 Internal  Forces:  Max     0.000097188 RMS     0.000044242
 Search for a saddle point.
 Step number   1 out of a maximum of    2
 All quantities printed in internal units (Hartrees-Bohrs-Radians)
 Swapping is turned off.
 Second derivative matrix not updated -- analytic derivatives used.
 ITU=  0
     Eigenvalues ---   -0.01883   0.03025   0.03033   0.04061   0.04475
     Eigenvalues ---    0.04645   0.05417   0.06213   0.06268   0.38889
     Eigenvalues ---    0.38986   0.39064
 Eigenvectors required to have negative eigenvalues:
                          R4        R5        D1        A3        A7
   1                   -0.60358   0.57504   0.45058   0.13269  -0.13062
                          A6        A9        A4        A8        A5
   1                    0.13031  -0.13011  -0.12996   0.12768   0.00958
 Angle between quadratic step and forces=  35.19 degrees.
 Linear search not attempted -- option 19 set.
 Iteration  1 RMS(Cart)=  0.00069014 RMS(Int)=  0.00000027
 Iteration  2 RMS(Cart)=  0.00000021 RMS(Int)=  0.00000015
 ITry= 1 IFail=0 DXMaxC= 1.68D-03 DCOld= 1.00D+10 DXMaxT= 3.00D-01 DXLimC= 3.00D+00 Rises=F
 Variable       Old X    -DE/DX   Delta X   Delta X   Delta X     New X
                                 (Linear)    (Quad)   (Total)
    R1        2.02316   0.00005   0.00000   0.00009   0.00009   2.02325
    R2        2.02310   0.00008   0.00000   0.00020   0.00020   2.02330
    R3        2.02307   0.00010   0.00000   0.00024   0.00024   2.02331
    R4        4.52093  -0.00007   0.00000  -0.00115  -0.00115   4.51979
    R5        4.64700  -0.00009   0.00000  -0.00168  -0.00168   4.64532
    A1        2.09367   0.00001   0.00000   0.00049   0.00049   2.09416
    A2        2.09373  -0.00000   0.00000  -0.00001  -0.00001   2.09372
    A3        1.55315  -0.00005   0.00000  -0.00080  -0.00080   1.55235
    A4        1.58871   0.00006   0.00000   0.00090   0.00090   1.58961
    A5        2.09409  -0.00001   0.00000  -0.00046  -0.00046   2.09363
    A6        1.55261   0.00002   0.00000   0.00037   0.00037   1.55298
    A7        1.58828  -0.00001   0.00000  -0.00010  -0.00010   1.58818
    A8        1.55234   0.00005   0.00000   0.00071   0.00071   1.55306
    A9        1.58969  -0.00006   0.00000  -0.00108  -0.00108   1.58860
   A10        3.14186   0.00001   0.00000   0.00010   0.00010   3.14196
   A11        3.14225  -0.00002   0.00000  -0.00037  -0.00037   3.14188
    D1        3.07893   0.00002   0.00000   0.00034   0.00034   3.07927
    D2        2.09423   0.00001   0.00000   0.00050   0.00050   2.09472
    D3       -2.09421  -0.00002   0.00000  -0.00051  -0.00051  -2.09472
    D4       -2.09429   0.00000   0.00000   0.00001   0.00001  -2.09428
    D5        2.09431  -0.00000   0.00000  -0.00001  -0.00002   2.09430
    D6        2.09467  -0.00001   0.00000  -0.00049  -0.00049   2.09418
    D7       -2.09466   0.00001   0.00000   0.00050   0.00050  -2.09416
         Item               Value     Threshold  Converged?
 Maximum Force            0.000097     0.000450     YES
 RMS     Force            0.000044     0.000300     YES
 Maximum Displacement     0.001683     0.001800     YES
 RMS     Displacement     0.000690     0.001200     YES
 Predicted change in Energy=-2.635855D-07
 Optimization completed.
    -- Stationary point found.
                           ----------------------------
                           !   Optimized Parameters   !
                           ! (Angstroms and Degrees)  !
 --------------------------                            --------------------------
 ! Name  Definition              Value          Derivative Info.                !
 --------------------------------------------------------------------------------
 ! R1    R(1,2)                  1.0706         -DE/DX =    0.0                 !
 ! R2    R(1,3)                  1.0706         -DE/DX =    0.0001              !
 ! R3    R(1,4)                  1.0706         -DE/DX =    0.0001              !
 ! R4    R(1,5)                  2.3924         -DE/DX =   -0.0001              !
 ! R5    R(1,6)                  2.4591         -DE/DX =   -0.0001              !
 ! A1    A(2,1,3)              119.9585         -DE/DX =    0.0                 !
 ! A2    A(2,1,4)              119.9617         -DE/DX =    0.0                 !
 ! A3    A(2,1,5)               88.9891         -DE/DX =    0.0                 !
 ! A4    A(2,1,6)               91.0261         -DE/DX =    0.0001              !
 ! A5    A(3,1,4)              119.9824         -DE/DX =    0.0                 !
 ! A6    A(3,1,5)               88.9577         -DE/DX =    0.0                 !
 ! A7    A(3,1,6)               91.0019         -DE/DX =    0.0                 !
 ! A8    A(4,1,5)               88.9428         -DE/DX =    0.0                 !
 ! A9    A(4,1,6)               91.0824         -DE/DX =   -0.0001              !
 ! A10   L(5,1,6,2,-1)         180.0152         -DE/DX =    0.0                 !
 ! A11   L(5,1,6,2,-2)         180.0379         -DE/DX =    0.0                 !
 ! D1    D(2,1,4,3)            176.4095         -DE/DX =    0.0                 !
 ! D2    D(2,1,5,3)            119.9903         -DE/DX =    0.0                 !
 ! D3    D(2,1,6,3)           -119.9895         -DE/DX =    0.0                 !
 ! D4    D(2,1,5,4)           -119.994          -DE/DX =    0.0                 !
 ! D5    D(2,1,6,4)            119.9953         -DE/DX =    0.0                 !
 ! D6    D(3,1,5,4)            120.0157         -DE/DX =    0.0                 !
 ! D7    D(3,1,6,4)           -120.0152         -DE/DX =    0.0                 !
 --------------------------------------------------------------------------------
 GradGradGradGradGradGradGradGradGradGradGradGradGradGradGradGradGradGrad

 Leave Link  103 at Fri Oct 18 01:08:40 2019, MaxMem=   104857600 cpu:              13.6 elap:               0.6
 (Enter /share/home/wli/program/opt/Chem_soft/g16/l9999.exe)

 ----------------------------------------------------------------------

 Electric dipole moment (input orientation):
 (Debye = 10**-18 statcoulomb cm , SI units = C m)
                  (au)            (Debye)         (10**-30 SI)
   Tot        0.146964D+01      0.373545D+01      0.124601D+02
   x         -0.146964D+01     -0.373544D+01     -0.124601D+02
   y          0.000000D+00      0.000000D+00      0.000000D+00
   z          0.857783D-03      0.218027D-02      0.727259D-02

 Dipole polarizability, Alpha (input orientation).
 (esu units = cm**3 , SI units = C**2 m**2 J**-1)
 Alpha(0;0):
               (au)            (10**-24 esu)      (10**-40 SI)
   iso        0.918710D+02      0.136139D+02      0.151475D+02
   aniso      0.130569D+03      0.193483D+02      0.215279D+02
   xx         0.178917D+03      0.265128D+02      0.294994D+02
   yx        -0.343749D-03     -0.509383D-04     -0.566765D-04
   yy         0.483569D+02      0.716576D+01      0.797298D+01
   zx         0.124535D-01      0.184542D-02      0.205331D-02
   zy         0.301026D-02      0.446074D-03      0.496324D-03
   zz         0.483390D+02      0.716311D+01      0.797003D+01

 ----------------------------------------------------------------------

 Dipole orientation:
     6          0.00155371         -0.00032271         -1.39213530
     1         -0.96228824         -1.77875901         -1.42875307
     1         -1.05693334          1.72339105         -1.42888274
     1          2.02356881          0.05397284         -1.42859167
    17          0.00346637          0.00098935         -5.91306934
    35         -0.00252485          0.00087575          3.25486065

 Electric dipole moment (dipole orientation):
 (Debye = 10**-18 statcoulomb cm , SI units = C m)
                  (au)            (Debye)         (10**-30 SI)
   Tot        0.146964D+01      0.373545D+01      0.124601D+02
   x          0.000000D+00      0.000000D+00      0.000000D+00
   y          0.000000D+00      0.000000D+00      0.000000D+00
   z          0.146964D+01      0.373545D+01      0.124601D+02

 Dipole polarizability, Alpha (dipole orientation).
 (esu units = cm**3 , SI units = C**2 m**2 J**-1)
 Alpha(0;0):
               (au)            (10**-24 esu)      (10**-40 SI)
   iso        0.918710D+02      0.136139D+02      0.151475D+02
   aniso      0.130569D+03      0.193483D+02      0.215279D+02
   xx         0.483391D+02      0.716311D+01      0.797004D+01
   yx         0.301051D-02      0.446112D-03      0.496367D-03
   yy         0.483569D+02      0.716576D+01      0.797298D+01
   zx        -0.886679D-01     -0.131392D-01     -0.146194D-01
   zy        -0.214823D-03     -0.318335D-04     -0.354195D-04
   zz         0.178917D+03      0.265128D+02      0.294994D+02

 ----------------------------------------------------------------------
 1\1\GINC-C01N05\Freq\RB3LYP\def2TZVP\C1H3Br1Cl1(1-)\ROOT\18-Oct-2019\0
 \\#P Geom=AllCheck Guess=TCheck SCRF=Check GenChk RB3LYP/def2TZVP Freq
 \\Title Card Required\\-1,1\C,0.7366866263,-0.0001739296,0.0003922052\
 H,0.755762181,-0.9412841644,-0.5096581666\H,0.7558095183,0.9119736187,
 -0.5597501913\H,0.756603159,0.0285625458,1.070384953\Cl,3.1290620814,0
 .0005101128,0.0000079822\Br,-1.722398566,0.0004708167,-0.0003307825\\V
 ersion=ES64L-G16RevA.03\State=1-A\HF=-3074.5006371\RMSD=8.186e-10\RMSF
 =5.611e-05\ZeroPoint=0.0366494\Thermal=0.0414676\Dipole=-1.469637,0.00
 00063,0.0008578\DipoleDeriv=4.4429058,-0.0015242,-0.0006245,0.0014511,
 0.0435312,0.0002967,0.0006877,-0.0012014,0.0430448,-0.2432555,0.008183
 9,0.0042124,-0.0216303,0.0832015,-0.0012126,-0.0118146,-0.0009915,0.08
 59253,-0.2424591,-0.005215,0.0035591,0.0195576,0.0842514,0.0007943,-0.
 0126886,-0.0005155,0.0864702,-0.2424457,0.0004839,-0.0062467,0.0006183
 ,0.0860895,-0.0016164,0.0240389,0.0013574,0.0852437,-2.4592683,0.00058
 83,0.0008917,-0.0008732,-0.6705869,-0.0000462,0.000292,-0.0003038,-0.6
 710379,-2.2554772,-0.0025168,-0.0017918,0.0008765,-0.6264868,0.0017841
 ,-0.0005155,0.0016548,-0.6296461\Polar=178.916997,-0.0003437,48.356947
 8,0.0124535,0.0030103,48.339036\Quadrupole=-21.1326391,10.5657535,10.5
 668856,-0.0010001,0.0000092,-0.0005743\PG=C01 [X(C1H3Br1Cl1)]\NImag=1\
 \-0.05946851,-0.00015519,0.67778631,0.00021705,-0.00009529,0.67790447,
 -0.00912779,0.00599329,0.00320986,0.03337282,0.00533898,-0.30778458,-0
 .13721390,-0.00518121,0.31168808,0.00281299,-0.13724927,-0.12916457,-0
 .00275681,0.14459280,0.12318654,-0.00900918,-0.00584463,0.00352971,0.0
 0274822,0.00052824,-0.00036407,0.03321948,-0.00501092,-0.29249139,0.14
 618037,-0.00054947,-0.01167605,0.01398804,0.00525772,0.29462619,0.0031
 7079,0.14619672,-0.14434699,-0.00032775,-0.01281165,0.01047574,-0.0029
 7914,-0.15348490,0.13898375,-0.00904585,-0.00021264,-0.00699840,0.0027
 5111,-0.00001391,0.00064601,0.00274971,0.00004537,0.00064628,0.0329058
 7,-0.00018703,-0.05489439,-0.00868235,-0.00057953,0.00441981,-0.023296
 00,0.00057366,0.00546665,0.02266295,0.00024864,0.04479862,-0.00623164,
 -0.00874578,-0.38203933,-0.00028805,0.00350864,-0.00559820,-0.00032043
 ,-0.00411487,-0.00663845,0.00636066,0.00920802,0.38867654,0.04478911,0
 .00011533,-0.00000118,-0.01464415,0.00169682,0.00093417,-0.01468573,-0
 .00213763,0.00091942,-0.01445767,-0.00012692,-0.00225336,0.02538768,-0
 .00001576,-0.01098767,-0.00009220,-0.00582968,0.00140686,0.00086980,0.
 00532883,0.00198270,-0.00119306,0.00008983,0.00018167,0.00006965,0.000
 44503,0.00602015,-0.00002445,-0.00003013,-0.01084797,-0.00317478,0.000
 82787,0.00048169,-0.00353867,-0.00121045,0.00070840,0.00632763,0.00006
 694,0.00258472,0.00041073,0.00034157,0.00568650,0.04186222,0.00010384,
 0.00004295,-0.01510021,-0.00236892,-0.00127228,-0.01502249,0.00239493,
 -0.00142960,-0.01490317,0.00007118,0.00273283,-0.02638924,-0.00001826,
 -0.00000047,0.02955291,0.00002991,-0.01162829,-0.00009664,0.00614660,0
 .00194588,0.00109464,-0.00584382,0.00209190,-0.00137007,-0.00015729,0.
 00002764,0.00007434,0.00000737,0.00139629,0.00000421,-0.00018277,0.006
 16657,0.00005525,-0.00007624,-0.01150562,0.00333754,0.00109624,0.00061
 879,0.00367260,-0.00135819,0.00081755,-0.00698218,0.00004045,0.0030147
 3,-0.00000978,0.00000423,0.00138666,-0.00007343,0.00029352,0.00566789\
 \-0.00002074,0.00006128,0.00010188,-0.00005132,0.00004517,0.00001220,0
 .00002703,-0.00009780,-0.00000268,0.00006739,-0.00001062,-0.00009821,0
 .00006699,-0.00000257,0.00000049,-0.00008936,0.00000454,-0.00001367\\\
 @


 Statistics are no substitute for judgment.
                            -- Henry Clay
 Job cpu time:       0 days  0 hours  9 minutes 32.0 seconds.
 Elapsed time:       0 days  0 hours  0 minutes 27.7 seconds.
 File lengths (MBytes):  RWF=   1312 Int=      0 D2E=      0 Chk=     32 Scr=     32
 Normal termination of Gaussian 16 at Fri Oct 18 01:08:40 2019.
