Title Card Required                                                     
Freq      RB3LYP                                                      def2TZVP            
Number of atoms                            I                6
Info1-9                                    I   N=           9
          14          14        1002           0           1         100
           6          18        -502
Full Title                                 C   N=           2
Title Card Required     
Route                                      C   N=           9
#p opt=(gdiis,calcfc,maxcyc=50,ts,noeigen) freq b3lyp def2tz
vp em=gd3bj scrf=(pcm,solvent=benzene)          
Charge                                     I               -1
Multiplicity                               I                1
Number of electrons                        I               62
Number of alpha electrons                  I               31
Number of beta electrons                   I               31
Number of basis functions                  I              134
Number of independent functions            I              134
Number of point charges in /Mol/           I                0
Number of translation vectors              I                0
Atomic numbers                             I   N=           6
           6           1           1           1          17          35
Nuclear charges                            R   N=           6
  6.00000000E+00  1.00000000E+00  1.00000000E+00  1.00000000E+00  1.70000000E+01
  3.50000000E+01
Current cartesian coordinates              R   N=          18
 -1.38084470E+00 -4.86715784E-03 -2.26667627E-03 -1.43864509E+00 -1.14205865E+00
  1.66929368E+00 -1.43527436E+00  2.01159383E+00  1.45539126E-01 -1.43850274E+00
 -8.85481315E-01 -1.82226127E+00 -5.93057694E+00  1.38687615E-03  6.27551817E-04
  3.24049424E+00  6.16348179E-04  2.96004056E-04
Number of symbols in /Mol/                 I                0
Force Field                                I                0
Atom Types                                 C   N=           6
                                                            
            
Int Atom Types                             I   N=           6
           0           0           0           0           0           0
MM charges                                 R   N=           6
  0.00000000E+00  0.00000000E+00  0.00000000E+00  0.00000000E+00  0.00000000E+00
  0.00000000E+00
Integer atomic weights                     I   N=           6
          12           1           1           1          35          79
Real atomic weights                        R   N=           6
  1.20000000E+01  1.00782504E+00  1.00782504E+00  1.00782504E+00  3.49688527E+01
  7.89183361E+01
Atom fragment info                         I   N=           6
           0           0           0           0           0           0
Atom residue num                           I   N=           6
           0           0           0           0           0           0
Nuclear spins                              I   N=           6
           0           1           1           1           3           3
Nuclear ZEff                               R   N=           6
 -3.60000000E+00 -1.00000000E+00 -1.00000000E+00 -1.00000000E+00 -1.42400000E+01
 -2.45000000E+01
Nuclear ZNuc                               R   N=           6
  6.00000000E+00  1.00000000E+00  1.00000000E+00  1.00000000E+00  1.70000000E+01
  3.50000000E+01
Nuclear QMom                               R   N=           6
  0.00000000E+00  0.00000000E+00  0.00000000E+00  0.00000000E+00 -8.16500000E+00
  3.13000000E+01
Nuclear GFac                               R   N=           6
  0.00000000E+00  2.79284600E+00  2.79284600E+00  2.79284600E+00  8.21874000E-01
  2.10639900E+00
MicOpt                                     I   N=           6
          -1          -1          -1          -1          -1          -1
Number of residues                         I                0
Number of secondary structures             I                0
Redundant internal dimensions              I   N=           4
          23           5          11           7
Redundant internal coordinate indices      I   N=          92
           1           2           0           0           1           3
           0           0           1           4           0           0
           1           5           0           0           1           6
           0           0           2           1           3           0
           2           1           4           0           2           1
           5           0           2           1           6           0
           3           1           4           0           3           1
           5           0           3           1           6           0
           4           1           5           0           4           1
           6           0           5           1           6         -21
           5           1           6         -22           2           1
           4           3           2           1           5           3
           2           1           6           3           2           1
           5           4           2           1           6           4
           3           1           5           4           3           1
           6           4
Redundant internal coordinates             R   N=          23
  2.02253786E+00  2.02260329E+00  2.02266806E+00  4.54973745E+00  4.62134291E+00
  2.09368789E+00  2.09214128E+00  1.54246156E+00  1.59958728E+00  2.09328453E+00
  1.54246497E+00  1.59648634E+00  1.54345787E+00  1.60032209E+00  3.14204884E+00
  3.14438110E+00  3.04471701E+00  2.09507849E+00 -2.09497183E+00 -2.09348098E+00
  2.09361144E+00  2.09462584E+00 -2.09460204E+00
ZRed-IntVec                                I   N=          23
           0           0           0           0           0           0
           0           0           0           0           0           0
           0           0           0           0           0           0
           0           0           0           0           0
ZRed-FPVec                                 R   N=          23
  0.00000000E+00  0.00000000E+00  0.00000000E+00  0.00000000E+00  0.00000000E+00
  0.00000000E+00  0.00000000E+00  0.00000000E+00  0.00000000E+00  0.00000000E+00
  0.00000000E+00  0.00000000E+00  0.00000000E+00  0.00000000E+00  0.00000000E+00
  0.00000000E+00  0.00000000E+00  0.00000000E+00  0.00000000E+00  0.00000000E+00
  0.00000000E+00  0.00000000E+00  0.00000000E+00
ZRed-Constraint1                           R   N=          23
  2.02253786E+00  2.02260329E+00  2.02266806E+00  4.54973745E+00  4.62134291E+00
  2.09368789E+00  2.09214128E+00  1.54246156E+00  1.59958728E+00  2.09328453E+00
  1.54246497E+00  1.59648634E+00  1.54345787E+00  1.60032209E+00  3.14204884E+00
  3.14438110E+00  3.04471701E+00  2.09507849E+00 -2.09497183E+00 -2.09348098E+00
  2.09361144E+00  2.09462584E+00 -2.09460204E+00
ZRed-Constraint2                           R   N=          23
  2.02149883E+00  2.02150032E+00  2.02152620E+00  4.61364733E+00  4.56930300E+00
  2.09003151E+00  2.08994594E+00  1.52012899E+00  1.62132282E+00  2.08994152E+00
  1.52013590E+00  1.62132903E+00  1.52037807E+00  1.62148316E+00  3.14145181E+00
  3.14182176E+00  2.96689774E+00  2.09446829E+00 -2.09444473E+00 -2.09436103E+00
  2.09437223E+00  2.09435599E+00 -2.09436834E+00
SymInf integers                            I   N=          26
           1           1           1           1           1           0
           0           0           0           0           0           0
           0           0           0           0           0           0
           0           0           0           0           0           0
           0           0
RotTr to input orientation                 R   N=          12
 -9.99999982E-01  1.60037978E-04 -9.74583186E-05  1.86922230E-04  8.88249710E-01
 -4.59360879E-01  1.30521371E-05 -4.59360889E-01 -8.88249725E-01 -7.79529547E-03
  2.35531026E-03 -2.54539019E-03
Number of contracted shells                I               52
Number of primitive shells                 I              104
Pure/Cartesian d shells                    I                0
Pure/Cartesian f shells                    I                0
Highest angular momentum                   I                3
Largest degree of contraction              I                8
Shell types                                I   N=          52
           0           0           0           0           0           1
           1           1          -2          -2          -3           0
           0           0           1           0           0           0
           1           0           0           0           1           0
           0           0           0           0           1           1
           1           1           1          -2          -2          -3
           0           0           0           0           0           0
           1           1           1           1           1          -2
          -2          -2          -2          -3
Number of primitives per shell             I   N=          52
           6           2           1           1           1           4
           1           1           1           1           1           3
           1           1           1           3           1           1
           1           3           1           1           1           7
           3           2           1           1           5           1
           1           1           1           2           1           1
           8           4           2           1           1           1
           6           4           1           1           1           5
           1           1           1           1
Shell to atom map                          I   N=          52
           1           1           1           1           1           1
           1           1           1           1           1           2
           2           2           2           3           3           3
           3           4           4           4           4           5
           5           5           5           5           5           5
           5           5           5           5           5           5
           6           6           6           6           6           6
           6           6           6           6           6           6
           6           6           6           6
Primitive exponents                        R   N=         104
  1.35753497E+04  2.03523337E+03  4.63225624E+02  1.31200196E+02  4.28530159E+01
  1.55841858E+01  6.20671385E+00  2.57648965E+00  5.76963394E-01  2.29728314E-01
  9.51644400E-02  3.46972322E+01  7.95826228E+00  2.37808269E+00  8.14332082E-01
  2.88875473E-01  1.00568237E-01  1.09700000E+00  3.18000000E-01  7.61000000E-01
  3.40613410E+01  5.12357460E+00  1.16466260E+00  3.27230410E-01  1.03072410E-01
  8.00000000E-01  3.40613410E+01  5.12357460E+00  1.16466260E+00  3.27230410E-01
  1.03072410E-01  8.00000000E-01  3.40613410E+01  5.12357460E+00  1.16466260E+00
  3.27230410E-01  1.03072410E-01  8.00000000E-01  6.95079909E+04  1.04261569E+04
  2.37323341E+03  6.71564201E+02  2.18419998E+02  7.75722497E+01  2.88888153E+01
  1.27105272E+02  3.93395830E+01  7.67406800E+00  3.87456276E+00  1.83858326E+00
  5.02290575E-01  1.79627234E-01  6.66504233E+02  1.57642417E+02  5.02625210E+01
  1.85360781E+01  7.29405328E+00  2.94332490E+00  1.04049708E+00  3.84564151E-01
  1.30696427E-01  4.61000000E+00  1.01100000E+00  3.39000000E-01  7.06000000E-01
  5.65073253E+05  8.47017232E+04  1.92762719E+04  5.45642846E+03  1.77695035E+03
  6.39193983E+02  2.48788240E+02  9.86783055E+01  6.06078246E+02  1.88455985E+02
  3.14971445E+01  1.37360083E+01  2.12032128E+01  3.76164202E+00  1.77359340E+00
  4.51974137E-01  1.66133771E-01  3.01969557E+03  7.15354811E+02  2.29983288E+02
  8.61678446E+01  3.46678708E+01  1.41138703E+01  5.70856531E+01  8.81938458E+00
  3.93403029E+00  1.79988304E+00  6.68994105E-01  2.71362382E-01  1.00837902E-01
  1.68853703E+02  4.99779499E+01  1.82749133E+01  7.24556946E+00  2.85623150E+00
  1.04596211E+00  5.68656550E-01  2.20314900E-01  5.70833120E-01
Contraction coefficients                   R   N=         104
  6.06455036E-04  4.69790889E-03  2.43324776E-02  9.73999683E-02  3.01955843E-01
  6.62336091E-01  6.55953085E-01  3.75856333E-01  1.00000000E+00  1.00000000E+00
  1.00000000E+00  1.13272200E-02  7.61696592E-02  3.01922522E-01  7.27850273E-01
  1.00000000E+00  1.00000000E+00  1.00000000E+00  1.00000000E+00  1.00000000E+00
  2.54393072E-02  1.90085949E-01  8.52441130E-01  1.00000000E+00  1.00000000E+00
  1.00000000E+00  2.54393072E-02  1.90085949E-01  8.52441130E-01  1.00000000E+00
  1.00000000E+00  1.00000000E+00  2.54393072E-02  1.90085949E-01  8.52441130E-01
  1.00000000E+00  1.00000000E+00  1.00000000E+00  5.14573896E-04  3.97813448E-03
  2.04561787E-02  8.01481029E-02  2.34547703E-01  4.45433686E-01  3.54668425E-01
  1.12936881E-01  4.83735142E-01 -1.22922974E+00  6.72968216E-01  3.49560514E-01
  1.00000000E+00  1.00000000E+00  3.35025082E-03  2.67639704E-02  1.23626824E-01
  3.58457879E-01  6.16772964E-01  1.00000000E+00  1.00000000E+00  1.00000000E+00
  1.00000000E+00  1.82658350E-01  9.13291752E-01  1.00000000E+00  1.00000000E+00
  2.31399680E-04  1.79448090E-03  9.33663283E-03  3.80221412E-02  1.24386082E-01
  2.97682655E-01  4.35124787E-01  2.38454326E-01 -2.58029981E-02 -1.21437702E-01
  5.49271541E-01  5.40386743E-01 -4.18976571E-01  1.19629220E+00  1.00000000E+00
  1.00000000E+00  1.00000000E+00  2.69789672E-03  2.20611770E-02  1.04688630E-01
  3.03097102E-01  4.81931819E-01  2.63728834E-01 -1.92881876E-02  2.88644595E-01
  5.10580635E-01  2.96268745E-01  1.00000000E+00  1.00000000E+00  1.00000000E+00
  9.84282772E-03  6.81283771E-02  2.35738015E-01  4.42779544E-01  4.63345555E-01
  1.00000000E+00  1.00000000E+00  1.00000000E+00  1.00000000E+00
Coordinates of each shell                  R   N=         156
 -1.38084470E+00 -4.86715784E-03 -2.26667627E-03 -1.38084470E+00 -4.86715784E-03
 -2.26667627E-03 -1.38084470E+00 -4.86715784E-03 -2.26667627E-03 -1.38084470E+00
 -4.86715784E-03 -2.26667627E-03 -1.38084470E+00 -4.86715784E-03 -2.26667627E-03
 -1.38084470E+00 -4.86715784E-03 -2.26667627E-03 -1.38084470E+00 -4.86715784E-03
 -2.26667627E-03 -1.38084470E+00 -4.86715784E-03 -2.26667627E-03 -1.38084470E+00
 -4.86715784E-03 -2.26667627E-03 -1.38084470E+00 -4.86715784E-03 -2.26667627E-03
 -1.38084470E+00 -4.86715784E-03 -2.26667627E-03 -1.43864509E+00 -1.14205865E+00
  1.66929368E+00 -1.43864509E+00 -1.14205865E+00  1.66929368E+00 -1.43864509E+00
 -1.14205865E+00  1.66929368E+00 -1.43864509E+00 -1.14205865E+00  1.66929368E+00
 -1.43527436E+00  2.01159383E+00  1.45539126E-01 -1.43527436E+00  2.01159383E+00
  1.45539126E-01 -1.43527436E+00  2.01159383E+00  1.45539126E-01 -1.43527436E+00
  2.01159383E+00  1.45539126E-01 -1.43850274E+00 -8.85481315E-01 -1.82226127E+00
 -1.43850274E+00 -8.85481315E-01 -1.82226127E+00 -1.43850274E+00 -8.85481315E-01
 -1.82226127E+00 -1.43850274E+00 -8.85481315E-01 -1.82226127E+00 -5.93057694E+00
  1.38687615E-03  6.27551817E-04 -5.93057694E+00  1.38687615E-03  6.27551817E-04
 -5.93057694E+00  1.38687615E-03  6.27551817E-04 -5.93057694E+00  1.38687615E-03
  6.27551817E-04 -5.93057694E+00  1.38687615E-03  6.27551817E-04 -5.93057694E+00
  1.38687615E-03  6.27551817E-04 -5.93057694E+00  1.38687615E-03  6.27551817E-04
 -5.93057694E+00  1.38687615E-03  6.27551817E-04 -5.93057694E+00  1.38687615E-03
  6.27551817E-04 -5.93057694E+00  1.38687615E-03  6.27551817E-04 -5.93057694E+00
  1.38687615E-03  6.27551817E-04 -5.93057694E+00  1.38687615E-03  6.27551817E-04
 -5.93057694E+00  1.38687615E-03  6.27551817E-04  3.24049424E+00  6.16348179E-04
  2.96004056E-04  3.24049424E+00  6.16348179E-04  2.96004056E-04  3.24049424E+00
  6.16348179E-04  2.96004056E-04  3.24049424E+00  6.16348179E-04  2.96004056E-04
  3.24049424E+00  6.16348179E-04  2.96004056E-04  3.24049424E+00  6.16348179E-04
  2.96004056E-04  3.24049424E+00  6.16348179E-04  2.96004056E-04  3.24049424E+00
  6.16348179E-04  2.96004056E-04  3.24049424E+00  6.16348179E-04  2.96004056E-04
  3.24049424E+00  6.16348179E-04  2.96004056E-04  3.24049424E+00  6.16348179E-04
  2.96004056E-04  3.24049424E+00  6.16348179E-04  2.96004056E-04  3.24049424E+00
  6.16348179E-04  2.96004056E-04  3.24049424E+00  6.16348179E-04  2.96004056E-04
  3.24049424E+00  6.16348179E-04  2.96004056E-04  3.24049424E+00  6.16348179E-04
  2.96004056E-04
Num ILSW                                   I              100
ILSW                                       I   N=         100
           0           0           0           0           2           0
           0           0           0           0         402          -1
           5           0           0           0           2           0
           0           0           0           0           1           0
           1           0           0           0           0           0
           0           0      100000           0          -1           0
           0           0           0           0           0           0
           0           0           0           1           0           0
           0 -2000000000           1           0           0           0
           0           0         141          52           0           0
           0           0           5           0           0           0
           0           0           0           6           0           1
           0           0           0           0           0           0
           0           0           0           0           0           0
           0           0           0           0           0           0
           0           0           0           0           0           0
           0           0           0           0
Num RLSW                                   I               52
RLSW                                       R   N=          52
  8.00000000E-01  7.20000000E-01  1.00000000E+00  8.10000000E-01  2.00000000E-01
  0.00000000E+00  0.00000000E+00  1.00000000E+00  0.00000000E+00  0.00000000E+00
  0.00000000E+00  0.00000000E+00  1.00000000E+00  0.00000000E+00  0.00000000E+00
  0.00000000E+00  0.00000000E+00  1.00000000E+00  0.00000000E+00  0.00000000E+00
  0.00000000E+00  0.00000000E+00  1.00000000E+00  0.00000000E+00  0.00000000E+00
  0.00000000E+00  0.00000000E+00  1.00000000E+00  0.00000000E+00  0.00000000E+00
  0.00000000E+00  0.00000000E+00  1.00000000E+00  0.00000000E+00  0.00000000E+00
  0.00000000E+00  0.00000000E+00  0.00000000E+00  1.00000000E+00  1.00000000E+00
  0.00000000E+00  1.00000000E+00  0.00000000E+00  0.00000000E+00  0.00000000E+00
  0.00000000E+00  0.00000000E+00  0.00000000E+00  0.00000000E+00  0.00000000E+00
  0.00000000E+00  0.00000000E+00
ECP-MxAtEC                                 I           250000
ECP-MaxLECP                                I               10
ECP-MaxAtL                                 I          2250000
ECP-MxTECP                                 I         11250000
ECP-LenNCZ                                 I                0
ECP-KFirst                                 I   N=          60
           0           0           0           0           0           0
           0           0           0           0           0           0
           0           0           0           0           0           0
           0           0           0           0           0           0
           0           0           0           0           0           0
           0           0           0           0           0           0
           0           0           0           0           0           0
           0           0           0           0           0           0
           0           0           0           0           0           0
           0           0           0           0           0           0
ECP-KLast                                  I   N=          60
           0           0           0           0           0           0
           0           0           0           0           0           0
           0           0           0           0           0           0
           0           0           0           0           0           0
           0           0           0           0           0           0
           0           0           0           0           0           0
           0           0           0           0           0           0
           0           0           0           0           0           0
           0           0           0           0           0           0
           0           0           0           0           0           0
ECP-LMax                                   I   N=           6
           0           0           0           0           0           0
ECP-LPSkip                                 I   N=           6
           1           1           1           1           1           1
ECP-RNFroz                                 R   N=           6
  0.00000000E+00  0.00000000E+00  0.00000000E+00  0.00000000E+00  0.00000000E+00
  0.00000000E+00
ECP-NLP                                    I                0
ECP-CLP1                                   R      0.000000000000000E+00
ECP-CLP2                                   R      0.000000000000000E+00
ECP-ZLP                                    R      0.000000000000000E+00
MxBond                                     I                5
NBond                                      I   N=           6
           5           1           1           1           1           1
IBond                                      I   N=          30
           2           3           4           5           6           1
           0           0           0           0           1           0
           0           0           0           1           0           0
           0           0           1           0           0           0
           0           1           0           0           0           0
RBond                                      R   N=          30
  1.00000000E+00  1.00000000E+00  1.00000000E+00  1.00000000E-01  1.00000000E-01
  1.00000000E+00  0.00000000E+00  0.00000000E+00  0.00000000E+00  0.00000000E+00
  1.00000000E+00  0.00000000E+00  0.00000000E+00  0.00000000E+00  0.00000000E+00
  1.00000000E+00  0.00000000E+00  0.00000000E+00  0.00000000E+00  0.00000000E+00
  1.00000000E-01  0.00000000E+00  0.00000000E+00  0.00000000E+00  0.00000000E+00
  1.00000000E-01  0.00000000E+00  0.00000000E+00  0.00000000E+00  0.00000000E+00
Virial Ratio                               R      2.001515816704082E+00
SCF Energy                                 R     -3.074472855774041E+03
Total Energy                               R     -3.074472855774041E+03
RMS Force                                  R      1.158363799890723E-04
RMS Density                                R      3.067203949342512E-09
NImag                                      I                1
Job Status                                 I                1
Nuclear derivative order                   I                2
PCM-NSphere                                I                6
PCM-NGenSphere                             I                6
PCM-NOrd                                   I   N=           6
           1           2           3           4           5           6
PCM-SphereRadii                            R   N=           6
  4.00253442E+00  2.99956228E+00  2.99956228E+00  2.99956228E+00  4.10231196E+00
  4.35383450E+00
PCM-SphereLoc                              R   N=          18
 -1.38084470E+00 -4.86715784E-03 -2.26667627E-03 -1.43864509E+00 -1.14205865E+00
  1.66929368E+00 -1.43527436E+00  2.01159383E+00  1.45539126E-01 -1.43850274E+00
 -8.85481315E-01 -1.82226127E+00 -5.93057694E+00  1.38687615E-03  6.27551817E-04
  3.24049424E+00  6.16348179E-04  2.96004056E-04
External E-field                           R   N=          35
  0.00000000E+00  0.00000000E+00  0.00000000E+00  0.00000000E+00  0.00000000E+00
  0.00000000E+00  0.00000000E+00  0.00000000E+00  0.00000000E+00  0.00000000E+00
  0.00000000E+00  0.00000000E+00  0.00000000E+00  0.00000000E+00  0.00000000E+00
  0.00000000E+00  0.00000000E+00  0.00000000E+00  0.00000000E+00  0.00000000E+00
  0.00000000E+00  0.00000000E+00  0.00000000E+00  0.00000000E+00  0.00000000E+00
  0.00000000E+00  0.00000000E+00  0.00000000E+00  0.00000000E+00  0.00000000E+00
  0.00000000E+00  0.00000000E+00  0.00000000E+00  0.00000000E+00  0.00000000E+00
IOpCl                                      I                0
IROHF                                      I                0
Alpha Orbital Energies                     R   N=         134
 -4.82725779E+02 -1.01364365E+02 -6.23743159E+01 -5.61891150E+01 -5.61875267E+01
 -5.61875262E+01 -1.01667268E+01 -9.29639772E+00 -8.56516632E+00 -7.05441247E+00
 -7.05115703E+00 -7.05115520E+00 -6.39059497E+00 -6.38571772E+00 -6.38571606E+00
 -2.50572746E+00 -2.50441499E+00 -2.50441360E+00 -2.50053007E+00 -2.50052975E+00
 -6.77478508E-01 -6.44445844E-01 -5.99630935E-01 -3.83638695E-01 -3.83473248E-01
 -2.53462826E-01 -1.91050792E-01 -1.91020078E-01 -1.84205456E-01 -1.84192544E-01
 -1.73173862E-01  2.45529282E-02  1.14317855E-01  1.76250208E-01  1.76282394E-01
  2.58175083E-01  2.63590012E-01  2.63612190E-01  3.28728370E-01  3.36448560E-01
  3.36473318E-01  3.88818938E-01  3.88935220E-01  4.03649433E-01  4.14848431E-01
  4.14851642E-01  4.63437527E-01  4.68052836E-01  4.68074140E-01  4.97445530E-01
  5.28679368E-01  5.28839753E-01  5.50842887E-01  5.75691332E-01  5.75877434E-01
  5.79447952E-01  5.79493902E-01  6.10604627E-01  8.40450399E-01  8.40469166E-01
  8.44394744E-01  1.02295209E+00  1.02312106E+00  1.03465065E+00  1.17064254E+00
  1.41649322E+00  1.44026304E+00  1.44028447E+00  1.45599985E+00  1.45621780E+00
  1.50834779E+00  1.51815917E+00  1.51837197E+00  1.52052570E+00  1.53098150E+00
  1.62821868E+00  1.62826221E+00  1.64042215E+00  1.64085798E+00  1.68935524E+00
  1.68936737E+00  1.70320254E+00  1.73349996E+00  1.73389174E+00  1.85317538E+00
  1.85323467E+00  1.87902307E+00  1.89120519E+00  1.89122475E+00  1.99010471E+00
  1.99042041E+00  2.02102184E+00  2.09556104E+00  2.11876895E+00  2.11885073E+00
  2.20761505E+00  2.20765275E+00  2.22407925E+00  2.22515418E+00  2.31740968E+00
  2.31754956E+00  2.34483677E+00  2.34492192E+00  2.35526070E+00  2.38431528E+00
  2.51800710E+00  2.51907167E+00  2.68830396E+00  2.72390684E+00  2.72449745E+00
  2.84870954E+00  3.12839535E+00  3.12860316E+00  3.26390597E+00  3.26425171E+00
  3.30987638E+00  3.34911743E+00  3.34944630E+00  3.67975097E+00  3.90735748E+00
  4.09532274E+00  4.09539089E+00  4.12756845E+00  4.12778062E+00  4.21417090E+00
  4.21427368E+00  4.31932424E+00  4.75597991E+00  7.47468691E+00  1.08152586E+01
  1.08152668E+01  1.09370139E+01  2.21575477E+01  2.46464981E+01
Alpha MO coefficients                      R   N=       17956
  3.11323895E-07 -9.94997882E-07 -1.74791612E-05  2.26391386E-04 -8.09156281E-04
  1.46025741E-05  5.72744474E-08  1.92024584E-08 -4.65040154E-05 -1.98667116E-08
  9.95471836E-09 -3.05038797E-04 -1.35349870E-07 -7.24610173E-08 -7.16900592E-06
  2.78790735E-08 -1.51522723E-09  1.23361174E-05  7.67040129E-08  5.17954673E-05
 -1.13531126E-07 -2.24069341E-08 -8.97216974E-05 -2.38903423E-07 -1.72120246E-06
  5.63524098E-06 -9.50220491E-06 -1.36669874E-06  3.44359810E-09 -7.30803931E-06
 -2.52467149E-06 -1.37539187E-05 -4.03535492E-07  1.49515892E-04  1.17836792E-05
 -6.23581101E-06  9.15258516E-06 -1.36907414E-05 -5.15162625E-07  1.49465914E-04
  1.17653049E-05  1.11230777E-05  8.17073187E-07 -1.37673108E-05 -2.88208787E-07
  1.49505196E-04  1.17934954E-05 -4.81651581E-06 -9.93307098E-06  3.49885293E-06
 -9.60556337E-06 -1.88890401E-05  3.78725326E-05 -6.64154209E-05 -1.09065802E-06
  1.01661258E-08  4.16085378E-09  4.44652109E-06 -3.97331310E-08 -1.62426780E-08
 -1.17749557E-05  9.57258456E-08  3.88941944E-08  2.00689543E-05 -1.54944430E-07
 -6.05782897E-08 -3.35713718E-05  2.05776169E-07  7.13810815E-08  7.16398957E-07
  1.33320518E-09 -1.54044392E-09 -1.24449978E-06 -5.50417236E-09 -3.73869856E-06
 -9.05013457E-09  3.92673412E-09  6.48516606E-06  2.91139424E-09  8.56534149E-08
 -3.24336648E-06  4.22054530E-07  4.54671720E-08  1.07475086E-09  4.18947142E-06
  7.53400433E-08  9.97348738E-01  7.60136379E-03 -3.74820593E-03  3.21457069E-03
 -1.36647423E-03  8.88247166E-04  5.44034790E-07 -2.13183169E-09 -6.94936990E-10
 -7.43609546E-06 -3.11157126E-09 -2.22030208E-09  3.88520179E-05  1.68667976E-08
  1.20965370E-08 -4.22363770E-05  2.81200753E-08  1.65709307E-09 -2.72014767E-04
 -4.94350915E-07 -2.06701386E-07  2.52182782E-06 -7.45735121E-09 -1.48086893E-10
 -4.37389557E-06 -1.86278833E-08 -2.31758855E-05  6.55262494E-08  1.13667400E-09
  4.01875198E-05  1.61633290E-07  5.07313161E-05 -1.36355326E-07 -2.17201965E-09
 -8.79518817E-05 -3.30835736E-07 -9.04967142E-05  2.19553006E-07  2.65774633E-09
  1.56831468E-04  5.12377642E-07  1.30146057E-07  1.55767474E-05  6.05994779E-07
  5.24774489E-08 -8.28555980E-10 -2.01209581E-05  6.92935211E-08 -3.78725504E-07
  1.03163559E-06  1.16213405E-04 -9.00367279E-04  2.59156586E-03  3.21628967E-05
 -7.86912219E-08 -7.23039128E-08 -4.10540181E-05 -6.57960297E-08  2.10963595E-07
 -9.50959129E-04  1.60970454E-07  2.33729744E-07  2.55012957E-05  1.07016074E-07
  2.27943136E-08 -4.41289986E-05  1.71201455E-07 -1.63496235E-04 -3.99543158E-07
 -1.22495029E-07  2.83608672E-04 -8.43313003E-07  8.03357607E-06  2.24375197E-05
  4.42351401E-05  6.32037332E-06 -8.33679116E-09 -2.88354698E-05  1.15906127E-05
  5.46774181E-05  1.25665674E-05 -5.43241315E-04  4.45508163E-05  2.31875328E-05
 -3.41252645E-05  5.46589184E-05  1.33767526E-05 -5.42666475E-04  4.44847033E-05
 -4.13392649E-05 -3.02595858E-06  5.47477733E-05  1.27771273E-05 -5.43495794E-04