 Entering Gaussian System, Link 0=g16
 Input=Ni_tsb.gjf
 Output=Ni_tsb.log
 Initial command:
 /home/soft/g16/l1.exe "/tmp/gaussian/Gau-82221.inp" -scrdir="/tmp/gaussian/"
 Entering Link 1 = /home/soft/g16/l1.exe PID=     82223.
  
 Copyright (c) 1988,1990,1992,1993,1995,1998,2003,2009,2016,
            Gaussian, Inc.  All Rights Reserved.
  
 This is part of the Gaussian(R) 16 program.  It is based on
 the Gaussian(R) 09 system (copyright 2009, Gaussian, Inc.),
 the Gaussian(R) 03 system (copyright 2003, Gaussian, Inc.),
 the Gaussian(R) 98 system (copyright 1998, Gaussian, Inc.),
 the Gaussian(R) 94 system (copyright 1995, Gaussian, Inc.),
 the Gaussian 92(TM) system (copyright 1992, Gaussian, Inc.),
 the Gaussian 90(TM) system (copyright 1990, Gaussian, Inc.),
 the Gaussian 88(TM) system (copyright 1988, Gaussian, Inc.),
 the Gaussian 86(TM) system (copyright 1986, Carnegie Mellon
 University), and the Gaussian 82(TM) system (copyright 1983,
 Carnegie Mellon University). Gaussian is a federally registered
 trademark of Gaussian, Inc.
  
 This software contains proprietary and confidential information,
 including trade secrets, belonging to Gaussian, Inc.
  
 This software is provided under written license and may be
 used, copied, transmitted, or stored only in accord with that
 written license.
  
 The following legend is applicable only to US Government
 contracts under FAR:
  
                    RESTRICTED RIGHTS LEGEND
  
 Use, reproduction and disclosure by the US Government is
 subject to restrictions as set forth in subparagraphs (a)
 and (c) of the Commercial Computer Software - Restricted
 Rights clause in FAR 52.227-19.
  
 Gaussian, Inc.
 340 Quinnipiac St., Bldg. 40, Wallingford CT 06492
  
  
 ---------------------------------------------------------------
 Warning -- This program may not be used in any manner that
 competes with the business of Gaussian, Inc. or will provide
 assistance to any competitor of Gaussian, Inc.  The licensee
 of this program is prohibited from giving any competitor of
 Gaussian, Inc. access to this program.  By using this program,
 the user acknowledges that Gaussian, Inc. is engaged in the
 business of creating and licensing software in the field of
 computational chemistry and represents and warrants to the
 licensee that it is not a competitor of Gaussian, Inc. and that
 it will not use this program in any manner prohibited above.
 ---------------------------------------------------------------
  

 Cite this work as:
 Gaussian 16, Revision A.03,
 M. J. Frisch, G. W. Trucks, H. B. Schlegel, G. E. Scuseria, 
 M. A. Robb, J. R. Cheeseman, G. Scalmani, V. Barone, 
 G. A. Petersson, H. Nakatsuji, X. Li, M. Caricato, A. V. Marenich, 
 J. Bloino, B. G. Janesko, R. Gomperts, B. Mennucci, H. P. Hratchian, 
 J. V. Ortiz, A. F. Izmaylov, J. L. Sonnenberg, D. Williams-Young, 
 F. Ding, F. Lipparini, F. Egidi, J. Goings, B. Peng, A. Petrone, 
 T. Henderson, D. Ranasinghe, V. G. Zakrzewski, J. Gao, N. Rega, 
 G. Zheng, W. Liang, M. Hada, M. Ehara, K. Toyota, R. Fukuda, 
 J. Hasegawa, M. Ishida, T. Nakajima, Y. Honda, O. Kitao, H. Nakai, 
 T. Vreven, K. Throssell, J. A. Montgomery, Jr., J. E. Peralta, 
 F. Ogliaro, M. J. Bearpark, J. J. Heyd, E. N. Brothers, K. N. Kudin, 
 V. N. Staroverov, T. A. Keith, R. Kobayashi, J. Normand, 
 K. Raghavachari, A. P. Rendell, J. C. Burant, S. S. Iyengar, 
 J. Tomasi, M. Cossi, J. M. Millam, M. Klene, C. Adamo, R. Cammi, 
 J. W. Ochterski, R. L. Martin, K. Morokuma, O. Farkas, 
 J. B. Foresman, and D. J. Fox, Gaussian, Inc., Wallingford CT, 2016.
 
 ******************************************
 Gaussian 16:  ES64L-G16RevA.03 25-Dec-2016
                22-Nov-2019 
 ******************************************
 %chk=Ni_tsb.chk
 %nprocshared=24
 Will use up to   24 processors via shared memory.
 ----------------------------------------------------------------------
 #p opt=(calcfc,ts,noeigen) scrf=(smd,solvent=benzene) em=gd3bj pbe1pbe
 /gen
 ----------------------------------------------------------------------
 1/5=1,10=4,11=1,18=20,26=3,38=1/1,3;
 2/9=110,12=2,17=6,18=5,40=1/2;
 3/5=7,11=2,25=1,30=1,70=32201,71=2,72=12,74=-13,124=41,140=1/1,2,3;
 4//1;
 5/5=2,38=5,53=12/2;
 8/6=4,10=90,11=11/1;
 11/6=1,8=1,9=11,15=111,16=1/1,2,10;
 10/6=1,13=1/2;
 6/7=2,8=2,9=2,10=2,28=1/1;
 7/10=1,18=20,25=1/1,2,3,16;
 1/5=1,10=4,11=1,18=20,26=3/3(2);
 2/9=110/2;
 99//99;
 2/9=110/2;
 3/5=7,6=1,11=2,25=1,30=1,70=32205,71=1,72=12,74=-13,82=7,124=41/1,2,3;
 4/5=5,16=3,69=1/1;
 5/5=2,38=5,53=12/2;
 7//1,2,3,16;
 1/5=1,11=1,18=20,26=3/3(-5);
 2/9=110/2;
 6/7=2,8=2,9=2,10=2,19=2,28=1/1;
 99/9=1/99;
 Leave Link    1 at Fri Nov 22 00:49:27 2019, MaxMem=           0 cpu:               6.7 elap:               0.3
 (Enter /home/soft/g16/l101.exe)
 -------------------
 Title Card Required
 -------------------
 Symbolic Z-matrix:
 Charge =  0 Multiplicity = 1
 Ni                   -0.00001  -0.37852  -0.00003 
 P                     2.16047   0.2274   -0.00041 
 P                    -2.16045   0.2274    0.0004 
 C                     2.68165   1.17856   1.46494 
 H                     2.54678   0.56751   2.35966 
 H                     3.72938   1.48575   1.39304 
 H                     2.04864   2.06221   1.56191 
 C                     3.48713  -1.02814  -0.09498 
 H                     3.36372  -1.61158  -1.01027 
 H                     4.48497  -0.57911  -0.08852 
 H                     3.39635  -1.71031   0.75348 
 C                     2.63571   1.34043  -1.36396 
 H                     2.00244   2.22879  -1.33744 
 H                     3.6864    1.63777  -1.29337 
 H                     2.46824   0.83562  -2.31751 
 C                    -2.63614   1.33858   1.36529 
 H                    -2.00285   2.22697   1.34021 
 H                    -3.68681   1.63605   1.29474 
 H                    -2.46902   0.83248   2.31821 
 C                    -3.48716  -1.02826   0.09278 
 H                    -4.48499  -0.57922   0.08658 
 H                    -3.39608  -1.70929  -0.75656 
 H                    -3.36407  -1.61294   1.00733 
 C                    -2.68114   1.18057  -1.46382 
 H                    -2.54576   0.57085  -2.35937 
 H                    -3.72894   1.48748  -1.39194 
 H                    -2.04823   2.06447  -1.55923 
 H                    -0.38872  -2.51018   0.00417 
 H                     0.38856  -2.51081  -0.00426 
 
 Add virtual bond connecting atoms H28        and Ni1        Dist= 4.09D+00.
 Add virtual bond connecting atoms H29        and Ni1        Dist= 4.10D+00.
 ITRead=  0  0  0  0  0  0  0  0  0  0  0  0  0  0  0  0  0  0  0  0
 ITRead=  0  0  0  0  0  0  0  0  0
 MicOpt= -1 -1 -1 -1 -1 -1 -1 -1 -1 -1 -1 -1 -1 -1 -1 -1 -1 -1 -1 -1
 MicOpt= -1 -1 -1 -1 -1 -1 -1 -1 -1
 NAtoms=     29 NQM=       29 NQMF=       0 NMMI=      0 NMMIF=      0
                NMic=       0 NMicF=      0.
                    Isotopes and Nuclear Properties:
 (Nuclear quadrupole moments (NQMom) in fm**2, nuclear magnetic moments (NMagM)
  in nuclear magnetons)

  Atom         1           2           3           4           5           6           7           8           9          10
 IAtWgt=          58          31          31          12           1           1           1          12           1           1
 AtmWgt=  57.9353471  30.9737634  30.9737634  12.0000000   1.0078250   1.0078250   1.0078250  12.0000000   1.0078250   1.0078250
 NucSpn=           0           1           1           0           1           1           1           0           1           1
 AtZEff=  -0.0000000  -0.0000000  -0.0000000  -0.0000000  -0.0000000  -0.0000000  -0.0000000  -0.0000000  -0.0000000  -0.0000000
 NQMom=    0.0000000   0.0000000   0.0000000   0.0000000   0.0000000   0.0000000   0.0000000   0.0000000   0.0000000   0.0000000
 NMagM=    0.0000000   1.1316000   1.1316000   0.0000000   2.7928460   2.7928460   2.7928460   0.0000000   2.7928460   2.7928460
 AtZNuc=  28.0000000  15.0000000  15.0000000   6.0000000   1.0000000   1.0000000   1.0000000   6.0000000   1.0000000   1.0000000

  Atom        11          12          13          14          15          16          17          18          19          20
 IAtWgt=           1          12           1           1           1          12           1           1           1          12
 AtmWgt=   1.0078250  12.0000000   1.0078250   1.0078250   1.0078250  12.0000000   1.0078250   1.0078250   1.0078250  12.0000000
 NucSpn=           1           0           1           1           1           0           1           1           1           0
 AtZEff=  -0.0000000  -0.0000000  -0.0000000  -0.0000000  -0.0000000  -0.0000000  -0.0000000  -0.0000000  -0.0000000  -0.0000000
 NQMom=    0.0000000   0.0000000   0.0000000   0.0000000   0.0000000   0.0000000   0.0000000   0.0000000   0.0000000   0.0000000
 NMagM=    2.7928460   0.0000000   2.7928460   2.7928460   2.7928460   0.0000000   2.7928460   2.7928460   2.7928460   0.0000000
 AtZNuc=   1.0000000   6.0000000   1.0000000   1.0000000   1.0000000   6.0000000   1.0000000   1.0000000   1.0000000   6.0000000

  Atom        21          22          23          24          25          26          27          28          29
 IAtWgt=           1           1           1          12           1           1           1           1           1
 AtmWgt=   1.0078250   1.0078250   1.0078250  12.0000000   1.0078250   1.0078250   1.0078250   1.0078250   1.0078250
 NucSpn=           1           1           1           0           1           1           1           1           1
 AtZEff=  -0.0000000  -0.0000000  -0.0000000  -0.0000000  -0.0000000  -0.0000000  -0.0000000  -0.0000000  -0.0000000
 NQMom=    0.0000000   0.0000000   0.0000000   0.0000000   0.0000000   0.0000000   0.0000000   0.0000000   0.0000000
 NMagM=    2.7928460   2.7928460   2.7928460   0.0000000   2.7928460   2.7928460   2.7928460   2.7928460   2.7928460
 AtZNuc=   1.0000000   1.0000000   1.0000000   6.0000000   1.0000000   1.0000000   1.0000000   1.0000000   1.0000000
 Leave Link  101 at Fri Nov 22 00:49:28 2019, MaxMem=   280000000 cpu:               4.3 elap:               0.3
 (Enter /home/soft/g16/l103.exe)

 GradGradGradGradGradGradGradGradGradGradGradGradGradGradGradGradGradGrad
 Berny optimization.
 Initialization pass.
                           ----------------------------
                           !    Initial Parameters    !
                           ! (Angstroms and Degrees)  !
 --------------------------                            --------------------------
 ! Name  Definition              Value          Derivative Info.                !
 --------------------------------------------------------------------------------
 ! R1    R(1,2)                  2.2438         calculate D2E/DX2 analytically  !
 ! R2    R(1,3)                  2.2438         calculate D2E/DX2 analytically  !
 ! R3    R(1,28)                 2.1668         calculate D2E/DX2 analytically  !
 ! R4    R(1,29)                 2.1674         calculate D2E/DX2 analytically  !
 ! R5    R(2,4)                  1.8231         calculate D2E/DX2 analytically  !
 ! R6    R(2,8)                  1.829          calculate D2E/DX2 analytically  !
 ! R7    R(2,12)                 1.8232         calculate D2E/DX2 analytically  !
 ! R8    R(3,16)                 1.8232         calculate D2E/DX2 analytically  !
 ! R9    R(3,20)                 1.829          calculate D2E/DX2 analytically  !
 ! R10   R(3,24)                 1.8231         calculate D2E/DX2 analytically  !
 ! R11   R(4,5)                  1.0918         calculate D2E/DX2 analytically  !
 ! R12   R(4,6)                  1.0942         calculate D2E/DX2 analytically  !
 ! R13   R(4,7)                  1.0913         calculate D2E/DX2 analytically  !
 ! R14   R(8,9)                  1.0924         calculate D2E/DX2 analytically  !
 ! R15   R(8,10)                 1.0942         calculate D2E/DX2 analytically  !
 ! R16   R(8,11)                 1.0925         calculate D2E/DX2 analytically  !
 ! R17   R(12,13)                1.0913         calculate D2E/DX2 analytically  !
 ! R18   R(12,14)                1.0942         calculate D2E/DX2 analytically  !
 ! R19   R(12,15)                1.0918         calculate D2E/DX2 analytically  !
 ! R20   R(16,17)                1.0913         calculate D2E/DX2 analytically  !
 ! R21   R(16,18)                1.0942         calculate D2E/DX2 analytically  !
 ! R22   R(16,19)                1.0918         calculate D2E/DX2 analytically  !
 ! R23   R(20,21)                1.0942         calculate D2E/DX2 analytically  !
 ! R24   R(20,22)                1.0925         calculate D2E/DX2 analytically  !
 ! R25   R(20,23)                1.0924         calculate D2E/DX2 analytically  !
 ! R26   R(24,25)                1.0918         calculate D2E/DX2 analytically  !
 ! R27   R(24,26)                1.0942         calculate D2E/DX2 analytically  !
 ! R28   R(24,27)                1.0913         calculate D2E/DX2 analytically  !
 ! R29   R(28,29)                0.7773         calculate D2E/DX2 analytically  !
 ! A1    A(2,1,3)              148.6667         calculate D2E/DX2 analytically  !
 ! A2    A(2,1,28)             116.0008         calculate D2E/DX2 analytically  !
 ! A3    A(2,1,29)              95.3388         calculate D2E/DX2 analytically  !
 ! A4    A(3,1,28)              95.3324         calculate D2E/DX2 analytically  !
 ! A5    A(3,1,29)             115.9944         calculate D2E/DX2 analytically  !
 ! A6    A(1,2,4)              114.5829         calculate D2E/DX2 analytically  !
 ! A7    A(1,2,8)              120.866          calculate D2E/DX2 analytically  !
 ! A8    A(1,2,12)             114.5801         calculate D2E/DX2 analytically  !
 ! A9    A(4,2,8)              101.0895         calculate D2E/DX2 analytically  !
 ! A10   A(4,2,12)             102.0119         calculate D2E/DX2 analytically  !
 ! A11   A(8,2,12)             101.0307         calculate D2E/DX2 analytically  !
 ! A12   A(1,3,16)             114.5791         calculate D2E/DX2 analytically  !
 ! A13   A(1,3,20)             120.8663         calculate D2E/DX2 analytically  !
 ! A14   A(1,3,24)             114.5846         calculate D2E/DX2 analytically  !
 ! A15   A(16,3,20)            101.0312         calculate D2E/DX2 analytically  !
 ! A16   A(16,3,24)            102.0109         calculate D2E/DX2 analytically  !
 ! A17   A(20,3,24)            101.0888         calculate D2E/DX2 analytically  !
 ! A18   A(2,4,5)              109.3521         calculate D2E/DX2 analytically  !
 ! A19   A(2,4,6)              111.5552         calculate D2E/DX2 analytically  !
 ! A20   A(2,4,7)              109.1508         calculate D2E/DX2 analytically  !
 ! A21   A(5,4,6)              109.2234         calculate D2E/DX2 analytically  !
 ! A22   A(5,4,7)              107.9803         calculate D2E/DX2 analytically  !
 ! A23   A(6,4,7)              109.5073         calculate D2E/DX2 analytically  !
 ! A24   A(2,8,9)              109.147          calculate D2E/DX2 analytically  !
 ! A25   A(2,8,10)             112.2992         calculate D2E/DX2 analytically  !
 ! A26   A(2,8,11)             109.1604         calculate D2E/DX2 analytically  !
 ! A27   A(9,8,10)             109.0946         calculate D2E/DX2 analytically  !
 ! A28   A(9,8,11)             107.9282         calculate D2E/DX2 analytically  !
 ! A29   A(10,8,11)            109.1134         calculate D2E/DX2 analytically  !
 ! A30   A(2,12,13)            109.1196         calculate D2E/DX2 analytically  !
 ! A31   A(2,12,14)            111.5885         calculate D2E/DX2 analytically  !
 ! A32   A(2,12,15)            109.3254         calculate D2E/DX2 analytically  !
 ! A33   A(13,12,14)           109.5373         calculate D2E/DX2 analytically  !
 ! A34   A(13,12,15)           107.9739         calculate D2E/DX2 analytically  !
 ! A35   A(14,12,15)           109.2231         calculate D2E/DX2 analytically  !
 ! A36   A(3,16,17)            109.1195         calculate D2E/DX2 analytically  !
 ! A37   A(3,16,18)            111.5889         calculate D2E/DX2 analytically  !
 ! A38   A(3,16,19)            109.3256         calculate D2E/DX2 analytically  !
 ! A39   A(17,16,18)           109.537          calculate D2E/DX2 analytically  !
 ! A40   A(17,16,19)           107.9737         calculate D2E/DX2 analytically  !
 ! A41   A(18,16,19)           109.2231         calculate D2E/DX2 analytically  !
 ! A42   A(3,20,21)            112.2996         calculate D2E/DX2 analytically  !
 ! A43   A(3,20,22)            109.1607         calculate D2E/DX2 analytically  !
 ! A44   A(3,20,23)            109.1464         calculate D2E/DX2 analytically  !
 ! A45   A(21,20,22)           109.1134         calculate D2E/DX2 analytically  !
 ! A46   A(21,20,23)           109.0949         calculate D2E/DX2 analytically  !
 ! A47   A(22,20,23)           107.928          calculate D2E/DX2 analytically  !
 ! A48   A(3,24,25)            109.3532         calculate D2E/DX2 analytically  !
 ! A49   A(3,24,26)            111.5548         calculate D2E/DX2 analytically  !
 ! A50   A(3,24,27)            109.1501         calculate D2E/DX2 analytically  !
 ! A51   A(25,24,26)           109.2236         calculate D2E/DX2 analytically  !
 ! A52   A(25,24,27)           107.9801         calculate D2E/DX2 analytically  !
 ! A53   A(26,24,27)           109.5074         calculate D2E/DX2 analytically  !
 ! D1    D(3,1,2,4)             62.1212         calculate D2E/DX2 analytically  !
 ! D2    D(3,1,2,8)           -176.5574         calculate D2E/DX2 analytically  !
 ! D3    D(3,1,2,12)           -55.3253         calculate D2E/DX2 analytically  !
 ! D4    D(28,1,2,4)          -117.7552         calculate D2E/DX2 analytically  !
 ! D5    D(28,1,2,8)             3.5662         calculate D2E/DX2 analytically  !
 ! D6    D(28,1,2,12)          124.7983         calculate D2E/DX2 analytically  !
 ! D7    D(29,1,2,4)          -117.9873         calculate D2E/DX2 analytically  !
 ! D8    D(29,1,2,8)             3.3341         calculate D2E/DX2 analytically  !
 ! D9    D(29,1,2,12)          124.5662         calculate D2E/DX2 analytically  !
 ! D10   D(2,1,3,16)           -55.402          calculate D2E/DX2 analytically  !
 ! D11   D(2,1,3,20)          -176.6341         calculate D2E/DX2 analytically  !
 ! D12   D(2,1,3,24)            62.0437         calculate D2E/DX2 analytically  !
 ! D13   D(28,1,3,16)          124.4864         calculate D2E/DX2 analytically  !
 ! D14   D(28,1,3,20)            3.2543         calculate D2E/DX2 analytically  !
 ! D15   D(28,1,3,24)         -118.0679         calculate D2E/DX2 analytically  !
 ! D16   D(29,1,3,16)          124.7182         calculate D2E/DX2 analytically  !
 ! D17   D(29,1,3,20)            3.4861         calculate D2E/DX2 analytically  !
 ! D18   D(29,1,3,24)         -117.8362         calculate D2E/DX2 analytically  !
 ! D19   D(1,2,4,5)             61.6011         calculate D2E/DX2 analytically  !
 ! D20   D(1,2,4,6)           -177.4717         calculate D2E/DX2 analytically  !
 ! D21   D(1,2,4,7)            -56.3236         calculate D2E/DX2 analytically  !
 ! D22   D(8,2,4,5)            -70.0481         calculate D2E/DX2 analytically  !
 ! D23   D(8,2,4,6)             50.8791         calculate D2E/DX2 analytically  !
 ! D24   D(8,2,4,7)            172.0272         calculate D2E/DX2 analytically  !
 ! D25   D(12,2,4,5)          -173.9964         calculate D2E/DX2 analytically  !
 ! D26   D(12,2,4,6)           -53.0692         calculate D2E/DX2 analytically  !
 ! D27   D(12,2,4,7)            68.0789         calculate D2E/DX2 analytically  !
 ! D28   D(1,2,8,9)             58.7119         calculate D2E/DX2 analytically  !
 ! D29   D(1,2,8,10)           179.8208         calculate D2E/DX2 analytically  !
 ! D30   D(1,2,8,11)           -59.0372         calculate D2E/DX2 analytically  !
 ! D31   D(4,2,8,9)           -173.6249         calculate D2E/DX2 analytically  !
 ! D32   D(4,2,8,10)           -52.5159         calculate D2E/DX2 analytically  !
 ! D33   D(4,2,8,11)            68.6261         calculate D2E/DX2 analytically  !
 ! D34   D(12,2,8,9)           -68.8942         calculate D2E/DX2 analytically  !
 ! D35   D(12,2,8,10)           52.2147         calculate D2E/DX2 analytically  !
 ! D36   D(12,2,8,11)          173.3567         calculate D2E/DX2 analytically  !
 ! D37   D(1,2,12,13)           56.4263         calculate D2E/DX2 analytically  !
 ! D38   D(1,2,12,14)          177.6125         calculate D2E/DX2 analytically  !
 ! D39   D(1,2,12,15)          -61.457          calculate D2E/DX2 analytically  !
 ! D40   D(4,2,12,13)          -67.9781         calculate D2E/DX2 analytically  !
 ! D41   D(4,2,12,14)           53.208          calculate D2E/DX2 analytically  !
 ! D42   D(4,2,12,15)          174.1385         calculate D2E/DX2 analytically  !
 ! D43   D(8,2,12,13)         -171.9725         calculate D2E/DX2 analytically  !
 ! D44   D(8,2,12,14)          -50.7864         calculate D2E/DX2 analytically  !
 ! D45   D(8,2,12,15)           70.1441         calculate D2E/DX2 analytically  !
 ! D46   D(1,3,16,17)           56.426          calculate D2E/DX2 analytically  !
 ! D47   D(1,3,16,18)          177.612          calculate D2E/DX2 analytically  !
 ! D48   D(1,3,16,19)          -61.4572         calculate D2E/DX2 analytically  !
 ! D49   D(20,3,16,17)        -171.9728         calculate D2E/DX2 analytically  !
 ! D50   D(20,3,16,18)         -50.7868         calculate D2E/DX2 analytically  !
 ! D51   D(20,3,16,19)          70.144          calculate D2E/DX2 analytically  !
 ! D52   D(24,3,16,17)         -67.9792         calculate D2E/DX2 analytically  !
 ! D53   D(24,3,16,18)          53.2067         calculate D2E/DX2 analytically  !
 ! D54   D(24,3,16,19)         174.1375         calculate D2E/DX2 analytically  !
 ! D55   D(1,3,20,21)          179.8207         calculate D2E/DX2 analytically  !
 ! D56   D(1,3,20,22)          -59.0369         calculate D2E/DX2 analytically  !
 ! D57   D(1,3,20,23)           58.7116         calculate D2E/DX2 analytically  !
 ! D58   D(16,3,20,21)          52.2153         calculate D2E/DX2 analytically  !
 ! D59   D(16,3,20,22)         173.3576         calculate D2E/DX2 analytically  !
 ! D60   D(16,3,20,23)         -68.8938         calculate D2E/DX2 analytically  !
 ! D61   D(24,3,20,21)         -52.5142         calculate D2E/DX2 analytically  !
 ! D62   D(24,3,20,22)          68.6281         calculate D2E/DX2 analytically  !
 ! D63   D(24,3,20,23)        -173.6233         calculate D2E/DX2 analytically  !
 ! D64   D(1,3,24,25)           61.5891         calculate D2E/DX2 analytically  !
 ! D65   D(1,3,24,26)         -177.483          calculate D2E/DX2 analytically  !
 ! D66   D(1,3,24,27)          -56.3356         calculate D2E/DX2 analytically  !
 ! D67   D(16,3,24,25)        -174.0093         calculate D2E/DX2 analytically  !
 ! D68   D(16,3,24,26)         -53.0815         calculate D2E/DX2 analytically  !
 ! D69   D(16,3,24,27)          68.066          calculate D2E/DX2 analytically  !
 ! D70   D(20,3,24,25)         -70.0611         calculate D2E/DX2 analytically  !
 ! D71   D(20,3,24,26)          50.8668         calculate D2E/DX2 analytically  !
 ! D72   D(20,3,24,27)         172.0143         calculate D2E/DX2 analytically  !
 --------------------------------------------------------------------------------
 Trust Radius=3.00D-01 FncErr=1.00D-07 GrdErr=1.00D-06 EigMax=2.50D+02 EigMin=1.00D-04
 Number of steps in this run=    164 maximum allowed number of steps=    174.
 Search for a saddle point of order  1.
 GradGradGradGradGradGradGradGradGradGradGradGradGradGradGradGradGradGrad

 Leave Link  103 at Fri Nov 22 00:49:28 2019, MaxMem=   280000000 cpu:               0.7 elap:               0.1
 (Enter /home/soft/g16/l202.exe)
                          Input orientation:                          
 ---------------------------------------------------------------------
 Center     Atomic      Atomic             Coordinates (Angstroms)
 Number     Number       Type             X           Y           Z
 ---------------------------------------------------------------------
      1         28           0       -0.000009   -0.378523   -0.000028
      2         15           0        2.160472    0.227398   -0.000412
      3         15           0       -2.160448    0.227397    0.000397
      4          6           0        2.681652    1.178556    1.464941
      5          1           0        2.546778    0.567514    2.359662
      6          1           0        3.729375    1.485748    1.393041
      7          1           0        2.048638    2.062211    1.561912
      8          6           0        3.487132   -1.028139   -0.094977
      9          1           0        3.363715   -1.611583   -1.010271
     10          1           0        4.484968   -0.579114   -0.088521
     11          1           0        3.396347   -1.710312    0.753477
     12          6           0        2.635706    1.340427   -1.363956
     13          1           0        2.002444    2.228794   -1.337443
     14          1           0        3.686402    1.637772   -1.293366
     15          1           0        2.468242    0.835623   -2.317505
     16          6           0       -2.636142    1.338581    1.365292
     17          1           0       -2.002852    2.226972    1.340210
     18          1           0       -3.686805    1.636049    1.294742
     19          1           0       -2.469021    0.832479    2.318214
     20          6           0       -3.487161   -1.028259    0.092780
     21          1           0       -4.484993   -0.579221    0.086575
     22          1           0       -3.396078   -1.709288   -0.756562
     23          1           0       -3.364068   -1.612941    1.007327
     24          6           0       -2.681135    1.180565   -1.463819
     25          1           0       -2.545757    0.570849   -2.359366
     26          1           0       -3.728943    1.487476   -1.391938
     27          1           0       -2.048226    2.064466   -1.559225
     28          1           0       -0.388717   -2.510183    0.004174
     29          1           0        0.388556   -2.510807   -0.004259
 ---------------------------------------------------------------------
                    Distance matrix (angstroms):
                    1          2          3          4          5
     1  Ni   0.000000
     2  P    2.243840   0.000000
     3  P    2.243799   4.320920   0.000000
     4  C    3.429568   1.823071   5.147380   0.000000
     5  H    3.598506   2.415546   5.276342   1.091828   0.000000
     6  H    4.395959   2.446756   6.181660   1.094194   1.782146
     7  H    3.548774   2.412447   4.849874   1.091309   1.765975
     8  C    3.548404   1.829028   5.786245   2.819866   3.075000
     9  H    3.722320   2.418566   5.909287   3.791670   4.095400
    10  H    4.490333   2.462013   6.694768   2.958817   3.326400
    11  H    3.725140   2.418772   5.932943   3.059825   2.913776
    12  C    3.429589   1.823166   5.109147   2.833897   3.804029
    13  H    3.549169   2.412097   4.808854   3.068824   4.089589
    14  H    4.396339   2.447314   6.152124   2.971306   3.973513
    15  H    3.596820   2.415281   5.212234   3.803951   4.685503
    16  C    3.429540   5.109538   1.823171   5.321134   5.333477
    17  H    3.549116   4.809244   2.412102   4.802011   4.948961
    18  H    4.396293   6.152428   2.447324   6.387136   6.413531
    19  H    3.596775   5.212903   2.415288   5.232330   5.022964
    20  C    3.548380   5.786287   1.829036   6.693811   6.640306
    21  H    4.490307   6.694804   2.462025   7.506695   7.478484
    22  H    3.725126   5.932770   2.418784   7.086150   7.086058
    23  H    3.722290   5.909562   2.418564   6.674773   6.443702
    24  C    3.429559   5.146965   1.823067   6.110411   6.505837
    25  H    3.598419   5.275530   2.415555   6.505416   6.942849
    26  H    4.395943   6.181371   2.446747   7.025163   7.369227
    27  H    3.548871   4.849521   2.412434   5.683499   6.221945
    28  H    2.166815   3.740686   3.260888   5.016752   4.861859
    29  H    2.167403   3.261513   3.741016   4.585656   4.440958
                    6          7          8          9         10
     6  H    0.000000
     7  H    1.784854   0.000000
     8  C    2.931298   3.790094   0.000000
     9  H    3.937394   4.673576   1.092429   0.000000
    10  H    2.651340   3.954267   1.094231   1.781242   0.000000
    11  H    3.276393   4.086786   1.092463   1.766810   1.781478
    12  C    2.969556   3.070232   2.818748   3.060956   2.954851
    13  H    3.315109   2.904504   3.788883   4.087615   3.950580
    14  H    2.691048   3.318890   2.929663   3.277587   2.646496
    15  H    3.972565   4.090289   3.074309   2.915399   3.322203
    16  C    6.367278   4.744414   6.725194   7.095425   7.516737
    17  H    5.780193   4.060895   6.541822   7.004235   7.211602
    18  H    7.418354   5.757456   7.777827   8.097532   8.578942
    19  H    6.301017   4.742729   6.690377   7.146542   7.492859
    20  C    7.751729   6.508028   6.976820   6.963583   7.986829
    21  H    8.570110   7.200147   7.986818   7.991937   8.971670
    22  H    8.099452   7.017440   6.948398   6.765258   7.989647
    23  H    7.750328   6.565950   6.963908   7.023800   7.992312
    24  C    7.024915   5.683582   6.693252   6.673980   7.506061
    25  H    7.368506   6.221660   6.639275   6.442432   7.477315
    26  H    7.961320   6.514291   7.751269   7.749557   8.569599
    27  H    6.513944   5.150320   6.507566   6.565348   7.199591
    28  H    5.903821   5.410548   4.150722   3.989652   5.243131
    29  H    5.393141   5.110896   3.436234   3.266839   4.529805
                   11         12         13         14         15
    11  H    0.000000
    12  C    3.790660   0.000000
    13  H    4.672416   1.091293   0.000000
    14  H    3.934891   1.094239   1.785207   0.000000
    15  H    4.095619   1.091846   1.765903   1.782195   0.000000
    16  C    6.786825   5.936428   5.441850   6.865314   6.314325
    17  H    6.708041   5.441939   4.817907   6.296864   5.941836
    18  H    7.852525   6.865145   6.296610   7.814249   7.181477
    19  H    6.581545   6.314636   5.942013   7.182008   6.772479
    20  C    6.948698   6.724749   6.541383   7.777476   6.689571
    21  H    7.989972   7.516212   7.211076   8.578519   7.491920
    22  H    6.958251   6.786170   6.707455   7.851910   6.580529
    23  H    6.765880   7.095256   7.004022   8.097497   7.146035
    24  C    7.085856   5.320181   4.801111   6.386205   5.231047
    25  H    7.085343   5.332040   4.947650   6.412058   5.021160
    26  H    8.099285   6.366409   5.779387   7.417523   6.299737
    27  H    7.017187   4.743583   4.060064   5.756623   4.741680
    28  H    3.940553   5.083907   5.474988   5.957830   4.974618
    29  H    3.203399   4.661594   5.181296   5.454200   4.568894
                   16         17         18         19         20
    16  C    0.000000
    17  H    1.091295   0.000000
    18  H    1.094238   1.785204   0.000000
    19  H    1.091847   1.765904   1.782195   0.000000
    20  C    2.818768   3.788903   2.929694   3.074331   0.000000
    21  H    2.954883   3.950613   2.646544   3.322236   1.094231
    22  H    3.790682   4.672438   3.934927   4.095639   1.092464
    23  H    3.060963   4.087622   3.277606   2.915410   1.092429
    24  C    2.833878   3.068813   2.971279   3.803936   2.819855
    25  H    3.804032   4.089542   3.973556   4.685520   3.075127
    26  H    2.969630   3.315249   2.691115   3.972613   2.931172
    27  H    3.070074   2.904340   3.318676   4.090158   3.790066
    28  H    4.660101   5.179871   5.452907   4.566819   3.435739
    29  H    5.083528   5.474758   5.957549   4.973649   4.150729
                   21         22         23         24         25
    21  H    0.000000
    22  H    1.781479   0.000000
    23  H    1.781245   1.766808   0.000000
    24  C    2.958796   3.059838   3.791653   0.000000
    25  H    3.326548   2.913941   4.095509   1.091827   0.000000
    26  H    2.651198   3.276248   3.937282   1.094195   1.782148
    27  H    3.954184   4.086832   4.673537   1.091310   1.765971
    28  H    4.529336   3.203806   3.265589   4.586045   4.442060
    29  H    5.243163   3.941046   3.988942   5.017922   4.863468
                   26         27         28         29
    26  H    0.000000
    27  H    1.784856   0.000000
    28  H    5.393284   5.111321   0.000000
    29  H    5.904720   5.411927   0.777319   0.000000
 Stoichiometry    C6H20NiP2
 Framework group  C1[X(C6H20NiP2)]
 Deg. of freedom    81
 Full point group                 C1      NOp   1
 Largest Abelian subgroup         C1      NOp   1
 Largest concise Abelian subgroup C1      NOp   1
                         Standard orientation:                         
 ---------------------------------------------------------------------
 Center     Atomic      Atomic             Coordinates (Angstroms)
 Number     Number       Type             X           Y           Z
 ---------------------------------------------------------------------
      1         28           0        0.000012    0.544542   -0.000041
      2         15           0       -2.160468   -0.061380   -0.000425
      3         15           0        2.160452   -0.061377    0.000384
      4          6           0       -2.681648   -1.012538    1.464928
      5          1           0       -2.546774   -0.401496    2.359649
      6          1           0       -3.729371   -1.319731    1.393028
      7          1           0       -2.048633   -1.896193    1.561899
      8          6           0       -3.487129    1.194157   -0.094990
      9          1           0       -3.363712    1.777601   -1.010284
     10          1           0       -4.484965    0.745131   -0.088534
     11          1           0       -3.396344    1.876330    0.753464
     12          6           0       -2.635702   -1.174409   -1.363969
     13          1           0       -2.002439   -2.062776   -1.337456
     14          1           0       -3.686398   -1.471755   -1.293379
     15          1           0       -2.468238   -0.669605   -2.317518
     16          6           0        2.636146   -1.172561    1.365279
     17          1           0        2.002857   -2.060952    1.340197
     18          1           0        3.686809   -1.470028    1.294729
     19          1           0        2.469025   -0.666459    2.318201
     20          6           0        3.487164    1.194280    0.092767
     21          1           0        4.484996    0.745242    0.086562
     22          1           0        3.396081    1.875308   -0.756575
     23          1           0        3.364071    1.778961    1.007314
     24          6           0        2.681139   -1.014545   -1.463832
     25          1           0        2.545761   -0.404829   -2.359379
     26          1           0        3.728947   -1.321455   -1.391951
     27          1           0        2.048231   -1.898446   -1.559238
     28          1           0        0.388720    2.676202    0.004161
     29          1           0       -0.388553    2.676826   -0.004272
 ---------------------------------------------------------------------
 Rotational constants (GHZ):           1.6806020           0.4069172           0.3986272
 Leave Link  202 at Fri Nov 22 00:49:28 2019, MaxMem=   280000000 cpu:               0.7 elap:               0.1
 (Enter /home/soft/g16/l301.exe)
 General basis read from cards:  (5D, 7F)
 Centers:       1      2      3
 def2tzvp
 ****
 Centers:       4      8     12     16     20     24      5      6      7      9
 Centers:      10     11     13     14     15     17     18     19     21     22
 Centers:      23     25     26     27     28     29
 def2svp
 ****
 Ernie: Thresh=  0.10000D-02 Tol=  0.10000D-05 Strict=F.
 There are   326 symmetry adapted cartesian basis functions of A   symmetry.
 There are   303 symmetry adapted basis functions of A   symmetry.
   303 basis functions,   530 primitive gaussians,   326 cartesian basis functions
    57 alpha electrons       57 beta electrons
       nuclear repulsion energy       981.5568174907 Hartrees.
 IExCor= 1009 DFT=T Ex+Corr=PBE1PBE ExCW=0 ScaHFX=  0.250000
 ScaDFX=  0.750000  0.750000  1.000000  1.000000 ScalE2=  1.000000  1.000000
 IRadAn=      5 IRanWt=     -1 IRanGd=            0 ICorTp=0 IEmpDi=141
 NAtoms=   29 NActive=   29 NUniq=   29 SFac= 1.00D+00 NAtFMM=   60 NAOKFM=F Big=F
 Integral buffers will be    131072 words long.
 Raffenetti 2 integral format.
 Two-electron integral symmetry is turned on.
 R6Disp:  Grimme-D3(BJ) Dispersion energy=       -0.0284250180 Hartrees.
 Nuclear repulsion after empirical dispersion term =      981.5283924727 Hartrees.
 Force inversion solution in PCM.
 ------------------------------------------------------------------------------
 Polarizable Continuum Model (PCM)
 =================================
 Model                : PCM.
 Atomic radii         : SMD-Coulomb.
 Polarization charges : Total charges.
 Charge compensation  : None.
 Solution method      : Matrix inversion.
 Cavity type          : VdW (van der Waals Surface) (Alpha=1.000).
 Cavity algorithm     : GePol (No added spheres)
                        Default sphere list used, NSphG=   29.
                        Lebedev-Laikov grids with approx.  5.0 points / Ang**2.
                        Smoothing algorithm: York/Karplus (Gamma=1.0000).
                        Polarization charges: spherical gaussians, with
                                              point-specific exponents (IZeta= 3).
                        Self-potential: point-specific (ISelfS= 7).
                        Self-field    : sphere-specific E.n sum rule (ISelfD= 2).
 1st derivatives      : Analytical E(r).r(x)/FMM algorithm (CHGder, D1EAlg=3).
                        Cavity 1st derivative terms included.
 2nd derivatives      : Analytical E(r).r(xy)/FMM algorithm (CHGder, D2EAlg=3).
                        Cavity 2nd derivative terms included.
 Solvent              : Benzene, Eps=   2.270600 Eps(inf)=   2.253301
 ------------------------------------------------------------------------------
 GePol: Number of generator spheres                  =      29
 GePol: Total number of spheres                      =      29
 GePol: Number of exposed spheres                    =      29 (100.00%)
 GePol: Number of points                             =    2169
 GePol: Average weight of points                     =       0.12
 GePol: Minimum weight of points                     =   0.83D-09
 GePol: Maximum weight of points                     =    0.21094
 GePol: Number of points with low weight             =     140
 GePol: Fraction of low-weight points (<1% of avg)   =       6.45%
 GePol: Cavity surface area                          =    255.071 Ang**2
 GePol: Cavity volume                                =    207.007 Ang**3
 ------------------------------------------------------------------------------
 Atomic radii for non-electrostatic terms: SMD-CDS.
 ------------------------------------------------------------------------------
 PCM non-electrostatic energy =         0.0002278497 Hartrees.
 Nuclear repulsion after PCM non-electrostatic terms =      981.5286203224 Hartrees.
 Leave Link  301 at Fri Nov 22 00:49:29 2019, MaxMem=   280000000 cpu:               6.0 elap:               0.3
 (Enter /home/soft/g16/l302.exe)
 NPDir=0 NMtPBC=     1 NCelOv=     1 NCel=       1 NClECP=     1 NCelD=      1
         NCelK=      1 NCelE2=     1 NClLst=     1 CellRange=     0.0.
 One-electron integrals computed using PRISM.
 One-electron integral symmetry used in STVInt
 NBasis=   303 RedAO= T EigKep=  1.53D-03  NBF=   303
 NBsUse=   303 1.00D-06 EigRej= -1.00D+00 NBFU=   303
 Precomputing XC quadrature grid using
 IXCGrd= 4 IRadAn=           5 IRanWt=          -1 IRanGd=           0 AccXCQ= 0.00D+00.
 Generated NRdTot=       0 NPtTot=           0 NUsed=           0 NTot=          32
 NSgBfM=   324   323   323   324   324 MxSgAt=    29 MxSgA2=    29.
 Leave Link  302 at Fri Nov 22 00:49:30 2019, MaxMem=   280000000 cpu:              19.9 elap:               1.0
 (Enter /home/soft/g16/l303.exe)
 DipDrv:  MaxL=1.
 Leave Link  303 at Fri Nov 22 00:49:30 2019, MaxMem=   280000000 cpu:               1.8 elap:               0.1
 (Enter /home/soft/g16/l401.exe)
 ExpMin= 4.68D-02 ExpMax= 3.52D+05 ExpMxC= 3.39D+03 IAcc=3 IRadAn=         5 AccDes= 0.00D+00
 Harris functional with IExCor= 1009 and IRadAn=       5 diagonalized for initial guess.
 HarFok:  IExCor= 1009 AccDes= 0.00D+00 IRadAn=         5 IDoV= 1 UseB2=F ITyADJ=14
 ICtDFT=  3500011 ScaDFX=  1.000000  1.000000  1.000000  1.000000
 FoFCou: FMM=F IPFlag=           0 FMFlag=      100000 FMFlg1=           0
         NFxFlg=           0 DoJE=T BraDBF=F KetDBF=T FulRan=T
         wScrn=  0.000000 ICntrl=       500 IOpCl=  0 I1Cent=   200000004 NGrid=           0
         NMat0=    1 NMatS0=      1 NMatT0=    0 NMatD0=    1 NMtDS0=    0 NMtDT0=    0
 Petite list used in FoFCou.
 Harris En= -2430.97554510343    
 JPrj=0 DoOrth=F DoCkMO=F.
 Leave Link  401 at Fri Nov 22 00:49:32 2019, MaxMem=   280000000 cpu:              29.5 elap:               1.4
 (Enter /home/soft/g16/l502.exe)
 Integral symmetry usage will be decided dynamically.
 Closed shell SCF:
 Using DIIS extrapolation, IDIIS=  1040.
 NGot=   280000000 LenX=   279776157 LenY=   279669440
 Requested convergence on RMS density matrix=1.00D-08 within 128 cycles.
 Requested convergence on MAX density matrix=1.00D-06.
 Requested convergence on             energy=1.00D-06.
 No special actions if energy rises.
 Fock matrices will be formed incrementally for  20 cycles.

 Cycle   1  Pass 1  IDiag  1:
 FoFJK:  IHMeth= 1 ICntrl=       0 DoSepK=F KAlg= 0 I1Cent=           0 FoldK=F
 IRaf= 900000000 NMat=       1 IRICut=       1 DoRegI=T DoRafI=F ISym2E= 0 IDoP0=0 IntGTp=1.
 FoFCou: FMM=F IPFlag=           0 FMFlag=      100000 FMFlg1=           0
         NFxFlg=           0 DoJE=F BraDBF=F KetDBF=F FulRan=T
         wScrn=  0.000000 ICntrl=         0 IOpCl=  0 I1Cent=           0 NGrid=           0
         NMat0=    1 NMatS0=      1 NMatT0=    0 NMatD0=    1 NMtDS0=    0 NMtDT0=    0
 Symmetry not used in FoFCou.
 Inv3:  Mode=1 IEnd=    14113683.
 Iteration    1 A*A^-1 deviation from unit magnitude is 4.22D-15 for   2129.
 Iteration    1 A*A^-1 deviation from orthogonality  is 2.82D-15 for   1245    606.
 Iteration    1 A^-1*A deviation from unit magnitude is 4.22D-15 for   2129.
 Iteration    1 A^-1*A deviation from orthogonality  is 5.33D-15 for   2157    524.
 E= -2430.39075181436    
 DIIS: error= 3.72D-02 at cycle   1 NSaved=   1.
 NSaved= 1 IEnMin= 1 EnMin= -2430.39075181436     IErMin= 1 ErrMin= 3.72D-02
 ErrMax= 3.72D-02  0.00D+00 EMaxC= 1.00D-01 BMatC= 4.63D-01 BMatP= 4.63D-01
 IDIUse=3 WtCom= 6.28D-01 WtEn= 3.72D-01
 Coeff-Com:  0.100D+01
 Coeff-En:   0.100D+01
 Coeff:      0.100D+01
 Gap=     0.138 Goal=   None    Shift=    0.000
 GapD=    0.138 DampG=1.000 DampE=0.250 DampFc=0.2500 IDamp=-1.
 Damping current iteration by 2.50D-01
 RMSDP=4.67D-03 MaxDP=2.14D-01              OVMax= 1.76D-01

 Cycle   2  Pass 1  IDiag  1:
 RMSU=  1.16D-03    CP:  9.91D-01
 E= -2430.54461404627     Delta-E=       -0.153862231904 Rises=F Damp=T
 DIIS: error= 2.67D-02 at cycle   2 NSaved=   2.
 NSaved= 2 IEnMin= 2 EnMin= -2430.54461404627     IErMin= 2 ErrMin= 2.67D-02
 ErrMax= 2.67D-02  0.00D+00 EMaxC= 1.00D-01 BMatC= 1.54D-01 BMatP= 4.63D-01
 IDIUse=3 WtCom= 7.33D-01 WtEn= 2.67D-01
 Coeff-Com: -0.830D+00 0.183D+01
 Coeff-En:   0.000D+00 0.100D+01
 Coeff:     -0.608D+00 0.161D+01
 Gap=     0.230 Goal=   None    Shift=    0.000
 RMSDP=1.73D-03 MaxDP=6.96D-02 DE=-1.54D-01 OVMax= 1.82D-01

 Cycle   3  Pass 1  IDiag  1:
 RMSU=  1.40D-03    CP:  9.80D-01  1.87D+00
 E= -2430.58442151884     Delta-E=       -0.039807472572 Rises=F Damp=F
 DIIS: error= 5.79D-02 at cycle   3 NSaved=   3.
 NSaved= 3 IEnMin= 3 EnMin= -2430.58442151884     IErMin= 2 ErrMin= 2.67D-02
 ErrMax= 5.79D-02  0.00D+00 EMaxC= 1.00D-01 BMatC= 6.39D-01 BMatP= 1.54D-01
 IDIUse=2 WtCom= 0.00D+00 WtEn= 1.00D+00
 Coeff-En:   0.000D+00 0.437D+00 0.563D+00
 Coeff:      0.000D+00 0.437D+00 0.563D+00
 Gap=     0.020 Goal=   None    Shift=    0.000
 RMSDP=2.84D-02 MaxDP=2.93D+00 DE=-3.98D-02 OVMax= 9.89D-01

 Cycle   4  Pass 1  IDiag  1:
 RMSU=  2.67D-02    CP:  9.73D-01  3.00D+00 -3.00D+00
 E= -2418.01021226666     Delta-E=       12.574209252175 Rises=F Damp=F
 DIIS: error= 2.91D-01 at cycle   4 NSaved=   4.
 NSaved= 4 IEnMin= 3 EnMin= -2430.58442151884     IErMin= 2 ErrMin= 2.67D-02
 ErrMax= 2.91D-01  0.00D+00 EMaxC= 1.00D-01 BMatC= 2.16D+01 BMatP= 1.54D-01
 IDIUse=2 WtCom= 0.00D+00 WtEn= 1.00D+00
 EnCoef did     2 forward-backward iterations
 Coeff-En:   0.140D-01 0.000D+00 0.909D+00 0.772D-01
 Coeff:      0.140D-01 0.000D+00 0.909D+00 0.772D-01
 Gap=    -0.039 Goal=   None    Shift=    0.000
 RMSDP=2.63D-02 MaxDP=2.51D+00 DE= 1.26D+01 OVMax= 9.76D-01

 Cycle   5  Pass 1  IDiag  1:
 RMSU=  2.05D-03    CP:  9.82D-01  3.00D+00 -1.50D+00  3.47D-02
 E= -2429.45824854315     Delta-E=      -11.448036276489 Rises=F Damp=F
 DIIS: error= 1.56D-01 at cycle   5 NSaved=   5.
 NSaved= 5 IEnMin= 3 EnMin= -2430.58442151884     IErMin= 2 ErrMin= 2.67D-02
 ErrMax= 1.56D-01  0.00D+00 EMaxC= 1.00D-01 BMatC= 3.71D+00 BMatP= 1.54D-01
 IDIUse=2 WtCom= 0.00D+00 WtEn= 1.00D+00
 Coeff-En:   0.000D+00 0.000D+00 0.740D+00 0.000D+00 0.260D+00
 Coeff:      0.000D+00 0.000D+00 0.740D+00 0.000D+00 0.260D+00
 Gap=     0.139 Goal=   None    Shift=    0.000
 RMSDP=3.04D-03 MaxDP=3.35D-01 DE=-1.14D+01 OVMax= 2.25D-01

 Cycle   6  Pass 1  IDiag  1:
 RMSU=  4.82D-04    CP:  9.83D-01  2.08D+00  6.40D-02  1.71D-03  3.02D-01
 E= -2430.76183429259     Delta-E=       -1.303585749438 Rises=F Damp=F
 DIIS: error= 3.08D-02 at cycle   6 NSaved=   6.
 NSaved= 6 IEnMin= 6 EnMin= -2430.76183429259     IErMin= 2 ErrMin= 2.67D-02
 ErrMax= 3.08D-02  0.00D+00 EMaxC= 1.00D-01 BMatC= 1.68D-01 BMatP= 1.54D-01
 IDIUse=3 WtCom= 6.92D-01 WtEn= 3.08D-01
 Coeff-Com: -0.381D-01 0.419D-01 0.260D+00 0.449D-03-0.685D-01 0.805D+00
 Coeff-En:   0.000D+00 0.000D+00 0.297D+00 0.000D+00 0.000D+00 0.703D+00
 Coeff:     -0.263D-01 0.290D-01 0.271D+00 0.311D-03-0.474D-01 0.773D+00
 Gap=     0.166 Goal=   None    Shift=    0.000
 RMSDP=5.87D-04 MaxDP=4.02D-02 DE=-1.30D+00 OVMax= 5.52D-02

 Cycle   7  Pass 1  IDiag  1:
 RMSU=  8.03D-05    CP:  9.82D-01  2.00D+00  4.28D-01 -1.91D-04  1.81D-01
                    CP:  8.19D-01
 E= -2430.82001128255     Delta-E=       -0.058176989964 Rises=F Damp=F
 DIIS: error= 1.76D-03 at cycle   7 NSaved=   7.
 NSaved= 7 IEnMin= 7 EnMin= -2430.82001128255     IErMin= 7 ErrMin= 1.76D-03
 ErrMax= 1.76D-03  0.00D+00 EMaxC= 1.00D-01 BMatC= 5.50D-04 BMatP= 1.54D-01
 IDIUse=3 WtCom= 9.82D-01 WtEn= 1.76D-02
 Coeff-Com: -0.996D-02 0.118D-01 0.268D-01 0.813D-04-0.114D-01 0.148D+00
 Coeff-Com:  0.834D+00
 Coeff-En:   0.000D+00 0.000D+00 0.000D+00 0.000D+00 0.000D+00 0.000D+00
 Coeff-En:   0.100D+01
 Coeff:     -0.979D-02 0.116D-01 0.263D-01 0.798D-04-0.112D-01 0.146D+00
 Coeff:      0.837D+00
 Gap=     0.163 Goal=   None    Shift=    0.000
 RMSDP=3.91D-05 MaxDP=1.98D-03 DE=-5.82D-02 OVMax= 4.37D-03

 Cycle   8  Pass 1  IDiag  1:
 RMSU=  2.03D-05    CP:  9.82D-01  2.01D+00  4.09D-01 -1.84D-04  1.86D-01
                    CP:  8.47D-01  9.54D-01
 E= -2430.82016445602     Delta-E=       -0.000153173469 Rises=F Damp=F
 DIIS: error= 6.14D-04 at cycle   8 NSaved=   8.
 NSaved= 8 IEnMin= 8 EnMin= -2430.82016445602     IErMin= 8 ErrMin= 6.14D-04
 ErrMax= 6.14D-04  0.00D+00 EMaxC= 1.00D-01 BMatC= 6.48D-05 BMatP= 5.50D-04
 IDIUse=3 WtCom= 9.94D-01 WtEn= 6.14D-03
 Coeff-Com: -0.158D-02 0.217D-02 0.501D-02 0.188D-04-0.332D-02 0.347D-01
 Coeff-Com:  0.381D+00 0.583D+00
 Coeff-En:   0.000D+00 0.000D+00 0.000D+00 0.000D+00 0.000D+00 0.000D+00
 Coeff-En:   0.226D+00 0.774D+00
 Coeff:     -0.157D-02 0.215D-02 0.498D-02 0.187D-04-0.330D-02 0.344D-01
 Coeff:      0.380D+00 0.584D+00
 Gap=     0.164 Goal=   None    Shift=    0.000
 RMSDP=2.11D-05 MaxDP=1.40D-03 DE=-1.53D-04 OVMax= 1.63D-03

 Cycle   9  Pass 1  IDiag  1:
 RMSU=  5.98D-06    CP:  9.82D-01  2.01D+00  4.19D-01 -2.34D-04  1.82D-01
                    CP:  8.39D-01  9.89D-01  7.73D-01
 E= -2430.82019196772     Delta-E=       -0.000027511697 Rises=F Damp=F
 DIIS: error= 1.20D-04 at cycle   9 NSaved=   9.
 NSaved= 9 IEnMin= 9 EnMin= -2430.82019196772     IErMin= 9 ErrMin= 1.20D-04
 ErrMax= 1.20D-04  0.00D+00 EMaxC= 1.00D-01 BMatC= 2.03D-06 BMatP= 6.48D-05
 IDIUse=3 WtCom= 9.99D-01 WtEn= 1.20D-03
 Coeff-Com:  0.984D-04-0.231D-03-0.104D-02-0.177D-04-0.109D-04 0.225D-02
 Coeff-Com:  0.997D-01 0.208D+00 0.691D+00
 Coeff-En:   0.000D+00 0.000D+00 0.000D+00 0.000D+00 0.000D+00 0.000D+00
 Coeff-En:   0.000D+00 0.708D-01 0.929D+00
 Coeff:      0.982D-04-0.231D-03-0.104D-02-0.176D-04-0.109D-04 0.225D-02
 Coeff:      0.996D-01 0.208D+00 0.692D+00
 Gap=     0.163 Goal=   None    Shift=    0.000
 RMSDP=2.71D-06 MaxDP=9.27D-05 DE=-2.75D-05 OVMax= 2.69D-04

 Cycle  10  Pass 1  IDiag  1:
 RMSU=  1.52D-06    CP:  9.82D-01  2.01D+00  4.18D-01 -2.36D-04  1.82D-01
                    CP:  8.40D-01  1.00D+00  8.16D-01  9.66D-01
 E= -2430.82019298698     Delta-E=       -0.000001019259 Rises=F Damp=F
 DIIS: error= 3.11D-05 at cycle  10 NSaved=  10.
 NSaved=10 IEnMin=10 EnMin= -2430.82019298698     IErMin=10 ErrMin= 3.11D-05
 ErrMax= 3.11D-05  0.00D+00 EMaxC= 1.00D-01 BMatC= 1.29D-07 BMatP= 2.03D-06
 IDIUse=1 WtCom= 1.00D+00 WtEn= 0.00D+00
 Coeff-Com:  0.285D-04-0.902D-04-0.890D-03-0.123D-04 0.237D-03-0.112D-02
 Coeff-Com:  0.199D-01 0.469D-01 0.215D+00 0.720D+00
 Coeff:      0.285D-04-0.902D-04-0.890D-03-0.123D-04 0.237D-03-0.112D-02
 Coeff:      0.199D-01 0.469D-01 0.215D+00 0.720D+00
 Gap=     0.163 Goal=   None    Shift=    0.000
 RMSDP=9.86D-07 MaxDP=3.44D-05 DE=-1.02D-06 OVMax= 8.98D-05

 Cycle  11  Pass 1  IDiag  1:
 RMSU=  6.03D-07    CP:  9.82D-01  2.01D+00  4.18D-01 -2.39D-04  1.82D-01
                    CP:  8.41D-01  1.01D+00  8.32D-01  1.02D+00  1.19D+00
 E= -2430.82019305882     Delta-E=       -0.000000071839 Rises=F Damp=F
 DIIS: error= 4.88D-06 at cycle  11 NSaved=  11.
 NSaved=11 IEnMin=11 EnMin= -2430.82019305882     IErMin=11 ErrMin= 4.88D-06
 ErrMax= 4.88D-06  0.00D+00 EMaxC= 1.00D-01 BMatC= 4.48D-09 BMatP= 1.29D-07
 IDIUse=1 WtCom= 1.00D+00 WtEn= 0.00D+00
 Coeff-Com: -0.808D-04 0.128D-03 0.369D-04-0.454D-06 0.305D-04-0.546D-03
 Coeff-Com: -0.158D-01-0.329D-01-0.140D+00 0.230D+00 0.958D+00
 Coeff:     -0.808D-04 0.128D-03 0.369D-04-0.454D-06 0.305D-04-0.546D-03
 Coeff:     -0.158D-01-0.329D-01-0.140D+00 0.230D+00 0.958D+00
 Gap=     0.163 Goal=   None    Shift=    0.000
 RMSDP=7.66D-07 MaxDP=3.02D-05 DE=-7.18D-08 OVMax= 8.68D-05

 Cycle  12  Pass 1  IDiag  1:
 RMSU=  1.63D-07    CP:  9.82D-01  2.01D+00  4.18D-01 -2.42D-04  1.82D-01
                    CP:  8.41D-01  1.01D+00  8.44D-01  1.07D+00  1.51D+00
                    CP:  1.17D+00
 E= -2430.82019306703     Delta-E=       -0.000000008215 Rises=F Damp=F
 DIIS: error= 1.56D-06 at cycle  12 NSaved=  12.
 NSaved=12 IEnMin=12 EnMin= -2430.82019306703     IErMin=12 ErrMin= 1.56D-06
 ErrMax= 1.56D-06  0.00D+00 EMaxC= 1.00D-01 BMatC= 6.87D-10 BMatP= 4.48D-09
 IDIUse=1 WtCom= 1.00D+00 WtEn= 0.00D+00
 Coeff-Com: -0.578D-05 0.149D-04 0.565D-04 0.155D-06-0.139D-07-0.151D-03
 Coeff-Com: -0.593D-02-0.117D-01-0.452D-01 0.320D-01 0.266D+00 0.764D+00
 Coeff:     -0.578D-05 0.149D-04 0.565D-04 0.155D-06-0.139D-07-0.151D-03
 Coeff:     -0.593D-02-0.117D-01-0.452D-01 0.320D-01 0.266D+00 0.764D+00
 Gap=     0.163 Goal=   None    Shift=    0.000
 RMSDP=1.13D-07 MaxDP=3.93D-06 DE=-8.21D-09 OVMax= 1.40D-05

 Cycle  13  Pass 1  IDiag  1:
 RMSU=  5.02D-08    CP:  9.82D-01  2.01D+00  4.18D-01 -2.42D-04  1.82D-01
                    CP:  8.41D-01  1.01D+00  8.45D-01  1.07D+00  1.55D+00
                    CP:  1.26D+00  9.81D-01
 E= -2430.82019306758     Delta-E=       -0.000000000545 Rises=F Damp=F
 DIIS: error= 8.96D-07 at cycle  13 NSaved=  13.
 NSaved=13 IEnMin=13 EnMin= -2430.82019306758     IErMin=13 ErrMin= 8.96D-07
 ErrMax= 8.96D-07  0.00D+00 EMaxC= 1.00D-01 BMatC= 1.54D-10 BMatP= 6.87D-10
 IDIUse=1 WtCom= 1.00D+00 WtEn= 0.00D+00
 Coeff-Com:  0.139D-04-0.209D-04 0.939D-05 0.110D-06 0.946D-07-0.118D-04
 Coeff-Com: -0.273D-03-0.441D-03 0.630D-02-0.102D-01-0.483D-01 0.158D+00
 Coeff-Com:  0.895D+00
 Coeff:      0.139D-04-0.209D-04 0.939D-05 0.110D-06 0.946D-07-0.118D-04
 Coeff:     -0.273D-03-0.441D-03 0.630D-02-0.102D-01-0.483D-01 0.158D+00
 Coeff:      0.895D+00
 Gap=     0.163 Goal=   None    Shift=    0.000
 RMSDP=4.08D-08 MaxDP=1.43D-06 DE=-5.45D-10 OVMax= 5.22D-06

 Cycle  14  Pass 1  IDiag  1:
 RMSU=  1.38D-08    CP:  9.82D-01  2.01D+00  4.18D-01 -2.42D-04  1.82D-01
                    CP:  8.41D-01  1.01D+00  8.46D-01  1.08D+00  1.57D+00
                    CP:  1.29D+00  1.11D+00  1.05D+00
 E= -2430.82019306765     Delta-E=       -0.000000000068 Rises=F Damp=F
 DIIS: error= 3.99D-07 at cycle  14 NSaved=  14.
 NSaved=14 IEnMin=14 EnMin= -2430.82019306765     IErMin=14 ErrMin= 3.99D-07
 ErrMax= 3.99D-07  0.00D+00 EMaxC= 1.00D-01 BMatC= 2.52D-11 BMatP= 1.54D-10
 IDIUse=1 WtCom= 1.00D+00 WtEn= 0.00D+00
 Coeff-Com:  0.370D-05-0.494D-05-0.141D-05 0.144D-07-0.148D-06 0.481D-05
 Coeff-Com:  0.420D-03 0.833D-03 0.652D-02-0.478D-02-0.392D-01-0.113D-01
 Coeff-Com:  0.247D+00 0.800D+00
 Coeff:      0.370D-05-0.494D-05-0.141D-05 0.144D-07-0.148D-06 0.481D-05
 Coeff:      0.420D-03 0.833D-03 0.652D-02-0.478D-02-0.392D-01-0.113D-01
 Coeff:      0.247D+00 0.800D+00
 Gap=     0.163 Goal=   None    Shift=    0.000
 RMSDP=1.09D-08 MaxDP=5.13D-07 DE=-6.82D-11 OVMax= 1.19D-06

 Cycle  15  Pass 1  IDiag  1:
 RMSU=  4.00D-09    CP:  9.82D-01  2.01D+00  4.18D-01 -2.42D-04  1.82D-01
                    CP:  8.41D-01  1.01D+00  8.46D-01  1.08D+00  1.57D+00
                    CP:  1.29D+00  1.13D+00  1.14D+00  1.13D+00
 E= -2430.82019306764     Delta-E=        0.000000000006 Rises=F Damp=F
 DIIS: error= 1.65D-08 at cycle  15 NSaved=  15.
 NSaved=15 IEnMin=14 EnMin= -2430.82019306765     IErMin=15 ErrMin= 1.65D-08
 ErrMax= 1.65D-08  0.00D+00 EMaxC= 1.00D-01 BMatC= 5.00D-14 BMatP= 2.52D-11
 IDIUse=1 WtCom= 1.00D+00 WtEn= 0.00D+00
 Coeff-Com: -0.439D-07 0.132D-06-0.949D-06 0.814D-08 0.701D-07 0.186D-06
 Coeff-Com:  0.712D-04 0.114D-03 0.647D-03-0.166D-03-0.380D-02-0.974D-02
 Coeff-Com: -0.261D-02 0.151D+00 0.865D+00
 Coeff:     -0.439D-07 0.132D-06-0.949D-06 0.814D-08 0.701D-07 0.186D-06
 Coeff:      0.712D-04 0.114D-03 0.647D-03-0.166D-03-0.380D-02-0.974D-02
 Coeff:     -0.261D-02 0.151D+00 0.865D+00
 Gap=     0.163 Goal=   None    Shift=    0.000
 RMSDP=2.68D-09 MaxDP=1.07D-07 DE= 5.91D-12 OVMax= 2.48D-07

 Error on total polarization charges =  0.03716
 SCF Done:  E(RPBE1PBE) =  -2430.82019307     A.U. after   15 cycles
            NFock= 15  Conv=0.27D-08     -V/T= 2.0027
 KE= 2.424315299063D+03 PE=-7.747260142703D+03 EE= 1.910596030250D+03
 SMD-CDS (non-electrostatic) energy       (kcal/mol) =       0.14
 (included in total energy above)
 Leave Link  502 at Fri Nov 22 00:50:09 2019, MaxMem=   280000000 cpu:             862.4 elap:              37.3
 (Enter /home/soft/g16/l801.exe)
 DoSCS=F DFT=T ScalE2(SS,OS)=  1.000000  1.000000
 Range of M.O.s used for correlation:     1   303
 NBasis=   303 NAE=    57 NBE=    57 NFC=     0 NFV=     0
 NROrb=    303 NOA=    57 NOB=    57 NVA=   246 NVB=   246
 Leave Link  801 at Fri Nov 22 00:50:09 2019, MaxMem=   280000000 cpu:               1.1 elap:               0.1
 (Enter /home/soft/g16/l1101.exe)
 Using compressed storage, NAtomX=    29.
 Will process     30 centers per pass.
 R6Disp: Adding Grimme-D3(BJ) dispersion energy 1st derivatives to the gradient.
 Leave Link 1101 at Fri Nov 22 00:50:11 2019, MaxMem=   280000000 cpu:              14.4 elap:               0.8
 (Enter /home/soft/g16/l1102.exe)
 Symmetrizing basis deriv contribution to polar:
 IMax=3 JMax=2 DiffMx= 0.00D+00
 Leave Link 1102 at Fri Nov 22 00:50:11 2019, MaxMem=   280000000 cpu:               3.2 elap:               0.3
 (Enter /home/soft/g16/l1110.exe)
 Forming Gx(P) for the SCF density, NAtomX=    29.
 Integral derivatives from FoFJK, PRISM(SPDF).
 Do as many integral derivatives as possible in FoFJK.
 G2DrvN: MDV=     279997776.
 G2DrvN: will do    30 centers at a time, making    1 passes.
 Calling FoFCou, ICntrl=  3107 FMM=F I1Cent=   0 AccDes= 0.00D+00.
 FoFJK:  IHMeth= 1 ICntrl=    3107 DoSepK=F KAlg= 0 I1Cent=           0 FoldK=F
 IRaf=         0 NMat=       1 IRICut=       1 DoRegI=T DoRafI=F ISym2E= 0 IDoP0=0 IntGTp=1.
 FoFCou: FMM=F IPFlag=           0 FMFlag=      100000 FMFlg1=           0
         NFxFlg=           0 DoJE=F BraDBF=F KetDBF=F FulRan=T
         wScrn=  0.000000 ICntrl=      3107 IOpCl=  0 I1Cent=           0 NGrid=           0
         NMat0=    1 NMatS0=      1 NMatT0=    0 NMatD0=    1 NMtDS0=    0 NMtDT0=    0
 Symmetry not used in FoFCou.
 NEqPCM:  Using equilibrium solvation (IEInf=0, Eps=   2.2706, EpsInf=   2.2533)
 G2PCM: DoFxE=T DoFxN=T DoGrad=T DoDP/DQ/DG/TGxP=FFFF NFrqRd=   0 IEInf=0 SqF1=F DoCFld=F IF1Alg=4.
 GePol: Maximum number of non-zero 1st derivatives   =     242
 CoulSu:  requested number of processors reduced to:  14 ShMem   1 Linda.
 CoulSu:  requested number of processors reduced to:  16 ShMem   1 Linda.
 End of G2Drv F.D. properties file   721 does not exist.
 End of G2Drv F.D. properties file   722 does not exist.
 End of G2Drv F.D. properties file   788 does not exist.
 Leave Link 1110 at Fri Nov 22 00:51:08 2019, MaxMem=   280000000 cpu:            1334.8 elap:              56.2
 (Enter /home/soft/g16/l1002.exe)
 Minotr:  Closed shell wavefunction.
          IDoAtm=11111111111111111111111111111
 NEqPCM:  Using equilibrium solvation (IEInf=0, Eps=   2.2706, EpsInf=   2.2533)
          Direct CPHF calculation.
          Differentiating once with respect to nuclear coordinates.
          Requested convergence is 1.0D-08 RMS, and 1.0D-07 maximum.
          Secondary convergence is 1.0D-12 RMS, and 1.0D-12 maximum.
          NewPWx=T KeepS1=F KeepF1=F KeepIn=T MapXYZ=F SortEE=F KeepMc=T.
         8727 words used for storage of precomputed grid.
 Two-electron integrals replicated using symmetry.
          MDV=     280000000 using IRadAn=       1.
          Solving linear equations simultaneously, MaxMat=     384.
 FoF2E skips out because all densities are zero.
 CalDSu exits because no D1Ps are significant.
 FoFJK:  IHMeth= 1 ICntrl=       0 DoSepK=F KAlg= 0 I1Cent=           0 FoldK=F
 IRaf= 880000000 NMat=      24 IRICut=      60 DoRegI=T DoRafI=T ISym2E= 2 IDoP0=3 IntGTp=3.
          There are    90 degrees of freedom in the 1st order CPHF.  IDoFFX=6 NUNeed=     0.
     84 vectors produced by pass  0 Test12= 1.56D-14 1.11D-09 XBig12= 8.24D-02 1.20D-01.
 AX will form    24 AO Fock derivatives at one time.
     84 vectors produced by pass  1 Test12= 1.56D-14 1.11D-09 XBig12= 2.71D-01 1.76D-01.
     84 vectors produced by pass  2 Test12= 1.56D-14 1.11D-09 XBig12= 4.33D-03 1.89D-02.
     84 vectors produced by pass  3 Test12= 1.56D-14 1.11D-09 XBig12= 2.61D-05 1.07D-03.
     84 vectors produced by pass  4 Test12= 1.56D-14 1.11D-09 XBig12= 8.17D-08 3.40D-05.
     83 vectors produced by pass  5 Test12= 1.56D-14 1.11D-09 XBig12= 1.48D-10 1.51D-06.
     28 vectors produced by pass  6 Test12= 1.56D-14 1.11D-09 XBig12= 2.04D-13 4.99D-08.
      2 vectors produced by pass  7 Test12= 1.56D-14 1.11D-09 XBig12= 2.60D-16 2.27D-09.
 InvSVY:  IOpt=1 It=  1 EMax= 3.89D-16
 Solved reduced A of dimension   533 with    90 vectors.
 End of Minotr F.D. properties file   721 does not exist.
 End of Minotr F.D. properties file   722 does not exist.
 End of Minotr F.D. properties file   788 does not exist.
 Leave Link 1002 at Fri Nov 22 00:53:23 2019, MaxMem=   280000000 cpu:            3246.4 elap:             135.5
 (Enter /home/soft/g16/l601.exe)
 Copying SCF densities to generalized density rwf, IOpCl= 0 IROHF=0.

 **********************************************************************

            Population analysis using the SCF density.

 **********************************************************************

 Orbital symmetries:
       Occupied  (A) (A) (A) (A) (A) (A) (A) (A) (A) (A) (A) (A)
                 (A) (A) (A) (A) (A) (A) (A) (A) (A) (A) (A) (A)
                 (A) (A) (A) (A) (A) (A) (A) (A) (A) (A) (A) (A)
                 (A) (A) (A) (A) (A) (A) (A) (A) (A) (A) (A) (A)
                 (A) (A) (A) (A) (A) (A) (A) (A) (A)
       Virtual   (A) (A) (A) (A) (A) (A) (A) (A) (A) (A) (A) (A)
                 (A) (A) (A) (A) (A) (A) (A) (A) (A) (A) (A) (A)
                 (A) (A) (A) (A) (A) (A) (A) (A) (A) (A) (A) (A)
                 (A) (A) (A) (A) (A) (A) (A) (A) (A) (A) (A) (A)
                 (A) (A) (A) (A) (A) (A) (A) (A) (A) (A) (A) (A)
                 (A) (A) (A) (A) (A) (A) (A) (A) (A) (A) (A) (A)
                 (A) (A) (A) (A) (A) (A) (A) (A) (A) (A) (A) (A)
                 (A) (A) (A) (A) (A) (A) (A) (A) (A) (A) (A) (A)
                 (A) (A) (A) (A) (A) (A) (A) (A) (A) (A) (A) (A)
                 (A) (A) (A) (A) (A) (A) (A) (A) (A) (A) (A) (A)
                 (A) (A) (A) (A) (A) (A) (A) (A) (A) (A) (A) (A)
                 (A) (A) (A) (A) (A) (A) (A) (A) (A) (A) (A) (A)
                 (A) (A) (A) (A) (A) (A) (A) (A) (A) (A) (A) (A)
                 (A) (A) (A) (A) (A) (A) (A) (A) (A) (A) (A) (A)
                 (A) (A) (A) (A) (A) (A) (A) (A) (A) (A) (A) (A)
                 (A) (A) (A) (A) (A) (A) (A) (A) (A) (A) (A) (A)
                 (A) (A) (A) (A) (A) (A) (A) (A) (A) (A) (A) (A)
                 (A) (A) (A) (A) (A) (A) (A) (A) (A) (A) (A) (A)
                 (A) (A) (A) (A) (A) (A) (A) (A) (A) (A) (A) (A)
                 (A) (A) (A) (A) (A) (A) (A) (A) (A) (A) (A) (A)
                 (A) (A) (A) (A) (A) (A)
 The electronic state is 1-A.
 Alpha  occ. eigenvalues -- -300.01459 -77.19685 -77.19684 -35.74028 -31.13437
 Alpha  occ. eigenvalues --  -31.12793 -31.12571 -10.21957 -10.21956 -10.21895
 Alpha  occ. eigenvalues --  -10.21894 -10.21872 -10.21872  -6.59072  -6.59072
 Alpha  occ. eigenvalues --   -4.72688  -4.72688  -4.72681  -4.72681  -4.72275
 Alpha  occ. eigenvalues --   -4.72275  -3.91277  -2.49794  -2.48407  -2.47932
 Alpha  occ. eigenvalues --   -0.77526  -0.77470  -0.69627  -0.69617  -0.69599
 Alpha  occ. eigenvalues --   -0.69593  -0.54018  -0.53658  -0.44941  -0.44438
 Alpha  occ. eigenvalues --   -0.43304  -0.43152  -0.43149  -0.43092  -0.43032
 Alpha  occ. eigenvalues --   -0.40474  -0.40406  -0.40396  -0.40343  -0.38848
 Alpha  occ. eigenvalues --   -0.38823  -0.33524  -0.33488  -0.33305  -0.33285
 Alpha  occ. eigenvalues --   -0.28868  -0.24719  -0.15742  -0.15322  -0.14753
 Alpha  occ. eigenvalues --   -0.14335  -0.13871
 Alpha virt. eigenvalues --    0.02466   0.04527   0.05139   0.06378   0.08780
 Alpha virt. eigenvalues --    0.09207   0.09787   0.11521   0.11631   0.12282
 Alpha virt. eigenvalues --    0.12515   0.13005   0.13124   0.13588   0.14073
 Alpha virt. eigenvalues --    0.15230   0.15850   0.16416   0.16734   0.17038
 Alpha virt. eigenvalues --    0.17399   0.17900   0.18600   0.18710   0.19209
 Alpha virt. eigenvalues --    0.20208   0.21142   0.22454   0.25930   0.26140
 Alpha virt. eigenvalues --    0.29070   0.30492   0.31109   0.32395   0.32707
 Alpha virt. eigenvalues --    0.33902   0.34269   0.35523   0.37205   0.38457
 Alpha virt. eigenvalues --    0.40555   0.43380   0.45739   0.46705   0.46735
 Alpha virt. eigenvalues --    0.47417   0.48202   0.50024   0.50096   0.50500
 Alpha virt. eigenvalues --    0.50607   0.52300   0.53228   0.54716   0.54814
 Alpha virt. eigenvalues --    0.55199   0.60076   0.61023   0.62637   0.63059
 Alpha virt. eigenvalues --    0.63519   0.63801   0.64178   0.65190   0.66069
 Alpha virt. eigenvalues --    0.66713   0.68222   0.68956   0.69487   0.69764
 Alpha virt. eigenvalues --    0.69828   0.70116   0.70675   0.71568   0.71833
 Alpha virt. eigenvalues --    0.72674   0.72944   0.74030   0.74075   0.74221
 Alpha virt. eigenvalues --    0.74331   0.74368   0.76579   0.78029   0.79416
 Alpha virt. eigenvalues --    0.80422   0.81430   0.83547   0.84638   0.84794
 Alpha virt. eigenvalues --    0.87623   0.90562   0.93388   1.00852   1.02962
 Alpha virt. eigenvalues --    1.03230   1.03734   1.05876   1.05955   1.11643
 Alpha virt. eigenvalues --    1.12799   1.13975   1.17120   1.18238   1.18871
 Alpha virt. eigenvalues --    1.19739   1.24098   1.25230   1.26374   1.26803
 Alpha virt. eigenvalues --    1.30925   1.31617   1.32171   1.35207   1.37323
 Alpha virt. eigenvalues --    1.38159   1.39258   1.39751   1.41347   1.44482
 Alpha virt. eigenvalues --    1.46645   1.52476   1.54689   1.54692   1.54845
 Alpha virt. eigenvalues --    1.54921   1.55101   1.55549   1.58808   1.60509
 Alpha virt. eigenvalues --    1.60725   1.62640   1.63890   1.63998   1.64078
 Alpha virt. eigenvalues --    1.64217   1.65512   1.68959   1.69444   1.69776
 Alpha virt. eigenvalues --    1.70329   1.70820   1.72414   1.76901   1.78651
 Alpha virt. eigenvalues --    1.78873   1.79081   1.79381   1.80364   1.81085
 Alpha virt. eigenvalues --    1.82319   1.83187   1.86395   1.86557   1.87782
 Alpha virt. eigenvalues --    1.88133   1.88611   1.90382   1.91436   1.91520
 Alpha virt. eigenvalues --    1.96667   1.96924   1.96967   1.97347   1.98877
 Alpha virt. eigenvalues --    2.02014   2.10254   2.10561   2.10783   2.11233
 Alpha virt. eigenvalues --    2.11854   2.12523   2.12626   2.14423   2.14547
 Alpha virt. eigenvalues --    2.14988   2.15005   2.15947   2.16950   2.17990
 Alpha virt. eigenvalues --    2.18104   2.18307   2.18473   2.20051   2.26410
 Alpha virt. eigenvalues --    2.31259   2.40989   2.41397   2.41508   2.41533
 Alpha virt. eigenvalues --    2.43399   2.43990   2.47677   2.50434   2.51243
 Alpha virt. eigenvalues --    2.51435   2.52741   2.53767   2.56236   2.56571
 Alpha virt. eigenvalues --    2.56607   2.57972   2.59196   2.59764   2.59857
 Alpha virt. eigenvalues --    2.71644   2.76794   2.79634   2.80124   2.80432
 Alpha virt. eigenvalues --    2.80753   2.81144   2.95998   2.96083   2.97017
 Alpha virt. eigenvalues --    2.97087   2.97451   2.97519   3.04449   3.04474
 Alpha virt. eigenvalues --    3.05338   3.05606   3.05997   3.07298   3.32453
 Alpha virt. eigenvalues --    3.86512   4.37624   4.42504   4.50817   4.59311
 Alpha virt. eigenvalues --    4.74776   5.71754   5.71806   5.71856   5.71945
 Alpha virt. eigenvalues --    5.72774   5.78689   5.79208   7.52899   7.53183
 Alpha virt. eigenvalues --    7.53787   7.53871   7.67453   7.67716  13.75372
 Alpha virt. eigenvalues --   13.82093
          Condensed to atoms (all electrons):
               1          2          3          4          5          6
     1  Ni  27.729941   0.314444   0.314480  -0.025795  -0.000702   0.003090
     2  P    0.314444  14.011954  -0.007390   0.404265  -0.009292  -0.023858
     3  P    0.314480  -0.007390  14.011864  -0.000398   0.000007   0.000022
     4  C   -0.025795   0.404265  -0.000398   4.628853   0.371083   0.353735
     5  H   -0.000702  -0.009292   0.000007   0.371083   0.604770  -0.020302
     6  H    0.003090  -0.023858   0.000022   0.353735  -0.020302   0.660631
     7  H   -0.000255  -0.007782   0.000251   0.369988  -0.014710  -0.019319
     8  C   -0.020306   0.383483   0.000642  -0.046906  -0.000831  -0.005094
     9  H   -0.000227  -0.010499  -0.000046   0.004264  -0.000075  -0.000111
    10  H    0.001778  -0.017686  -0.000020  -0.005356  -0.000218   0.007589
    11  H   -0.000388  -0.010258  -0.000044  -0.000709   0.001154  -0.000361
    12  C   -0.027060   0.403919  -0.000557  -0.041587   0.004004  -0.006258
    13  H   -0.000057  -0.007852   0.000312  -0.001463  -0.000065  -0.000037
    14  H    0.003117  -0.023703   0.000028  -0.006212  -0.000062   0.008002
    15  H   -0.000765  -0.009209   0.000018   0.003985  -0.000150  -0.000057
    16  C   -0.027049  -0.000555   0.403925  -0.000023  -0.000001  -0.000000
    17  H   -0.000057   0.000311  -0.007854  -0.000032  -0.000003   0.000001
    18  H    0.003117   0.000028  -0.023705  -0.000000   0.000000   0.000000
    19  H   -0.000766   0.000018  -0.009209  -0.000001   0.000002   0.000000
    20  C   -0.020309   0.000642   0.383496  -0.000001   0.000000   0.000000
    21  H    0.001778  -0.000020  -0.017686  -0.000000  -0.000000  -0.000000
    22  H   -0.000385  -0.000044  -0.010266  -0.000000  -0.000000  -0.000000
    23  H   -0.000229  -0.000046  -0.010500   0.000000  -0.000000  -0.000000
    24  C   -0.025808  -0.000400   0.404264   0.000006  -0.000000  -0.000000
    25  H   -0.000703   0.000007  -0.009291  -0.000000  -0.000000   0.000000
    26  H    0.003091   0.000022  -0.023857  -0.000000   0.000000   0.000000
    27  H   -0.000253   0.000251  -0.007782  -0.000003  -0.000000   0.000000
    28  H    0.013147  -0.020660   0.000507   0.000062  -0.000020  -0.000013
    29  H    0.013073   0.000502  -0.020655   0.000193  -0.000033  -0.000013
               7          8          9         10         11         12
     1  Ni  -0.000255  -0.020306  -0.000227   0.001778  -0.000388  -0.027060
     2  P   -0.007782   0.383483  -0.010499  -0.017686  -0.010258   0.403919
     3  P    0.000251   0.000642  -0.000046  -0.000020  -0.000044  -0.000557
     4  C    0.369988  -0.046906   0.004264  -0.005356  -0.000709  -0.041587
     5  H   -0.014710  -0.000831  -0.000075  -0.000218   0.001154   0.004004
     6  H   -0.019319  -0.005094  -0.000111   0.007589  -0.000361  -0.006258
     7  H    0.601204   0.004320  -0.000162  -0.000041  -0.000085  -0.001493
     8  C    0.004320   4.664705   0.369322   0.351780   0.368916  -0.047656
     9  H   -0.000162   0.369322   0.607899  -0.019760  -0.015488  -0.000615
    10  H   -0.000041   0.351780  -0.019760   0.655428  -0.019678  -0.005278
    11  H   -0.000085   0.368916  -0.015488  -0.019678   0.608382   0.004312
    12  C   -0.001493  -0.047656  -0.000615  -0.005278   0.004312   4.631547
    13  H    0.001274   0.004321  -0.000088  -0.000041  -0.000163   0.369807
    14  H   -0.000034  -0.004979  -0.000359   0.007576  -0.000119   0.352808
    15  H   -0.000064  -0.000741   0.001123  -0.000224  -0.000076   0.370907
    16  C   -0.000029  -0.000001  -0.000000  -0.000000   0.000000   0.000008
    17  H    0.000112   0.000001  -0.000000   0.000000  -0.000000  -0.000008
    18  H    0.000001   0.000000  -0.000000  -0.000000  -0.000000  -0.000000
    19  H   -0.000001   0.000000  -0.000000   0.000000  -0.000000  -0.000001
    20  C    0.000001  -0.000000   0.000000   0.000000   0.000000  -0.000001
    21  H    0.000000   0.000000  -0.000000  -0.000000  -0.000000  -0.000000
    22  H   -0.000000   0.000000  -0.000000  -0.000000  -0.000000   0.000000
    23  H   -0.000000   0.000000  -0.000000  -0.000000  -0.000000  -0.000000
    24  C   -0.000003  -0.000001   0.000000  -0.000000  -0.000000  -0.000023
    25  H   -0.000000   0.000000  -0.000000  -0.000000  -0.000000  -0.000001
    26  H    0.000000   0.000000  -0.000000  -0.000000  -0.000000  -0.000000
    27  H    0.000002   0.000001  -0.000000   0.000000  -0.000000  -0.000029
    28  H   -0.000009   0.000443  -0.000099  -0.000055  -0.000123   0.000050
    29  H   -0.000020  -0.003245   0.000812   0.000150   0.001092   0.000239
              13         14         15         16         17         18
     1  Ni  -0.000057   0.003117  -0.000765  -0.027049  -0.000057   0.003117
     2  P   -0.007852  -0.023703  -0.009209  -0.000555   0.000311   0.000028
     3  P    0.000312   0.000028   0.000018   0.403925  -0.007854  -0.023705
     4  C   -0.001463  -0.006212   0.003985  -0.000023  -0.000032  -0.000000
     5  H   -0.000065  -0.000062  -0.000150  -0.000001  -0.000003   0.000000
     6  H   -0.000037   0.008002  -0.000057  -0.000000   0.000001   0.000000
     7  H    0.001274  -0.000034  -0.000064  -0.000029   0.000112   0.000001
     8  C    0.004321  -0.004979  -0.000741  -0.000001   0.000001   0.000000
     9  H   -0.000088  -0.000359   0.001123  -0.000000  -0.000000  -0.000000
    10  H   -0.000041   0.007576  -0.000224  -0.000000   0.000000  -0.000000
    11  H   -0.000163  -0.000119  -0.000076   0.000000  -0.000000  -0.000000
    12  C    0.369807   0.352808   0.370907   0.000008  -0.000008  -0.000000
    13  H    0.601534  -0.019229  -0.014665  -0.000008   0.000007   0.000000
    14  H   -0.019229   0.661543  -0.020252  -0.000000   0.000000   0.000000
    15  H   -0.014665  -0.020252   0.604818  -0.000001  -0.000000   0.000000
    16  C   -0.000008  -0.000000  -0.000001   4.631526   0.369809   0.352817
    17  H    0.000007   0.000000  -0.000000   0.369809   0.601534  -0.019229
    18  H    0.000000   0.000000   0.000000   0.352817  -0.019229   0.661533
    19  H   -0.000000   0.000000  -0.000000   0.370910  -0.014665  -0.020252
    20  C    0.000001   0.000000   0.000000  -0.047645   0.004321  -0.004979
    21  H    0.000000  -0.000000   0.000000  -0.005279  -0.000041   0.007576
    22  H   -0.000000  -0.000000  -0.000000   0.004311  -0.000163  -0.000119
    23  H   -0.000000  -0.000000  -0.000000  -0.000616  -0.000088  -0.000359
    24  C   -0.000033  -0.000000  -0.000001  -0.041590  -0.001464  -0.006212
    25  H   -0.000003   0.000000   0.000002   0.004004  -0.000065  -0.000062
    26  H    0.000001   0.000000   0.000000  -0.006256  -0.000037   0.008001
    27  H    0.000113   0.000001  -0.000001  -0.001493   0.001275  -0.000034
    28  H   -0.000008  -0.000011  -0.000017   0.000239  -0.000018  -0.000014
    29  H   -0.000018  -0.000014  -0.000033   0.000050  -0.000008  -0.000011
              19         20         21         22         23         24
     1  Ni  -0.000766  -0.020309   0.001778  -0.000385  -0.000229  -0.025808
     2  P    0.000018   0.000642  -0.000020  -0.000044  -0.000046  -0.000400
     3  P   -0.009209   0.383496  -0.017686  -0.010266  -0.010500   0.404264
     4  C   -0.000001  -0.000001  -0.000000  -0.000000   0.000000   0.000006
     5  H    0.000002   0.000000  -0.000000  -0.000000  -0.000000  -0.000000
     6  H    0.000000   0.000000  -0.000000  -0.000000  -0.000000  -0.000000
     7  H   -0.000001   0.000001   0.000000  -0.000000  -0.000000  -0.000003
     8  C    0.000000  -0.000000   0.000000   0.000000   0.000000  -0.000001
     9  H   -0.000000   0.000000  -0.000000  -0.000000  -0.000000   0.000000
    10  H    0.000000   0.000000  -0.000000  -0.000000  -0.000000  -0.000000
    11  H   -0.000000   0.000000  -0.000000  -0.000000  -0.000000  -0.000000
    12  C   -0.000001  -0.000001  -0.000000   0.000000  -0.000000  -0.000023
    13  H   -0.000000   0.000001   0.000000  -0.000000  -0.000000  -0.000033
    14  H    0.000000   0.000000  -0.000000  -0.000000  -0.000000  -0.000000
    15  H   -0.000000   0.000000   0.000000  -0.000000  -0.000000  -0.000001
    16  C    0.370910  -0.047645  -0.005279   0.004311  -0.000616  -0.041590
    17  H   -0.014665   0.004321  -0.000041  -0.000163  -0.000088  -0.001464
    18  H   -0.020252  -0.004979   0.007576  -0.000119  -0.000359  -0.006212
    19  H    0.604817  -0.000742  -0.000224  -0.000076   0.001123   0.003986
    20  C   -0.000742   4.664699   0.351782   0.368925   0.369318  -0.046918
    21  H   -0.000224   0.351782   0.655426  -0.019680  -0.019759  -0.005354
    22  H   -0.000076   0.368925  -0.019680   0.608381  -0.015489  -0.000708
    23  H    0.001123   0.369318  -0.019759  -0.015489   0.607911   0.004265
    24  C    0.003986  -0.046918  -0.005354  -0.000708   0.004265   4.628873
    25  H   -0.000150  -0.000829  -0.000218   0.001153  -0.000075   0.371083
    26  H   -0.000058  -0.005093   0.007590  -0.000361  -0.000111   0.353724
    27  H   -0.000064   0.004320  -0.000041  -0.000085  -0.000162   0.369985
    28  H   -0.000033  -0.003245   0.000150   0.001089   0.000816   0.000194
    29  H   -0.000017   0.000443  -0.000055  -0.000123  -0.000099   0.000061
              25         26         27         28         29
     1  Ni  -0.000703   0.003091  -0.000253   0.013147   0.013073
     2  P    0.000007   0.000022   0.000251  -0.020660   0.000502
     3  P   -0.009291  -0.023857  -0.007782   0.000507  -0.020655
     4  C   -0.000000  -0.000000  -0.000003   0.000062   0.000193
     5  H   -0.000000   0.000000  -0.000000  -0.000020  -0.000033
     6  H    0.000000   0.000000   0.000000  -0.000013  -0.000013
     7  H   -0.000000   0.000000   0.000002  -0.000009  -0.000020
     8  C    0.000000   0.000000   0.000001   0.000443  -0.003245
     9  H   -0.000000  -0.000000  -0.000000  -0.000099   0.000812
    10  H   -0.000000  -0.000000   0.000000  -0.000055   0.000150
    11  H   -0.000000  -0.000000  -0.000000  -0.000123   0.001092
    12  C   -0.000001  -0.000000  -0.000029   0.000050   0.000239
    13  H   -0.000003   0.000001   0.000113  -0.000008  -0.000018
    14  H    0.000000   0.000000   0.000001  -0.000011  -0.000014
    15  H    0.000002   0.000000  -0.000001  -0.000017  -0.000033
    16  C    0.004004  -0.006256  -0.001493   0.000239   0.000050
    17  H   -0.000065  -0.000037   0.001275  -0.000018  -0.000008
    18  H   -0.000062   0.008001  -0.000034  -0.000014  -0.000011
    19  H   -0.000150  -0.000058  -0.000064  -0.000033  -0.000017
    20  C   -0.000829  -0.005093   0.004320  -0.003245   0.000443
    21  H   -0.000218   0.007590  -0.000041   0.000150  -0.000055
    22  H    0.001153  -0.000361  -0.000085   0.001089  -0.000123
    23  H   -0.000075  -0.000111  -0.000162   0.000816  -0.000099
    24  C    0.371083   0.353724   0.369985   0.000194   0.000061
    25  H    0.604766  -0.020303  -0.014710  -0.000033  -0.000020
    26  H   -0.020303   0.660643  -0.019317  -0.000013  -0.000013
    27  H   -0.014710  -0.019317   0.601213  -0.000020  -0.000009
    28  H   -0.000033  -0.000013  -0.000020   0.635864   0.363211
    29  H   -0.000020  -0.000013  -0.000009   0.363211   0.635970
 Mulliken charges:
               1
     1  Ni  -0.249943
     2  P   -0.370593
     3  P   -0.370556
     4  C   -0.007948
     5  H    0.065446
     6  H    0.042353
     7  H    0.066854
     8  C   -0.018176
     9  H    0.064108
    10  H    0.044056
    11  H    0.063636
    12  C   -0.007036
    13  H    0.066361
    14  H    0.041899
    15  H    0.065400
    16  C   -0.007054
    17  H    0.066363
    18  H    0.041903
    19  H    0.065401
    20  C   -0.018185
    21  H    0.044055
    22  H    0.063640
    23  H    0.064099
    24  C   -0.007928
    25  H    0.065448
    26  H    0.042347
    27  H    0.066845
    28  H    0.008619
    29  H    0.008588
 Sum of Mulliken charges =  -0.00000
 Mulliken charges with hydrogens summed into heavy atoms:
               1
     1  Ni  -0.232736
     2  P   -0.370593
     3  P   -0.370556
     4  C    0.166705
     8  C    0.153625
    12  C    0.166623
    16  C    0.166612
    20  C    0.153609
    24  C    0.166712
 APT charges:
               1
     1  Ni  -0.332613
     2  P   -0.981417
     3  P   -0.981395
     4  C   -0.645094
     5  H    0.268205
     6  H    0.620104
     7  H    0.110960
     8  C   -0.717060
     9  H    0.260016
    10  H    0.608352
    11  H    0.269568
    12  C   -0.639761
    13  H    0.110632
    14  H    0.620503
    15  H    0.258387
    16  C   -0.639816
    17  H    0.110623
    18  H    0.620502
    19  H    0.258482
    20  C   -0.717066
    21  H    0.608353
    22  H    0.269493
    23  H    0.260090
    24  C   -0.645019
    25  H    0.268062
    26  H    0.620113
    27  H    0.110993
    28  H    0.022475
    29  H    0.023328
 Sum of APT charges =  -0.00000
 APT charges with hydrogens summed into heavy atoms:
               1
     1  Ni  -0.286810
     2  P   -0.981417
     3  P   -0.981395
     4  C    0.354175
     8  C    0.420877
    12  C    0.349760
    16  C    0.349790
[...]
 GePol: Average weight of points                     =       0.12
 GePol: Minimum weight of points                     =   0.55D-10
 GePol: Maximum weight of points                     =    0.21094
 GePol: Number of points with low weight             =     124
 GePol: Fraction of low-weight points (<1% of avg)   =       5.79%
 GePol: Cavity surface area                          =    253.013 Ang**2
 GePol: Cavity volume                                =    204.123 Ang**3
 ------------------------------------------------------------------------------
 Atomic radii for non-electrostatic terms: SMD-CDS.
 ------------------------------------------------------------------------------
 PCM non-electrostatic energy =         0.0000341118 Hartrees.
 Nuclear repulsion after PCM non-electrostatic terms =     1000.8030066512 Hartrees.
 Leave Link  301 at Fri Nov 22 01:14:34 2019, MaxMem=   280000000 cpu:               2.2 elap:               0.2
 (Enter /home/soft/g16/l302.exe)
 NPDir=0 NMtPBC=     1 NCelOv=     1 NCel=       1 NClECP=     1 NCelD=      1
         NCelK=      1 NCelE2=     1 NClLst=     1 CellRange=     0.0.
 One-electron integrals computed using PRISM.
 One-electron integral symmetry used in STVInt
 NBasis=   303 RedAO= T EigKep=  1.24D-03  NBF=   303
 NBsUse=   303 1.00D-06 EigRej= -1.00D+00 NBFU=   303
 Precomputing XC quadrature grid using
 IXCGrd= 4 IRadAn=           5 IRanWt=          -1 IRanGd=           0 AccXCQ= 0.00D+00.
 Generated NRdTot=       0 NPtTot=           0 NUsed=           0 NTot=          32
 NSgBfM=   325   325   325   325   325 MxSgAt=    29 MxSgA2=    29.
 Leave Link  302 at Fri Nov 22 01:14:35 2019, MaxMem=   280000000 cpu:               8.6 elap:               0.4
 (Enter /home/soft/g16/l303.exe)
 DipDrv:  MaxL=1.
 Leave Link  303 at Fri Nov 22 01:14:35 2019, MaxMem=   280000000 cpu:               0.8 elap:               0.1
 (Enter /home/soft/g16/l401.exe)
 Initial guess from the checkpoint file:  "Ni_tsb.chk"
 B after Tr=     0.000000   -0.000000   -0.000000
         Rot=    0.995082   -0.099021    0.002235    0.000779 Ang= -11.37 deg.
 Guess basis will be translated and rotated to current coordinates.
 JPrj=2 DoOrth=T DoCkMO=T.
 Generating alternative initial guess.
 ExpMin= 4.68D-02 ExpMax= 3.52D+05 ExpMxC= 3.39D+03 IAcc=2 IRadAn=         4 AccDes= 0.00D+00
 Harris functional with IExCor= 1009 and IRadAn=       4 diagonalized for initial guess.
 HarFok:  IExCor= 1009 AccDes= 0.00D+00 IRadAn=         4 IDoV= 1 UseB2=F ITyADJ=14
 ICtDFT=  3500011 ScaDFX=  1.000000  1.000000  1.000000  1.000000
 FoFCou: FMM=F IPFlag=           0 FMFlag=      100000 FMFlg1=           0
         NFxFlg=           0 DoJE=T BraDBF=F KetDBF=T FulRan=T
         wScrn=  0.000000 ICntrl=       500 IOpCl=  0 I1Cent=   200000004 NGrid=           0
         NMat0=    1 NMatS0=      1 NMatT0=    0 NMatD0=    1 NMtDS0=    0 NMtDT0=    0
 Petite list used in FoFCou.
 Harris En= -2430.95706557829    
 Leave Link  401 at Fri Nov 22 01:14:36 2019, MaxMem=   280000000 cpu:              15.5 elap:               0.7
 (Enter /home/soft/g16/l502.exe)
 Integral symmetry usage will be decided dynamically.
 Closed shell SCF:
 Using DIIS extrapolation, IDIIS=  1040.
 NGot=   280000000 LenX=   279776157 LenY=   279669440
 Requested convergence on RMS density matrix=1.00D-08 within 128 cycles.
 Requested convergence on MAX density matrix=1.00D-06.
 Requested convergence on             energy=1.00D-06.
 No special actions if energy rises.
 Fock matrices will be formed incrementally for  20 cycles.

 Cycle   1  Pass 1  IDiag  1:
 FoFJK:  IHMeth= 1 ICntrl=       0 DoSepK=F KAlg= 0 I1Cent=           0 FoldK=F
 IRaf= 900000000 NMat=       1 IRICut=       1 DoRegI=T DoRafI=F ISym2E= 0 IDoP0=0 IntGTp=1.
 FoFCou: FMM=F IPFlag=           0 FMFlag=      100000 FMFlg1=           0
         NFxFlg=           0 DoJE=F BraDBF=F KetDBF=F FulRan=T
         wScrn=  0.000000 ICntrl=         0 IOpCl=  0 I1Cent=           0 NGrid=           0
         NMat0=    1 NMatS0=      1 NMatT0=    0 NMatD0=    1 NMtDS0=    0 NMtDT0=    0
 Symmetry not used in FoFCou.
 Inv3:  Mode=1 IEnd=    13777347.
 Iteration    1 A*A^-1 deviation from unit magnitude is 9.33D-15 for    156.
 Iteration    1 A*A^-1 deviation from orthogonality  is 6.47D-15 for   1166    157.
 Iteration    1 A^-1*A deviation from unit magnitude is 7.55D-15 for    156.
 Iteration    1 A^-1*A deviation from orthogonality  is 1.58D-15 for   2103   1847.
 E= -2430.80512921644    
 DIIS: error= 5.11D-03 at cycle   1 NSaved=   1.
 NSaved= 1 IEnMin= 1 EnMin= -2430.80512921644     IErMin= 1 ErrMin= 5.11D-03
 ErrMax= 5.11D-03  0.00D+00 EMaxC= 1.00D-01 BMatC= 1.22D-02 BMatP= 1.22D-02
 IDIUse=3 WtCom= 9.49D-01 WtEn= 5.11D-02
 Coeff-Com:  0.100D+01
 Coeff-En:   0.100D+01
 Coeff:      0.100D+01
 Gap=     0.439 Goal=   None    Shift=    0.000
 GapD=    0.439 DampG=2.000 DampE=1.000 DampFc=2.0000 IDamp=-1.
 RMSDP=5.27D-04 MaxDP=1.72D-02              OVMax= 3.32D-02

 Cycle   2  Pass 1  IDiag  1:
 RMSU=  5.27D-04    CP:  9.99D-01
 E= -2430.82462699789     Delta-E=       -0.019497781454 Rises=F Damp=F
 DIIS: error= 1.29D-03 at cycle   2 NSaved=   2.
 NSaved= 2 IEnMin= 2 EnMin= -2430.82462699789     IErMin= 2 ErrMin= 1.29D-03
 ErrMax= 1.29D-03  0.00D+00 EMaxC= 1.00D-01 BMatC= 5.32D-04 BMatP= 1.22D-02
 IDIUse=3 WtCom= 9.87D-01 WtEn= 1.29D-02
 Coeff-Com: -0.244D-01 0.102D+01
 Coeff-En:   0.000D+00 0.100D+01
 Coeff:     -0.241D-01 0.102D+01
 Gap=     0.174 Goal=   None    Shift=    0.000
 RMSDP=2.06D-04 MaxDP=1.28D-02 DE=-1.95D-02 OVMax= 1.94D-02

 Cycle   3  Pass 1  IDiag  1:
 RMSU=  1.98D-04    CP:  9.99D-01  1.11D+00
 E= -2430.82033727912     Delta-E=        0.004289718775 Rises=F Damp=F
 DIIS: error= 7.07D-03 at cycle   3 NSaved=   3.
 NSaved= 3 IEnMin= 2 EnMin= -2430.82462699789     IErMin= 2 ErrMin= 1.29D-03
 ErrMax= 7.07D-03  0.00D+00 EMaxC= 1.00D-01 BMatC= 1.27D-02 BMatP= 5.32D-04
 IDIUse=3 WtCom= 1.06D-01 WtEn= 8.94D-01
 Coeff-Com: -0.622D-01 0.895D+00 0.168D+00
 Coeff-En:   0.000D+00 0.887D+00 0.113D+00
 Coeff:     -0.662D-02 0.888D+00 0.119D+00
 Gap=     0.168 Goal=   None    Shift=    0.000
 RMSDP=1.22D-04 MaxDP=8.04D-03 DE= 4.29D-03 OVMax= 1.21D-02

 Cycle   4  Pass 1  IDiag  1:
 RMSU=  3.80D-05    CP:  9.99D-01  1.13D+00  4.17D-01
 E= -2430.82481896804     Delta-E=       -0.004481688924 Rises=F Damp=F
 DIIS: error= 1.61D-03 at cycle   4 NSaved=   4.
 NSaved= 4 IEnMin= 4 EnMin= -2430.82481896804     IErMin= 2 ErrMin= 1.29D-03
 ErrMax= 1.61D-03  0.00D+00 EMaxC= 1.00D-01 BMatC= 6.64D-04 BMatP= 5.32D-04
 IDIUse=3 WtCom= 2.00D-01 WtEn= 8.00D-01
 Coeff-Com: -0.196D-01 0.194D+00-0.197D+00 0.102D+01
 Coeff-En:   0.000D+00 0.351D+00 0.000D+00 0.649D+00
 Coeff:     -0.392D-02 0.320D+00-0.393D-01 0.723D+00
 Gap=     0.164 Goal=   None    Shift=    0.000
 RMSDP=9.84D-05 MaxDP=6.73D-03 DE=-4.48D-03 OVMax= 9.35D-03

 Cycle   5  Pass 1  IDiag  1:
 RMSU=  1.17D-05    CP:  9.99D-01  1.16D+00 -4.21D-02  1.84D+00
 E= -2430.82440381075     Delta-E=        0.000415157294 Rises=F Damp=F
 DIIS: error= 2.68D-03 at cycle   5 NSaved=   5.
 NSaved= 5 IEnMin= 4 EnMin= -2430.82481896804     IErMin= 2 ErrMin= 1.29D-03
 ErrMax= 2.68D-03  0.00D+00 EMaxC= 1.00D-01 BMatC= 1.79D-03 BMatP= 5.32D-04
 IDIUse=3 WtCom= 1.62D-01 WtEn= 8.38D-01
 Coeff-Com: -0.464D-02 0.140D-01 0.292D+00-0.436D-01 0.742D+00
 Coeff-En:   0.000D+00 0.000D+00 0.000D+00 0.642D+00 0.358D+00
 Coeff:     -0.752D-03 0.227D-02 0.472D-01 0.531D+00 0.420D+00
 Gap=     0.166 Goal=   None    Shift=    0.000
 RMSDP=5.44D-05 MaxDP=3.88D-03 DE= 4.15D-04 OVMax= 5.26D-03

 Cycle   6  Pass 1  IDiag  1:
 RMSU=  4.63D-06    CP:  9.99D-01  1.16D+00  2.21D-01  1.47D+00  1.36D+00
 E= -2430.82506263304     Delta-E=       -0.000658822290 Rises=F Damp=F
 DIIS: error= 3.45D-04 at cycle   6 NSaved=   6.
 NSaved= 6 IEnMin= 6 EnMin= -2430.82506263304     IErMin= 6 ErrMin= 3.45D-04
 ErrMax= 3.45D-04  0.00D+00 EMaxC= 1.00D-01 BMatC= 3.23D-05 BMatP= 5.32D-04
 IDIUse=3 WtCom= 9.97D-01 WtEn= 3.45D-03
 Coeff-Com:  0.242D-03-0.369D-01-0.407D-01 0.336D+00 0.186D-01 0.723D+00
 Coeff-En:   0.000D+00 0.000D+00 0.000D+00 0.108D+00 0.000D+00 0.892D+00
 Coeff:      0.241D-03-0.368D-01-0.405D-01 0.335D+00 0.186D-01 0.723D+00
 Gap=     0.166 Goal=   None    Shift=    0.000
 RMSDP=9.18D-06 MaxDP=4.92D-04 DE=-6.59D-04 OVMax= 9.53D-04

 Cycle   7  Pass 1  IDiag  1:
 RMSU=  2.80D-06    CP:  9.99D-01  1.16D+00  2.61D-01  1.52D+00  1.10D+00
                    CP:  1.06D+00
 E= -2430.82507574681     Delta-E=       -0.000013113769 Rises=F Damp=F
 DIIS: error= 1.26D-05 at cycle   7 NSaved=   7.
 NSaved= 7 IEnMin= 7 EnMin= -2430.82507574681     IErMin= 7 ErrMin= 1.26D-05
 ErrMax= 1.26D-05  0.00D+00 EMaxC= 1.00D-01 BMatC= 9.86D-08 BMatP= 3.23D-05
 IDIUse=1 WtCom= 1.00D+00 WtEn= 0.00D+00
 Coeff-Com:  0.682D-03-0.178D-01-0.359D-02 0.693D-01 0.277D-02 0.273D+00
 Coeff-Com:  0.676D+00
 Coeff:      0.682D-03-0.178D-01-0.359D-02 0.693D-01 0.277D-02 0.273D+00
 Coeff:      0.676D+00
 Gap=     0.166 Goal=   None    Shift=    0.000
 RMSDP=1.46D-06 MaxDP=5.14D-05 DE=-1.31D-05 OVMax= 1.48D-04

 Cycle   8  Pass 1  IDiag  1:
 RMSU=  1.00D-06    CP:  9.99D-01  1.16D+00  2.64D-01  1.53D+00  1.15D+00
                    CP:  1.10D+00  1.07D+00
 E= -2430.82507586327     Delta-E=       -0.000000116467 Rises=F Damp=F
 DIIS: error= 4.64D-06 at cycle   8 NSaved=   8.
 NSaved= 8 IEnMin= 8 EnMin= -2430.82507586327     IErMin= 8 ErrMin= 4.64D-06
 ErrMax= 4.64D-06  0.00D+00 EMaxC= 1.00D-01 BMatC= 4.36D-09 BMatP= 9.86D-08
 IDIUse=1 WtCom= 1.00D+00 WtEn= 0.00D+00
 Coeff-Com:  0.810D-04 0.177D-02 0.189D-02-0.275D-01-0.937D-02-0.256D-01
 Coeff-Com:  0.137D+00 0.921D+00
 Coeff:      0.810D-04 0.177D-02 0.189D-02-0.275D-01-0.937D-02-0.256D-01
 Coeff:      0.137D+00 0.921D+00
 Gap=     0.166 Goal=   None    Shift=    0.000
 RMSDP=8.29D-07 MaxDP=3.34D-05 DE=-1.16D-07 OVMax= 9.95D-05

 Cycle   9  Pass 1  IDiag  1:
 RMSU=  2.47D-07    CP:  9.99D-01  1.16D+00  2.65D-01  1.54D+00  1.18D+00
                    CP:  1.16D+00  1.26D+00  1.19D+00
 E= -2430.82507587588     Delta-E=       -0.000000012611 Rises=F Damp=F
 DIIS: error= 1.09D-06 at cycle   9 NSaved=   9.
 NSaved= 9 IEnMin= 9 EnMin= -2430.82507587588     IErMin= 9 ErrMin= 1.09D-06
 ErrMax= 1.09D-06  0.00D+00 EMaxC= 1.00D-01 BMatC= 5.06D-10 BMatP= 4.36D-09
 IDIUse=1 WtCom= 1.00D+00 WtEn= 0.00D+00
 Coeff-Com: -0.494D-04 0.257D-02 0.114D-02-0.168D-01-0.345D-02-0.349D-01
 Coeff-Com: -0.247D-01 0.252D+00 0.824D+00
 Coeff:     -0.494D-04 0.257D-02 0.114D-02-0.168D-01-0.345D-02-0.349D-01
 Coeff:     -0.247D-01 0.252D+00 0.824D+00
 Gap=     0.166 Goal=   None    Shift=    0.000
 RMSDP=2.68D-07 MaxDP=1.14D-05 DE=-1.26D-08 OVMax= 3.25D-05

 Cycle  10  Pass 1  IDiag  1:
 RMSU=  8.61D-08    CP:  9.99D-01  1.16D+00  2.65D-01  1.54D+00  1.18D+00
                    CP:  1.18D+00  1.32D+00  1.33D+00  1.01D+00
 E= -2430.82507587712     Delta-E=       -0.000000001232 Rises=F Damp=F
 DIIS: error= 2.70D-07 at cycle  10 NSaved=  10.
 NSaved=10 IEnMin=10 EnMin= -2430.82507587712     IErMin=10 ErrMin= 2.70D-07
 ErrMax= 2.70D-07  0.00D+00 EMaxC= 1.00D-01 BMatC= 3.52D-11 BMatP= 5.06D-10
 IDIUse=1 WtCom= 1.00D+00 WtEn= 0.00D+00
 Coeff-Com: -0.185D-04 0.507D-03 0.234D-03-0.225D-02-0.140D-03-0.553D-02
 Coeff-Com: -0.132D-01-0.846D-02 0.211D+00 0.818D+00
 Coeff:     -0.185D-04 0.507D-03 0.234D-03-0.225D-02-0.140D-03-0.553D-02
 Coeff:     -0.132D-01-0.846D-02 0.211D+00 0.818D+00
 Gap=     0.166 Goal=   None    Shift=    0.000
 RMSDP=6.62D-08 MaxDP=2.19D-06 DE=-1.23D-09 OVMax= 7.80D-06

 Cycle  11  Pass 1  IDiag  1:
 RMSU=  3.09D-08    CP:  9.99D-01  1.16D+00  2.65D-01  1.54D+00  1.18D+00
                    CP:  1.18D+00  1.33D+00  1.35D+00  1.14D+00  1.08D+00
 E= -2430.82507587722     Delta-E=       -0.000000000103 Rises=F Damp=F
 DIIS: error= 1.19D-07 at cycle  11 NSaved=  11.
 NSaved=11 IEnMin=11 EnMin= -2430.82507587722     IErMin=11 ErrMin= 1.19D-07
 ErrMax= 1.19D-07  0.00D+00 EMaxC= 1.00D-01 BMatC= 7.37D-12 BMatP= 3.52D-11
 IDIUse=1 WtCom= 1.00D+00 WtEn= 0.00D+00
 Coeff-Com: -0.444D-06-0.164D-03-0.107D-03 0.155D-02 0.295D-03 0.315D-02
 Coeff-Com: -0.493D-03-0.394D-01-0.459D-01 0.311D+00 0.770D+00
 Coeff:     -0.444D-06-0.164D-03-0.107D-03 0.155D-02 0.295D-03 0.315D-02
 Coeff:     -0.493D-03-0.394D-01-0.459D-01 0.311D+00 0.770D+00
 Gap=     0.166 Goal=   None    Shift=    0.000
 RMSDP=2.59D-08 MaxDP=1.01D-06 DE=-1.03D-10 OVMax= 3.68D-06

 Cycle  12  Pass 1  IDiag  1:
 RMSU=  9.02D-09    CP:  9.99D-01  1.16D+00  2.65D-01  1.54D+00  1.18D+00
                    CP:  1.18D+00  1.34D+00  1.36D+00  1.18D+00  1.27D+00
                    CP:  9.76D-01
 E= -2430.82507587721     Delta-E=        0.000000000010 Rises=F Damp=F
 DIIS: error= 3.72D-08 at cycle  12 NSaved=  12.
 NSaved=12 IEnMin=11 EnMin= -2430.82507587722     IErMin=12 ErrMin= 3.72D-08
 ErrMax= 3.72D-08  0.00D+00 EMaxC= 1.00D-01 BMatC= 4.96D-13 BMatP= 7.37D-12
 IDIUse=1 WtCom= 1.00D+00 WtEn= 0.00D+00
 Coeff-Com:  0.139D-05-0.844D-04-0.464D-04 0.579D-03 0.813D-04 0.126D-02
 Coeff-Com:  0.112D-02-0.839D-02-0.307D-01-0.301D-02 0.198D+00 0.841D+00
 Coeff:      0.139D-05-0.844D-04-0.464D-04 0.579D-03 0.813D-04 0.126D-02
 Coeff:      0.112D-02-0.839D-02-0.307D-01-0.301D-02 0.198D+00 0.841D+00
 Gap=     0.166 Goal=   None    Shift=    0.000
 RMSDP=8.11D-09 MaxDP=3.14D-07 DE= 1.00D-11 OVMax= 1.33D-06

 Error on total polarization charges =  0.03822
 SCF Done:  E(RPBE1PBE) =  -2430.82507588     A.U. after   12 cycles
            NFock= 12  Conv=0.81D-08     -V/T= 2.0027
 KE= 2.424337834765D+03 PE=-7.785441931402D+03 EE= 1.929476014109D+03
 SMD-CDS (non-electrostatic) energy       (kcal/mol) =       0.02
 (included in total energy above)
 Leave Link  502 at Fri Nov 22 01:15:07 2019, MaxMem=   280000000 cpu:             716.7 elap:              31.1
 (Enter /home/soft/g16/l701.exe)
 ... and contract with generalized density number  0.
 Compute integral first derivatives.
 R6Disp: Adding Grimme-D3(BJ) dispersion energy 1st derivatives to the gradient.
 D1PCM: PCM CHGder 1st derivatives, ID1Alg=3 FixD1E=F DoIter=F DoCFld=F I1PDM=0.
 GePol: Maximum number of non-zero 1st derivatives   =     237
 Leave Link  701 at Fri Nov 22 01:15:08 2019, MaxMem=   280000000 cpu:              32.0 elap:               1.5
 (Enter /home/soft/g16/l702.exe)
 L702 exits ... SP integral derivatives will be done elsewhere.
 Leave Link  702 at Fri Nov 22 01:15:08 2019, MaxMem=   280000000 cpu:               0.5 elap:               0.0
 (Enter /home/soft/g16/l703.exe)
 Integral derivatives from FoFJK, PRISM(SPDF).
 Compute integral first derivatives, UseDBF=F ICtDFT=           0.
 Calling FoFJK, ICntrl=      2127 FMM=F ISym2X=0 I1Cent= 0 IOpClX= 0 NMat=1 NMatS=1 NMatT=0.
 FoFJK:  IHMeth= 1 ICntrl=    2127 DoSepK=F KAlg= 0 I1Cent=           0 FoldK=F
 IRaf=         0 NMat=       1 IRICut=       1 DoRegI=T DoRafI=F ISym2E= 0 IDoP0=0 IntGTp=1.
 FoFCou: FMM=F IPFlag=           0 FMFlag=      100000 FMFlg1=         800
         NFxFlg=           0 DoJE=F BraDBF=F KetDBF=F FulRan=T
         wScrn=  0.000000 ICntrl=      2127 IOpCl=  0 I1Cent=           0 NGrid=           0
         NMat0=    1 NMatS0=      1 NMatT0=    0 NMatD0=    1 NMtDS0=    0 NMtDT0=    0
 Symmetry not used in FoFCou.
 Leave Link  703 at Fri Nov 22 01:15:13 2019, MaxMem=   280000000 cpu:             121.4 elap:               5.1
 (Enter /home/soft/g16/l716.exe)
 Dipole        =-4.28697957D-02-3.17748820D-01-2.03435732D-02
 ***** Axes restored to original set *****
 -------------------------------------------------------------------
 Center     Atomic                   Forces (Hartrees/Bohr)
 Number     Number              X              Y              Z
 -------------------------------------------------------------------
      1       28          -0.000453745   -0.000493454    0.000096279
      2       15          -0.000000994    0.000378377   -0.000221860
      3       15           0.000226784    0.000229248   -0.000039783
      4        6          -0.000052837   -0.000081527    0.000120865
      5        1          -0.000002809    0.000026701    0.000012711
      6        1          -0.000001606   -0.000016478   -0.000004889
      7        1           0.000018444   -0.000012881   -0.000016091
      8        6           0.000070578    0.000006935    0.000076313
      9        1           0.000054226    0.000040242   -0.000034796
     10        1           0.000008643   -0.000011751    0.000067066
     11        1          -0.000003709   -0.000036823   -0.000055439
     12        6           0.000064693   -0.000134873   -0.000027845
     13        1          -0.000021186    0.000003427    0.000040595
     14        1           0.000007454   -0.000040705   -0.000051231
     15        1          -0.000014089    0.000021454   -0.000024882
     16        6           0.000030533    0.000072275    0.000012573
     17        1          -0.000003595   -0.000026273    0.000001274
     18        1          -0.000020200   -0.000000320   -0.000002592
     19        1          -0.000008157   -0.000017931    0.000002810
     20        6           0.000113444   -0.000013928   -0.000025591
     21        1          -0.000032442   -0.000059146   -0.000031319
     22        1           0.000080129   -0.000024031   -0.000036868
     23        1           0.000097145   -0.000008867    0.000049062
     24        6          -0.000010290    0.000046906   -0.000017732
     25        1           0.000021065    0.000002890    0.000009934
     26        1           0.000004736   -0.000015153    0.000018878
     27        1          -0.000003521    0.000021022    0.000009655
     28        1          -0.000316366    0.000057870    0.000071306
     29        1           0.000147671    0.000086796    0.000001596
 -------------------------------------------------------------------
 Cartesian Forces:  Max     0.000493454 RMS     0.000108744
 Leave Link  716 at Fri Nov 22 01:15:13 2019, MaxMem=   280000000 cpu:               0.7 elap:               0.0
 (Enter /home/soft/g16/l103.exe)

 GradGradGradGradGradGradGradGradGradGradGradGradGradGradGradGradGradGrad
 Berny optimization.
 FormGI is forming the generalized inverse of G from B-inverse, IUseBI=4.
 GSVD:  received Info=                   1 from GESDD.
 Internal  Forces:  Max     0.000449512 RMS     0.000095506
 Search for a saddle point.
 Step number  33 out of a maximum of  164
 All quantities printed in internal units (Hartrees-Bohrs-Radians)
 Swapping is turned off.
 Update second derivatives using D2CorX and points   25   26   29   32   33
 ITU=  0  0  0  0  0  0  0  0  0  0  0  0  0  0  0  0  0  0  0  0
 ITU=  0  0  0  0  0  0  0  0  0  0  0  0  0
     Eigenvalues ---   -0.01063  -0.00012   0.00019   0.00039   0.00173
     Eigenvalues ---    0.00189   0.00247   0.00252   0.00274   0.00342
     Eigenvalues ---    0.00981   0.01030   0.01265   0.01315   0.01351
     Eigenvalues ---    0.01620   0.01742   0.03178   0.03688   0.03689
     Eigenvalues ---    0.03760   0.03830   0.03854   0.03858   0.03869
     Eigenvalues ---    0.03896   0.03932   0.03944   0.03957   0.04007
     Eigenvalues ---    0.04733   0.05271   0.06619   0.06887   0.07027
     Eigenvalues ---    0.07076   0.08513   0.09899   0.10678   0.10685
     Eigenvalues ---    0.10737   0.10747   0.10861   0.10865   0.11018
     Eigenvalues ---    0.11027   0.11737   0.11784   0.11797   0.11838
     Eigenvalues ---    0.13403   0.13649   0.14068   0.14238   0.14277
     Eigenvalues ---    0.14317   0.21501   0.21559   0.22047   0.22102
     Eigenvalues ---    0.23177   0.23231   0.27360   0.35675   0.35680
     Eigenvalues ---    0.35690   0.35695   0.35739   0.35782   0.36462
     Eigenvalues ---    0.36462   0.36479   0.36479   0.36616   0.36618
     Eigenvalues ---    0.36634   0.36635   0.36733   0.36735   0.36771
     Eigenvalues ---    0.36773
 Eigenvectors required to have negative eigenvalues:
                          R4        A2        A1        A5        R2
   1                   