 Entering Gaussian System, Link 0=g16
 Input=Pd_tsb.gjf
 Output=Pd_tsb.log
 Initial command:
 /home/soft/g16/l1.exe "/tmp/gaussian/Gau-159980.inp" -scrdir="/tmp/gaussian/"
 Entering Link 1 = /home/soft/g16/l1.exe PID=    159981.
  
 Copyright (c) 1988,1990,1992,1993,1995,1998,2003,2009,2016,
            Gaussian, Inc.  All Rights Reserved.
  
 This is part of the Gaussian(R) 16 program.  It is based on
 the Gaussian(R) 09 system (copyright 2009, Gaussian, Inc.),
 the Gaussian(R) 03 system (copyright 2003, Gaussian, Inc.),
 the Gaussian(R) 98 system (copyright 1998, Gaussian, Inc.),
 the Gaussian(R) 94 system (copyright 1995, Gaussian, Inc.),
 the Gaussian 92(TM) system (copyright 1992, Gaussian, Inc.),
 the Gaussian 90(TM) system (copyright 1990, Gaussian, Inc.),
 the Gaussian 88(TM) system (copyright 1988, Gaussian, Inc.),
 the Gaussian 86(TM) system (copyright 1986, Carnegie Mellon
 University), and the Gaussian 82(TM) system (copyright 1983,
 Carnegie Mellon University). Gaussian is a federally registered
 trademark of Gaussian, Inc.
  
 This software contains proprietary and confidential information,
 including trade secrets, belonging to Gaussian, Inc.
  
 This software is provided under written license and may be
 used, copied, transmitted, or stored only in accord with that
 written license.
  
 The following legend is applicable only to US Government
 contracts under FAR:
  
                    RESTRICTED RIGHTS LEGEND
  
 Use, reproduction and disclosure by the US Government is
 subject to restrictions as set forth in subparagraphs (a)
 and (c) of the Commercial Computer Software - Restricted
 Rights clause in FAR 52.227-19.
  
 Gaussian, Inc.
 340 Quinnipiac St., Bldg. 40, Wallingford CT 06492
  
  
 ---------------------------------------------------------------
 Warning -- This program may not be used in any manner that
 competes with the business of Gaussian, Inc. or will provide
 assistance to any competitor of Gaussian, Inc.  The licensee
 of this program is prohibited from giving any competitor of
 Gaussian, Inc. access to this program.  By using this program,
 the user acknowledges that Gaussian, Inc. is engaged in the
 business of creating and licensing software in the field of
 computational chemistry and represents and warrants to the
 licensee that it is not a competitor of Gaussian, Inc. and that
 it will not use this program in any manner prohibited above.
 ---------------------------------------------------------------
  

 Cite this work as:
 Gaussian 16, Revision A.03,
 M. J. Frisch, G. W. Trucks, H. B. Schlegel, G. E. Scuseria, 
 M. A. Robb, J. R. Cheeseman, G. Scalmani, V. Barone, 
 G. A. Petersson, H. Nakatsuji, X. Li, M. Caricato, A. V. Marenich, 
 J. Bloino, B. G. Janesko, R. Gomperts, B. Mennucci, H. P. Hratchian, 
 J. V. Ortiz, A. F. Izmaylov, J. L. Sonnenberg, D. Williams-Young, 
 F. Ding, F. Lipparini, F. Egidi, J. Goings, B. Peng, A. Petrone, 
 T. Henderson, D. Ranasinghe, V. G. Zakrzewski, J. Gao, N. Rega, 
 G. Zheng, W. Liang, M. Hada, M. Ehara, K. Toyota, R. Fukuda, 
 J. Hasegawa, M. Ishida, T. Nakajima, Y. Honda, O. Kitao, H. Nakai, 
 T. Vreven, K. Throssell, J. A. Montgomery, Jr., J. E. Peralta, 
 F. Ogliaro, M. J. Bearpark, J. J. Heyd, E. N. Brothers, K. N. Kudin, 
 V. N. Staroverov, T. A. Keith, R. Kobayashi, J. Normand, 
 K. Raghavachari, A. P. Rendell, J. C. Burant, S. S. Iyengar, 
 J. Tomasi, M. Cossi, J. M. Millam, M. Klene, C. Adamo, R. Cammi, 
 J. W. Ochterski, R. L. Martin, K. Morokuma, O. Farkas, 
 J. B. Foresman, and D. J. Fox, Gaussian, Inc., Wallingford CT, 2016.
 
 ******************************************
 Gaussian 16:  ES64L-G16RevA.03 25-Dec-2016
                22-Nov-2019 
 ******************************************
 %chk=Pd_tsb.chk
 %nprocshared=24
 Will use up to   24 processors via shared memory.
 ----------------------------------------------------------------------
 #p opt=(calcfc,ts,noeigen) scrf=(smd,solvent=benzene) em=gd3bj pbe1pbe
 /gen
 ----------------------------------------------------------------------
 1/5=1,10=4,11=1,18=20,26=3,38=1/1,3;
 2/9=110,12=2,17=6,18=5,40=1/2;
 3/5=7,11=2,25=1,30=1,70=32201,71=2,72=12,74=-13,124=41,140=1/1,2,3;
 4//1;
 5/5=2,38=5,53=12/2;
 8/6=4,10=90,11=11/1;
 11/6=1,8=1,9=11,15=111,16=1/1,2,10;
 10/6=1,13=1/2;
 6/7=2,8=2,9=2,10=2,28=1/1;
 7/10=1,18=20,25=1/1,2,3,16;
 1/5=1,10=4,11=1,18=20,26=3/3(2);
 2/9=110/2;
 99//99;
 2/9=110/2;
 3/5=7,6=1,11=2,25=1,30=1,70=32205,71=1,72=12,74=-13,82=7,124=41/1,2,3;
 4/5=5,16=3,69=1/1;
 5/5=2,38=5,53=12/2;
 7//1,2,3,16;
 1/5=1,11=1,18=20,26=3/3(-5);
 2/9=110/2;
 6/7=2,8=2,9=2,10=2,19=2,28=1/1;
 99/9=1/99;
 Leave Link    1 at Fri Nov 22 00:50:42 2019, MaxMem=           0 cpu:               2.9 elap:               0.1
 (Enter /home/soft/g16/l101.exe)
 -------------------
 Title Card Required
 -------------------
 Symbolic Z-matrix:
 Charge =  0 Multiplicity = 1
 Pd                   -0.00001  -0.37852  -0.00003 
 P                     2.16047   0.2274   -0.00041 
 P                    -2.16045   0.2274    0.0004 
 C                     2.68165   1.17856   1.46494 
 H                     2.54678   0.56751   2.35966 
 H                     3.72938   1.48575   1.39304 
 H                     2.04864   2.06221   1.56191 
 C                     3.48713  -1.02814  -0.09498 
 H                     3.36372  -1.61158  -1.01027 
 H                     4.48497  -0.57911  -0.08852 
 H                     3.39635  -1.71031   0.75348 
 C                     2.63571   1.34043  -1.36396 
 H                     2.00244   2.22879  -1.33744 
 H                     3.6864    1.63777  -1.29337 
 H                     2.46824   0.83562  -2.31751 
 C                    -2.63614   1.33858   1.36529 
 H                    -2.00285   2.22697   1.34021 
 H                    -3.68681   1.63605   1.29474 
 H                    -2.46902   0.83248   2.31821 
 C                    -3.48716  -1.02826   0.09278 
 H                    -4.48499  -0.57922   0.08658 
 H                    -3.39608  -1.70929  -0.75656 
 H                    -3.36407  -1.61294   1.00733 
 C                    -2.68114   1.18057  -1.46382 
 H                    -2.54576   0.57085  -2.35937 
 H                    -3.72894   1.48748  -1.39194 
 H                    -2.04823   2.06447  -1.55923 
 H                    -0.38872  -2.51018   0.00417 
 H                     0.38856  -2.51081  -0.00426 
 
 Add virtual bond connecting atoms H28        and Pd1        Dist= 4.09D+00.
 Add virtual bond connecting atoms H29        and Pd1        Dist= 4.10D+00.
 ITRead=  0  0  0  0  0  0  0  0  0  0  0  0  0  0  0  0  0  0  0  0
 ITRead=  0  0  0  0  0  0  0  0  0
 MicOpt= -1 -1 -1 -1 -1 -1 -1 -1 -1 -1 -1 -1 -1 -1 -1 -1 -1 -1 -1 -1
 MicOpt= -1 -1 -1 -1 -1 -1 -1 -1 -1
 NAtoms=     29 NQM=       29 NQMF=       0 NMMI=      0 NMMIF=      0
                NMic=       0 NMicF=      0.
                    Isotopes and Nuclear Properties:
 (Nuclear quadrupole moments (NQMom) in fm**2, nuclear magnetic moments (NMagM)
  in nuclear magnetons)

  Atom         1           2           3           4           5           6           7           8           9          10
 IAtWgt=         106          31          31          12           1           1           1          12           1           1
 AtmWgt= 105.9032000  30.9737634  30.9737634  12.0000000   1.0078250   1.0078250   1.0078250  12.0000000   1.0078250   1.0078250
 NucSpn=           0           1           1           0           1           1           1           0           1           1
 AtZEff=  -0.0000000  -0.0000000  -0.0000000  -0.0000000  -0.0000000  -0.0000000  -0.0000000  -0.0000000  -0.0000000  -0.0000000
 NQMom=    0.0000000   0.0000000   0.0000000   0.0000000   0.0000000   0.0000000   0.0000000   0.0000000   0.0000000   0.0000000
 NMagM=    0.0000000   1.1316000   1.1316000   0.0000000   2.7928460   2.7928460   2.7928460   0.0000000   2.7928460   2.7928460
 AtZNuc=  46.0000000  15.0000000  15.0000000   6.0000000   1.0000000   1.0000000   1.0000000   6.0000000   1.0000000   1.0000000

  Atom        11          12          13          14          15          16          17          18          19          20
 IAtWgt=           1          12           1           1           1          12           1           1           1          12
 AtmWgt=   1.0078250  12.0000000   1.0078250   1.0078250   1.0078250  12.0000000   1.0078250   1.0078250   1.0078250  12.0000000
 NucSpn=           1           0           1           1           1           0           1           1           1           0
 AtZEff=  -0.0000000  -0.0000000  -0.0000000  -0.0000000  -0.0000000  -0.0000000  -0.0000000  -0.0000000  -0.0000000  -0.0000000
 NQMom=    0.0000000   0.0000000   0.0000000   0.0000000   0.0000000   0.0000000   0.0000000   0.0000000   0.0000000   0.0000000
 NMagM=    2.7928460   0.0000000   2.7928460   2.7928460   2.7928460   0.0000000   2.7928460   2.7928460   2.7928460   0.0000000
 AtZNuc=   1.0000000   6.0000000   1.0000000   1.0000000   1.0000000   6.0000000   1.0000000   1.0000000   1.0000000   6.0000000

  Atom        21          22          23          24          25          26          27          28          29
 IAtWgt=           1           1           1          12           1           1           1           1           1
 AtmWgt=   1.0078250   1.0078250   1.0078250  12.0000000   1.0078250   1.0078250   1.0078250   1.0078250   1.0078250
 NucSpn=           1           1           1           0           1           1           1           1           1
 AtZEff=  -0.0000000  -0.0000000  -0.0000000  -0.0000000  -0.0000000  -0.0000000  -0.0000000  -0.0000000  -0.0000000
 NQMom=    0.0000000   0.0000000   0.0000000   0.0000000   0.0000000   0.0000000   0.0000000   0.0000000   0.0000000
 NMagM=    2.7928460   2.7928460   2.7928460   0.0000000   2.7928460   2.7928460   2.7928460   2.7928460   2.7928460
 AtZNuc=   1.0000000   1.0000000   1.0000000   6.0000000   1.0000000   1.0000000   1.0000000   1.0000000   1.0000000
 Leave Link  101 at Fri Nov 22 00:50:43 2019, MaxMem=   280000000 cpu:               4.1 elap:               0.2
 (Enter /home/soft/g16/l103.exe)

 GradGradGradGradGradGradGradGradGradGradGradGradGradGradGradGradGradGrad
 Berny optimization.
 Initialization pass.
                           ----------------------------
                           !    Initial Parameters    !
                           ! (Angstroms and Degrees)  !
 --------------------------                            --------------------------
 ! Name  Definition              Value          Derivative Info.                !
 --------------------------------------------------------------------------------
 ! R1    R(1,2)                  2.2438         calculate D2E/DX2 analytically  !
 ! R2    R(1,3)                  2.2438         calculate D2E/DX2 analytically  !
 ! R3    R(1,28)                 2.1668         calculate D2E/DX2 analytically  !
 ! R4    R(1,29)                 2.1674         calculate D2E/DX2 analytically  !
 ! R5    R(2,4)                  1.8231         calculate D2E/DX2 analytically  !
 ! R6    R(2,8)                  1.829          calculate D2E/DX2 analytically  !
 ! R7    R(2,12)                 1.8232         calculate D2E/DX2 analytically  !
 ! R8    R(3,16)                 1.8232         calculate D2E/DX2 analytically  !
 ! R9    R(3,20)                 1.829          calculate D2E/DX2 analytically  !
 ! R10   R(3,24)                 1.8231         calculate D2E/DX2 analytically  !
 ! R11   R(4,5)                  1.0918         calculate D2E/DX2 analytically  !
 ! R12   R(4,6)                  1.0942         calculate D2E/DX2 analytically  !
 ! R13   R(4,7)                  1.0913         calculate D2E/DX2 analytically  !
 ! R14   R(8,9)                  1.0924         calculate D2E/DX2 analytically  !
 ! R15   R(8,10)                 1.0942         calculate D2E/DX2 analytically  !
 ! R16   R(8,11)                 1.0925         calculate D2E/DX2 analytically  !
 ! R17   R(12,13)                1.0913         calculate D2E/DX2 analytically  !
 ! R18   R(12,14)                1.0942         calculate D2E/DX2 analytically  !
 ! R19   R(12,15)                1.0918         calculate D2E/DX2 analytically  !
 ! R20   R(16,17)                1.0913         calculate D2E/DX2 analytically  !
 ! R21   R(16,18)                1.0942         calculate D2E/DX2 analytically  !
 ! R22   R(16,19)                1.0918         calculate D2E/DX2 analytically  !
 ! R23   R(20,21)                1.0942         calculate D2E/DX2 analytically  !
 ! R24   R(20,22)                1.0925         calculate D2E/DX2 analytically  !
 ! R25   R(20,23)                1.0924         calculate D2E/DX2 analytically  !
 ! R26   R(24,25)                1.0918         calculate D2E/DX2 analytically  !
 ! R27   R(24,26)                1.0942         calculate D2E/DX2 analytically  !
 ! R28   R(24,27)                1.0913         calculate D2E/DX2 analytically  !
 ! R29   R(28,29)                0.7773         calculate D2E/DX2 analytically  !
 ! A1    A(2,1,3)              148.6667         calculate D2E/DX2 analytically  !
 ! A2    A(2,1,28)             116.0008         calculate D2E/DX2 analytically  !
 ! A3    A(2,1,29)              95.3388         calculate D2E/DX2 analytically  !
 ! A4    A(3,1,28)              95.3324         calculate D2E/DX2 analytically  !
 ! A5    A(3,1,29)             115.9944         calculate D2E/DX2 analytically  !
 ! A6    A(1,2,4)              114.5829         calculate D2E/DX2 analytically  !
 ! A7    A(1,2,8)              120.866          calculate D2E/DX2 analytically  !
 ! A8    A(1,2,12)             114.5801         calculate D2E/DX2 analytically  !
 ! A9    A(4,2,8)              101.0895         calculate D2E/DX2 analytically  !
 ! A10   A(4,2,12)             102.0119         calculate D2E/DX2 analytically  !
 ! A11   A(8,2,12)             101.0307         calculate D2E/DX2 analytically  !
 ! A12   A(1,3,16)             114.5791         calculate D2E/DX2 analytically  !
 ! A13   A(1,3,20)             120.8663         calculate D2E/DX2 analytically  !
 ! A14   A(1,3,24)             114.5846         calculate D2E/DX2 analytically  !
 ! A15   A(16,3,20)            101.0312         calculate D2E/DX2 analytically  !
 ! A16   A(16,3,24)            102.0109         calculate D2E/DX2 analytically  !
 ! A17   A(20,3,24)            101.0888         calculate D2E/DX2 analytically  !
 ! A18   A(2,4,5)              109.3521         calculate D2E/DX2 analytically  !
 ! A19   A(2,4,6)              111.5552         calculate D2E/DX2 analytically  !
 ! A20   A(2,4,7)              109.1508         calculate D2E/DX2 analytically  !
 ! A21   A(5,4,6)              109.2234         calculate D2E/DX2 analytically  !
 ! A22   A(5,4,7)              107.9803         calculate D2E/DX2 analytically  !
 ! A23   A(6,4,7)              109.5073         calculate D2E/DX2 analytically  !
 ! A24   A(2,8,9)              109.147          calculate D2E/DX2 analytically  !
 ! A25   A(2,8,10)             112.2992         calculate D2E/DX2 analytically  !
 ! A26   A(2,8,11)             109.1604         calculate D2E/DX2 analytically  !
 ! A27   A(9,8,10)             109.0946         calculate D2E/DX2 analytically  !
 ! A28   A(9,8,11)             107.9282         calculate D2E/DX2 analytically  !
 ! A29   A(10,8,11)            109.1134         calculate D2E/DX2 analytically  !
 ! A30   A(2,12,13)            109.1196         calculate D2E/DX2 analytically  !
 ! A31   A(2,12,14)            111.5885         calculate D2E/DX2 analytically  !
 ! A32   A(2,12,15)            109.3254         calculate D2E/DX2 analytically  !
 ! A33   A(13,12,14)           109.5373         calculate D2E/DX2 analytically  !
 ! A34   A(13,12,15)           107.9739         calculate D2E/DX2 analytically  !
 ! A35   A(14,12,15)           109.2231         calculate D2E/DX2 analytically  !
 ! A36   A(3,16,17)            109.1195         calculate D2E/DX2 analytically  !
 ! A37   A(3,16,18)            111.5889         calculate D2E/DX2 analytically  !
 ! A38   A(3,16,19)            109.3256         calculate D2E/DX2 analytically  !
 ! A39   A(17,16,18)           109.537          calculate D2E/DX2 analytically  !
 ! A40   A(17,16,19)           107.9737         calculate D2E/DX2 analytically  !
 ! A41   A(18,16,19)           109.2231         calculate D2E/DX2 analytically  !
 ! A42   A(3,20,21)            112.2996         calculate D2E/DX2 analytically  !
 ! A43   A(3,20,22)            109.1607         calculate D2E/DX2 analytically  !
 ! A44   A(3,20,23)            109.1464         calculate D2E/DX2 analytically  !
 ! A45   A(21,20,22)           109.1134         calculate D2E/DX2 analytically  !
 ! A46   A(21,20,23)           109.0949         calculate D2E/DX2 analytically  !
 ! A47   A(22,20,23)           107.928          calculate D2E/DX2 analytically  !
 ! A48   A(3,24,25)            109.3532         calculate D2E/DX2 analytically  !
 ! A49   A(3,24,26)            111.5548         calculate D2E/DX2 analytically  !
 ! A50   A(3,24,27)            109.1501         calculate D2E/DX2 analytically  !
 ! A51   A(25,24,26)           109.2236         calculate D2E/DX2 analytically  !
 ! A52   A(25,24,27)           107.9801         calculate D2E/DX2 analytically  !
 ! A53   A(26,24,27)           109.5074         calculate D2E/DX2 analytically  !
 ! D1    D(3,1,2,4)             62.1212         calculate D2E/DX2 analytically  !
 ! D2    D(3,1,2,8)           -176.5574         calculate D2E/DX2 analytically  !
 ! D3    D(3,1,2,12)           -55.3253         calculate D2E/DX2 analytically  !
 ! D4    D(28,1,2,4)          -117.7552         calculate D2E/DX2 analytically  !
 ! D5    D(28,1,2,8)             3.5662         calculate D2E/DX2 analytically  !
 ! D6    D(28,1,2,12)          124.7983         calculate D2E/DX2 analytically  !
 ! D7    D(29,1,2,4)          -117.9873         calculate D2E/DX2 analytically  !
 ! D8    D(29,1,2,8)             3.3341         calculate D2E/DX2 analytically  !
 ! D9    D(29,1,2,12)          124.5662         calculate D2E/DX2 analytically  !
 ! D10   D(2,1,3,16)           -55.402          calculate D2E/DX2 analytically  !
 ! D11   D(2,1,3,20)          -176.6341         calculate D2E/DX2 analytically  !
 ! D12   D(2,1,3,24)            62.0437         calculate D2E/DX2 analytically  !
 ! D13   D(28,1,3,16)          124.4864         calculate D2E/DX2 analytically  !
 ! D14   D(28,1,3,20)            3.2543         calculate D2E/DX2 analytically  !
 ! D15   D(28,1,3,24)         -118.0679         calculate D2E/DX2 analytically  !
 ! D16   D(29,1,3,16)          124.7182         calculate D2E/DX2 analytically  !
 ! D17   D(29,1,3,20)            3.4861         calculate D2E/DX2 analytically  !
 ! D18   D(29,1,3,24)         -117.8362         calculate D2E/DX2 analytically  !
 ! D19   D(1,2,4,5)             61.6011         calculate D2E/DX2 analytically  !
 ! D20   D(1,2,4,6)           -177.4717         calculate D2E/DX2 analytically  !
 ! D21   D(1,2,4,7)            -56.3236         calculate D2E/DX2 analytically  !
 ! D22   D(8,2,4,5)            -70.0481         calculate D2E/DX2 analytically  !
 ! D23   D(8,2,4,6)             50.8791         calculate D2E/DX2 analytically  !
 ! D24   D(8,2,4,7)            172.0272         calculate D2E/DX2 analytically  !
 ! D25   D(12,2,4,5)          -173.9964         calculate D2E/DX2 analytically  !
 ! D26   D(12,2,4,6)           -53.0692         calculate D2E/DX2 analytically  !
 ! D27   D(12,2,4,7)            68.0789         calculate D2E/DX2 analytically  !
 ! D28   D(1,2,8,9)             58.7119         calculate D2E/DX2 analytically  !
 ! D29   D(1,2,8,10)           179.8208         calculate D2E/DX2 analytically  !
 ! D30   D(1,2,8,11)           -59.0372         calculate D2E/DX2 analytically  !
 ! D31   D(4,2,8,9)           -173.6249         calculate D2E/DX2 analytically  !
 ! D32   D(4,2,8,10)           -52.5159         calculate D2E/DX2 analytically  !
 ! D33   D(4,2,8,11)            68.6261         calculate D2E/DX2 analytically  !
 ! D34   D(12,2,8,9)           -68.8942         calculate D2E/DX2 analytically  !
 ! D35   D(12,2,8,10)           52.2147         calculate D2E/DX2 analytically  !
 ! D36   D(12,2,8,11)          173.3567         calculate D2E/DX2 analytically  !
 ! D37   D(1,2,12,13)           56.4263         calculate D2E/DX2 analytically  !
 ! D38   D(1,2,12,14)          177.6125         calculate D2E/DX2 analytically  !
 ! D39   D(1,2,12,15)          -61.457          calculate D2E/DX2 analytically  !
 ! D40   D(4,2,12,13)          -67.9781         calculate D2E/DX2 analytically  !
 ! D41   D(4,2,12,14)           53.208          calculate D2E/DX2 analytically  !
 ! D42   D(4,2,12,15)          174.1385         calculate D2E/DX2 analytically  !
 ! D43   D(8,2,12,13)         -171.9725         calculate D2E/DX2 analytically  !
 ! D44   D(8,2,12,14)          -50.7864         calculate D2E/DX2 analytically  !
 ! D45   D(8,2,12,15)           70.1441         calculate D2E/DX2 analytically  !
 ! D46   D(1,3,16,17)           56.426          calculate D2E/DX2 analytically  !
 ! D47   D(1,3,16,18)          177.612          calculate D2E/DX2 analytically  !
 ! D48   D(1,3,16,19)          -61.4572         calculate D2E/DX2 analytically  !
 ! D49   D(20,3,16,17)        -171.9728         calculate D2E/DX2 analytically  !
 ! D50   D(20,3,16,18)         -50.7868         calculate D2E/DX2 analytically  !
 ! D51   D(20,3,16,19)          70.144          calculate D2E/DX2 analytically  !
 ! D52   D(24,3,16,17)         -67.9792         calculate D2E/DX2 analytically  !
 ! D53   D(24,3,16,18)          53.2067         calculate D2E/DX2 analytically  !
 ! D54   D(24,3,16,19)         174.1375         calculate D2E/DX2 analytically  !
 ! D55   D(1,3,20,21)          179.8207         calculate D2E/DX2 analytically  !
 ! D56   D(1,3,20,22)          -59.0369         calculate D2E/DX2 analytically  !
 ! D57   D(1,3,20,23)           58.7116         calculate D2E/DX2 analytically  !
 ! D58   D(16,3,20,21)          52.2153         calculate D2E/DX2 analytically  !
 ! D59   D(16,3,20,22)         173.3576         calculate D2E/DX2 analytically  !
 ! D60   D(16,3,20,23)         -68.8938         calculate D2E/DX2 analytically  !
 ! D61   D(24,3,20,21)         -52.5142         calculate D2E/DX2 analytically  !
 ! D62   D(24,3,20,22)          68.6281         calculate D2E/DX2 analytically  !
 ! D63   D(24,3,20,23)        -173.6233         calculate D2E/DX2 analytically  !
 ! D64   D(1,3,24,25)           61.5891         calculate D2E/DX2 analytically  !
 ! D65   D(1,3,24,26)         -177.483          calculate D2E/DX2 analytically  !
 ! D66   D(1,3,24,27)          -56.3356         calculate D2E/DX2 analytically  !
 ! D67   D(16,3,24,25)        -174.0093         calculate D2E/DX2 analytically  !
 ! D68   D(16,3,24,26)         -53.0815         calculate D2E/DX2 analytically  !
 ! D69   D(16,3,24,27)          68.066          calculate D2E/DX2 analytically  !
 ! D70   D(20,3,24,25)         -70.0611         calculate D2E/DX2 analytically  !
 ! D71   D(20,3,24,26)          50.8668         calculate D2E/DX2 analytically  !
 ! D72   D(20,3,24,27)         172.0143         calculate D2E/DX2 analytically  !
 --------------------------------------------------------------------------------
 Trust Radius=3.00D-01 FncErr=1.00D-07 GrdErr=1.00D-06 EigMax=2.50D+02 EigMin=1.00D-04
 Number of steps in this run=    164 maximum allowed number of steps=    174.
 Search for a saddle point of order  1.
 GradGradGradGradGradGradGradGradGradGradGradGradGradGradGradGradGradGrad

 Leave Link  103 at Fri Nov 22 00:50:43 2019, MaxMem=   280000000 cpu:               0.3 elap:               0.0
 (Enter /home/soft/g16/l202.exe)
                          Input orientation:                          
 ---------------------------------------------------------------------
 Center     Atomic      Atomic             Coordinates (Angstroms)
 Number     Number       Type             X           Y           Z
 ---------------------------------------------------------------------
      1         46           0       -0.000009   -0.378523   -0.000028
      2         15           0        2.160472    0.227398   -0.000412
      3         15           0       -2.160448    0.227397    0.000397
      4          6           0        2.681652    1.178556    1.464941
      5          1           0        2.546778    0.567514    2.359662
      6          1           0        3.729375    1.485748    1.393041
      7          1           0        2.048638    2.062211    1.561912
      8          6           0        3.487132   -1.028139   -0.094977
      9          1           0        3.363715   -1.611583   -1.010271
     10          1           0        4.484968   -0.579114   -0.088521
     11          1           0        3.396347   -1.710312    0.753477
     12          6           0        2.635706    1.340427   -1.363956
     13          1           0        2.002444    2.228794   -1.337443
     14          1           0        3.686402    1.637772   -1.293366
     15          1           0        2.468242    0.835623   -2.317505
     16          6           0       -2.636142    1.338581    1.365292
     17          1           0       -2.002852    2.226972    1.340210
     18          1           0       -3.686805    1.636049    1.294742
     19          1           0       -2.469021    0.832479    2.318214
     20          6           0       -3.487161   -1.028259    0.092780
     21          1           0       -4.484993   -0.579221    0.086575
     22          1           0       -3.396078   -1.709288   -0.756562
     23          1           0       -3.364068   -1.612941    1.007327
     24          6           0       -2.681135    1.180565   -1.463819
     25          1           0       -2.545757    0.570849   -2.359366
     26          1           0       -3.728943    1.487476   -1.391938
     27          1           0       -2.048226    2.064466   -1.559225
     28          1           0       -0.388717   -2.510183    0.004174
     29          1           0        0.388556   -2.510807   -0.004259
 ---------------------------------------------------------------------
                    Distance matrix (angstroms):
                    1          2          3          4          5
     1  Pd   0.000000
     2  P    2.243840   0.000000
     3  P    2.243799   4.320920   0.000000
     4  C    3.429568   1.823071   5.147380   0.000000
     5  H    3.598506   2.415546   5.276342   1.091828   0.000000
     6  H    4.395959   2.446756   6.181660   1.094194   1.782146
     7  H    3.548774   2.412447   4.849874   1.091309   1.765975
     8  C    3.548404   1.829028   5.786245   2.819866   3.075000
     9  H    3.722320   2.418566   5.909287   3.791670   4.095400
    10  H    4.490333   2.462013   6.694768   2.958817   3.326400
    11  H    3.725140   2.418772   5.932943   3.059825   2.913776
    12  C    3.429589   1.823166   5.109147   2.833897   3.804029
    13  H    3.549169   2.412097   4.808854   3.068824   4.089589
    14  H    4.396339   2.447314   6.152124   2.971306   3.973513
    15  H    3.596820   2.415281   5.212234   3.803951   4.685503
    16  C    3.429540   5.109538   1.823171   5.321134   5.333477
    17  H    3.549116   4.809244   2.412102   4.802011   4.948961
    18  H    4.396293   6.152428   2.447324   6.387136   6.413531
    19  H    3.596775   5.212903   2.415288   5.232330   5.022964
    20  C    3.548380   5.786287   1.829036   6.693811   6.640306
    21  H    4.490307   6.694804   2.462025   7.506695   7.478484
    22  H    3.725126   5.932770   2.418784   7.086150   7.086058
    23  H    3.722290   5.909562   2.418564   6.674773   6.443702
    24  C    3.429559   5.146965   1.823067   6.110411   6.505837
    25  H    3.598419   5.275530   2.415555   6.505416   6.942849
    26  H    4.395943   6.181371   2.446747   7.025163   7.369227
    27  H    3.548871   4.849521   2.412434   5.683499   6.221945
    28  H    2.166815   3.740686   3.260888   5.016752   4.861859
    29  H    2.167403   3.261513   3.741016   4.585656   4.440958
                    6          7          8          9         10
     6  H    0.000000
     7  H    1.784854   0.000000
     8  C    2.931298   3.790094   0.000000
     9  H    3.937394   4.673576   1.092429   0.000000
    10  H    2.651340   3.954267   1.094231   1.781242   0.000000
    11  H    3.276393   4.086786   1.092463   1.766810   1.781478
    12  C    2.969556   3.070232   2.818748   3.060956   2.954851
    13  H    3.315109   2.904504   3.788883   4.087615   3.950580
    14  H    2.691048   3.318890   2.929663   3.277587   2.646496
    15  H    3.972565   4.090289   3.074309   2.915399   3.322203
    16  C    6.367278   4.744414   6.725194   7.095425   7.516737
    17  H    5.780193   4.060895   6.541822   7.004235   7.211602
    18  H    7.418354   5.757456   7.777827   8.097532   8.578942
    19  H    6.301017   4.742729   6.690377   7.146542   7.492859
    20  C    7.751729   6.508028   6.976820   6.963583   7.986829
    21  H    8.570110   7.200147   7.986818   7.991937   8.971670
    22  H    8.099452   7.017440   6.948398   6.765258   7.989647
    23  H    7.750328   6.565950   6.963908   7.023800   7.992312
    24  C    7.024915   5.683582   6.693252   6.673980   7.506061
    25  H    7.368506   6.221660   6.639275   6.442432   7.477315
    26  H    7.961320   6.514291   7.751269   7.749557   8.569599
    27  H    6.513944   5.150320   6.507566   6.565348   7.199591
    28  H    5.903821   5.410548   4.150722   3.989652   5.243131
    29  H    5.393141   5.110896   3.436234   3.266839   4.529805
                   11         12         13         14         15
    11  H    0.000000
    12  C    3.790660   0.000000
    13  H    4.672416   1.091293   0.000000
    14  H    3.934891   1.094239   1.785207   0.000000
    15  H    4.095619   1.091846   1.765903   1.782195   0.000000
    16  C    6.786825   5.936428   5.441850   6.865314   6.314325
    17  H    6.708041   5.441939   4.817907   6.296864   5.941836
    18  H    7.852525   6.865145   6.296610   7.814249   7.181477
    19  H    6.581545   6.314636   5.942013   7.182008   6.772479
    20  C    6.948698   6.724749   6.541383   7.777476   6.689571
    21  H    7.989972   7.516212   7.211076   8.578519   7.491920
    22  H    6.958251   6.786170   6.707455   7.851910   6.580529
    23  H    6.765880   7.095256   7.004022   8.097497   7.146035
    24  C    7.085856   5.320181   4.801111   6.386205   5.231047
    25  H    7.085343   5.332040   4.947650   6.412058   5.021160
    26  H    8.099285   6.366409   5.779387   7.417523   6.299737
    27  H    7.017187   4.743583   4.060064   5.756623   4.741680
    28  H    3.940553   5.083907   5.474988   5.957830   4.974618
    29  H    3.203399   4.661594   5.181296   5.454200   4.568894
                   16         17         18         19         20
    16  C    0.000000
    17  H    1.091295   0.000000
    18  H    1.094238   1.785204   0.000000
    19  H    1.091847   1.765904   1.782195   0.000000
    20  C    2.818768   3.788903   2.929694   3.074331   0.000000
    21  H    2.954883   3.950613   2.646544   3.322236   1.094231
    22  H    3.790682   4.672438   3.934927   4.095639   1.092464
    23  H    3.060963   4.087622   3.277606   2.915410   1.092429
    24  C    2.833878   3.068813   2.971279   3.803936   2.819855
    25  H    3.804032   4.089542   3.973556   4.685520   3.075127
    26  H    2.969630   3.315249   2.691115   3.972613   2.931172
    27  H    3.070074   2.904340   3.318676   4.090158   3.790066
    28  H    4.660101   5.179871   5.452907   4.566819   3.435739
    29  H    5.083528   5.474758   5.957549   4.973649   4.150729
                   21         22         23         24         25
    21  H    0.000000
    22  H    1.781479   0.000000
    23  H    1.781245   1.766808   0.000000
    24  C    2.958796   3.059838   3.791653   0.000000
    25  H    3.326548   2.913941   4.095509   1.091827   0.000000
    26  H    2.651198   3.276248   3.937282   1.094195   1.782148
    27  H    3.954184   4.086832   4.673537   1.091310   1.765971
    28  H    4.529336   3.203806   3.265589   4.586045   4.442060
    29  H    5.243163   3.941046   3.988942   5.017922   4.863468
                   26         27         28         29
    26  H    0.000000
    27  H    1.784856   0.000000
    28  H    5.393284   5.111321   0.000000
    29  H    5.904720   5.411927   0.777319   0.000000
 Stoichiometry    C6H20P2Pd
 Framework group  C1[X(C6H20P2Pd)]
 Deg. of freedom    81
 Full point group                 C1      NOp   1
 Largest Abelian subgroup         C1      NOp   1
 Largest concise Abelian subgroup C1      NOp   1
                         Standard orientation:                         
 ---------------------------------------------------------------------
 Center     Atomic      Atomic             Coordinates (Angstroms)
 Number     Number       Type             X           Y           Z
 ---------------------------------------------------------------------
      1         46           0        0.000011    0.470286   -0.000035
      2         15           0       -2.160470   -0.135635   -0.000419
      3         15           0        2.160450   -0.135633    0.000390
      4          6           0       -2.681650   -1.086793    1.464934
      5          1           0       -2.546776   -0.475751    2.359655
      6          1           0       -3.729373   -1.393986    1.393034
      7          1           0       -2.048636   -1.970448    1.561905
      8          6           0       -3.487130    1.119902   -0.094984
      9          1           0       -3.363713    1.703346   -1.010278
     10          1           0       -4.484966    0.670876   -0.088528
     11          1           0       -3.396345    1.802075    0.753470
     12          6           0       -2.635704   -1.248664   -1.363963
     13          1           0       -2.002442   -2.137031   -1.337450
     14          1           0       -3.686400   -1.546010   -1.293373
     15          1           0       -2.468240   -0.743860   -2.317512
     16          6           0        2.636144   -1.246817    1.365285
     17          1           0        2.002854   -2.135208    1.340203
     18          1           0        3.686807   -1.544285    1.294735
     19          1           0        2.469023   -0.740715    2.318207
     20          6           0        3.487163    1.120023    0.092773
     21          1           0        4.484995    0.670985    0.086568
     22          1           0        3.396080    1.801052   -0.756569
     23          1           0        3.364070    1.704705    1.007320
     24          6           0        2.681137   -1.088801   -1.463826
     25          1           0        2.545759   -0.479085   -2.359373
     26          1           0        3.728945   -1.395712   -1.391945
     27          1           0        2.048228   -1.972702   -1.559232
     28          1           0        0.388718    2.601946    0.004167
     29          1           0       -0.388555    2.602570   -0.004266
 ---------------------------------------------------------------------
 Rotational constants (GHZ):           1.6206740           0.4069172           0.3951614
 Leave Link  202 at Fri Nov 22 00:50:43 2019, MaxMem=   280000000 cpu:               0.6 elap:               0.0
 (Enter /home/soft/g16/l301.exe)
 General basis read from cards:  (5D, 7F)
 Centers:       1      2      3
 def2tzvp
 ****
 Centers:       4      8     12     16     20     24      5      6      7      9
 Centers:      10     11     13     14     15     17     18     19     21     22
 Centers:      23     25     26     27     28     29
 def2svp
 ****
 Ernie: Thresh=  0.10000D-02 Tol=  0.10000D-05 Strict=F.
 There are   320 symmetry adapted cartesian basis functions of A   symmetry.
 There are   298 symmetry adapted basis functions of A   symmetry.
   298 basis functions,   502 primitive gaussians,   320 cartesian basis functions
    66 alpha electrons       66 beta electrons
       nuclear repulsion energy      1261.0368327469 Hartrees.
 IExCor= 1009 DFT=T Ex+Corr=PBE1PBE ExCW=0 ScaHFX=  0.250000
 ScaDFX=  0.750000  0.750000  1.000000  1.000000 ScalE2=  1.000000  1.000000
 IRadAn=      5 IRanWt=     -1 IRanGd=            0 ICorTp=0 IEmpDi=141
 NAtoms=   29 NActive=   29 NUniq=   29 SFac= 1.00D+00 NAtFMM=   60 NAOKFM=F Big=F
 Integral buffers will be    131072 words long.
 Raffenetti 2 integral format.
 Two-electron integral symmetry is turned on.
 R6Disp:  Grimme-D3(BJ) Dispersion energy=       -0.0302694549 Hartrees.
 Nuclear repulsion after empirical dispersion term =     1261.0065632920 Hartrees.
 Force inversion solution in PCM.
 ------------------------------------------------------------------------------
 Polarizable Continuum Model (PCM)
 =================================
 Model                : PCM.
 Atomic radii         : SMD-Coulomb.
 Polarization charges : Total charges.
 Charge compensation  : None.
 Solution method      : Matrix inversion.
 Cavity type          : VdW (van der Waals Surface) (Alpha=1.000).
 Cavity algorithm     : GePol (No added spheres)
                        Default sphere list used, NSphG=   29.
                        Lebedev-Laikov grids with approx.  5.0 points / Ang**2.
                        Smoothing algorithm: York/Karplus (Gamma=1.0000).
                        Polarization charges: spherical gaussians, with
                                              point-specific exponents (IZeta= 3).
                        Self-potential: point-specific (ISelfS= 7).
                        Self-field    : sphere-specific E.n sum rule (ISelfD= 2).
 1st derivatives      : Analytical E(r).r(x)/FMM algorithm (CHGder, D1EAlg=3).
                        Cavity 1st derivative terms included.
 2nd derivatives      : Analytical E(r).r(xy)/FMM algorithm (CHGder, D2EAlg=3).
                        Cavity 2nd derivative terms included.
 Solvent              : Benzene, Eps=   2.270600 Eps(inf)=   2.253301
 ------------------------------------------------------------------------------
 GePol: Number of generator spheres                  =      29
 GePol: Total number of spheres                      =      29
 GePol: Number of exposed spheres                    =      29 (100.00%)
 GePol: Number of points                             =    2169
 GePol: Average weight of points                     =       0.12
 GePol: Minimum weight of points                     =   0.83D-09
 GePol: Maximum weight of points                     =    0.21094
 GePol: Number of points with low weight             =     140
 GePol: Fraction of low-weight points (<1% of avg)   =       6.45%
 GePol: Cavity surface area                          =    255.071 Ang**2
 GePol: Cavity volume                                =    207.007 Ang**3
 ------------------------------------------------------------------------------
 Atomic radii for non-electrostatic terms: SMD-CDS.
 ------------------------------------------------------------------------------
 PCM non-electrostatic energy =         0.0002278497 Hartrees.
 Nuclear repulsion after PCM non-electrostatic terms =     1261.0067911416 Hartrees.
 Leave Link  301 at Fri Nov 22 00:50:43 2019, MaxMem=   280000000 cpu:               3.0 elap:               0.2
 (Enter /home/soft/g16/l302.exe)
 NPDir=0 NMtPBC=     1 NCelOv=     1 NCel=       1 NClECP=     1 NCelD=      1
         NCelK=      1 NCelE2=     1 NClLst=     1 CellRange=     0.0.
 One-electron integrals computed using PRISM.
 One-electron integral symmetry used in STVInt
 NBasis=   298 RedAO= T EigKep=  1.53D-03  NBF=   298
 NBsUse=   298 1.00D-06 EigRej= -1.00D+00 NBFU=   298
 Precomputing XC quadrature grid using
 IXCGrd= 4 IRadAn=           5 IRanWt=          -1 IRanGd=           0 AccXCQ= 0.00D+00.
 Defaulting to unpruned grid for atomic number  46.
 Generated NRdTot=       0 NPtTot=           0 NUsed=           0 NTot=          32
 NSgBfM=   319   319   319   319   319 MxSgAt=    29 MxSgA2=    29.
 Leave Link  302 at Fri Nov 22 00:50:43 2019, MaxMem=   280000000 cpu:              10.5 elap:               0.5
 (Enter /home/soft/g16/l303.exe)
 DipDrv:  MaxL=1.
 Leave Link  303 at Fri Nov 22 00:50:44 2019, MaxMem=   280000000 cpu:               1.0 elap:               0.1
 (Enter /home/soft/g16/l401.exe)
 ExpMin= 3.70D-02 ExpMax= 5.24D+04 ExpMxC= 1.79D+03 IAcc=3 IRadAn=         5 AccDes= 0.00D+00
 Harris functional with IExCor= 1009 and IRadAn=       5 diagonalized for initial guess.
 HarFok:  IExCor= 1009 AccDes= 0.00D+00 IRadAn=         5 IDoV= 1 UseB2=F ITyADJ=14
 ICtDFT=  3500011 ScaDFX=  1.000000  1.000000  1.000000  1.000000
 Defaulting to unpruned grid for atomic number  46.
 FoFCou: FMM=F IPFlag=           0 FMFlag=      100000 FMFlg1=           0
         NFxFlg=           0 DoJE=T BraDBF=F KetDBF=T FulRan=T
         wScrn=  0.000000 ICntrl=       500 IOpCl=  0 I1Cent=   200000004 NGrid=           0
         NMat0=    1 NMatS0=      1 NMatT0=    0 NMatD0=    1 NMtDS0=    0 NMtDT0=    0
 Petite list used in FoFCou.
 Harris En= -3289.46114887940    
 JPrj=0 DoOrth=F DoCkMO=F.
 Leave Link  401 at Fri Nov 22 00:50:45 2019, MaxMem=   280000000 cpu:              22.3 elap:               1.0
 (Enter /home/soft/g16/l502.exe)
 Integral symmetry usage will be decided dynamically.
 Closed shell SCF:
 Using DIIS extrapolation, IDIIS=  1040.
 NGot=   280000000 LenX=   279784095 LenY=   279681254
 Requested convergence on RMS density matrix=1.00D-08 within 128 cycles.
 Requested convergence on MAX density matrix=1.00D-06.
 Requested convergence on             energy=1.00D-06.
 No special actions if energy rises.
 Fock matrices will be formed incrementally for  20 cycles.

 Cycle   1  Pass 1  IDiag  1:
 FoFJK:  IHMeth= 1 ICntrl=       0 DoSepK=F KAlg= 0 I1Cent=           0 FoldK=F
 IRaf= 890000000 NMat=       1 IRICut=       1 DoRegI=T DoRafI=F ISym2E= 0 IDoP0=0 IntGTp=1.
 FoFCou: FMM=F IPFlag=           0 FMFlag=      100000 FMFlg1=           0
         NFxFlg=           0 DoJE=F BraDBF=F KetDBF=F FulRan=T
         wScrn=  0.000000 ICntrl=         0 IOpCl=  0 I1Cent=           0 NGrid=           0
         NMat0=    1 NMatS0=      1 NMatT0=    0 NMatD0=    1 NMtDS0=    0 NMtDT0=    0
 Symmetry not used in FoFCou.
 Defaulting to unpruned grid for atomic number  46.
 Defaulting to unpruned grid for atomic number  46.
 Defaulting to unpruned grid for atomic number  46.
 Defaulting to unpruned grid for atomic number  46.
 Defaulting to unpruned grid for atomic number  46.
 Defaulting to unpruned grid for atomic number  46.
 Defaulting to unpruned grid for atomic number  46.
 Defaulting to unpruned grid for atomic number  46.
 Defaulting to unpruned grid for atomic number  46.
 Defaulting to unpruned grid for atomic number  46.
 Defaulting to unpruned grid for atomic number  46.
 Defaulting to unpruned grid for atomic number  46.
 Defaulting to unpruned grid for atomic number  46.
 Defaulting to unpruned grid for atomic number  46.
 Defaulting to unpruned grid for atomic number  46.
 Defaulting to unpruned grid for atomic number  46.
 Defaulting to unpruned grid for atomic number  46.
 Defaulting to unpruned grid for atomic number  46.
 Defaulting to unpruned grid for atomic number  46.
 Defaulting to unpruned grid for atomic number  46.
 Defaulting to unpruned grid for atomic number  46.
 Defaulting to unpruned grid for atomic number  46.
 Defaulting to unpruned grid for atomic number  46.
 Defaulting to unpruned grid for atomic number  46.
 Inv3:  Mode=1 IEnd=    14113683.
 Iteration    1 A*A^-1 deviation from unit magnitude is 7.11D-15 for   2153.
 Iteration    1 A*A^-1 deviation from orthogonality  is 2.87D-15 for   2158    525.
 Iteration    1 A^-1*A deviation from unit magnitude is 6.88D-15 for   2153.
 Iteration    1 A^-1*A deviation from orthogonality  is 2.06D-15 for   2158    525.
 E= -2294.03187108945    
 DIIS: error= 9.21D-01 at cycle   1 NSaved=   1.
 NSaved= 1 IEnMin= 1 EnMin= -2294.03187108945     IErMin= 1 ErrMin= 9.21D-01
 ErrMax= 9.21D-01  0.00D+00 EMaxC= 1.00D-01 BMatC= 1.94D+02 BMatP= 1.94D+02
 IDIUse=3 WtCom= 0.00D+00 WtEn= 1.00D+00
 Coeff-Com:  0.100D+01
 Coeff-En:   0.100D+01
 Coeff:      0.100D+01
 Gap=    -0.313 Goal=   None    Shift=    0.000
 GapD=   -0.313 DampG=0.250 DampE=0.125 DampFc=0.1250 IDamp=-1.
 Damping current iteration by 1.25D-01
 RMSDP=7.77D-01 MaxDP=8.55D+01              OVMax= 9.94D-01

 Cycle   2  Pass 1  IDiag  1:
 RMSU=  9.66D-02    CP:  1.13D+00
 E= -2327.31717776492     Delta-E=      -33.285306675465 Rises=F Damp=T
 DIIS: error= 7.91D-01 at cycle   2 NSaved=   2.
 NSaved= 2 IEnMin= 2 EnMin= -2327.31717776492     IErMin= 2 ErrMin= 7.91D-01
 ErrMax= 7.91D-01  0.00D+00 EMaxC= 1.00D-01 BMatC= 1.31D+02 BMatP= 1.94D+02
 IDIUse=3 WtCom= 0.00D+00 WtEn= 1.00D+00
 Coeff-Com: -0.379D+01 0.479D+01
 Coeff-En:   0.000D+00 0.100D+01
 Coeff:      0.000D+00 0.100D+01
 Gap=     0.051 Goal=   None    Shift=    0.000
 RMSDP=6.32D-01 MaxDP=6.61D+01 DE=-3.33D+01 OVMax= 9.25D-01

 Cycle   3  Pass 1  IDiag  1:
 RMSU=  4.38D-01    CP:  1.93D+00  3.00D+00
 E= -2320.70791651038     Delta-E=        6.609261254536 Rises=F Damp=F
 DIIS: error= 2.25D-01 at cycle   3 NSaved=   3.
 NSaved= 3 IEnMin= 2 EnMin= -2327.31717776492     IErMin= 3 ErrMin= 2.25D-01
 ErrMax= 2.25D-01  0.00D+00 EMaxC= 1.00D-01 BMatC= 2.63D+01 BMatP= 1.31D+02
 IDIUse=3 WtCom= 0.00D+00 WtEn= 1.00D+00
 EnCoef did    20 forward-backward iterations
 Coeff-Com: -0.152D+01 0.199D+01 0.529D+00
 Coeff-En:   0.451D+00 0.600D-03 0.548D+00
 Coeff:      0.451D+00 0.600D-03 0.548D+00
 Gap=     0.042 Goal=   None    Shift=    0.000
 RMSDP=6.70D-01 MaxDP=7.35D+01 DE= 6.61D+00 OVMax= 9.99D-01

 Cycle   4  Pass 1  IDiag  1:
 RMSU=  1.29D-01    CP:  1.23D+00  7.14D-01  7.49D-03
 E= -2406.96578131840     Delta-E=      -86.257864808025 Rises=F Damp=F
 DIIS: error= 1.63D-01 at cycle   4 NSaved=   4.
 NSaved= 4 IEnMin= 4 EnMin= -2406.96578131840     IErMin= 4 ErrMin= 1.63D-01
 ErrMax= 1.63D-01  0.00D+00 EMaxC= 1.00D-01 BMatC= 8.01D+00 BMatP= 2.63D+01
 IDIUse=3 WtCom= 0.00D+00 WtEn= 1.00D+00
 Coeff-Com: -0.880D+00 0.109D+01 0.137D+00 0.655D+00
 Coeff-En:   0.000D+00 0.000D+00 0.144D+00 0.856D+00
 Coeff:      0.000D+00 0.000D+00 0.144D+00 0.856D+00
 Gap=     0.006 Goal=   None    Shift=    0.000
 RMSDP=7.08D-02 MaxDP=5.39D+00 DE=-8.63D+01 OVMax= 9.38D-01

 Cycle   5  Pass 1  IDiag  1:
 RMSU=  5.45D-02    CP:  1.02D+00  4.57D-01  5.37D-03  7.39D-01
 E= -2406.21726429611     Delta-E=        0.748517022297 Rises=F Damp=F
 DIIS: error= 1.83D-01 at cycle   5 NSaved=   5.
 NSaved= 5 IEnMin= 4 EnMin= -2406.96578131840     IErMin= 4 ErrMin= 1.63D-01
 ErrMax= 1.83D-01  0.00D+00 EMaxC= 1.00D-01 BMatC= 9.75D+00 BMatP= 8.01D+00
 IDIUse=2 WtCom= 0.00D+00 WtEn= 1.00D+00
 Coeff-En:   0.000D+00 0.000D+00 0.000D+00 0.510D+00 0.490D+00
 Coeff:      0.000D+00 0.000D+00 0.000D+00 0.510D+00 0.490D+00
 Gap=    -0.004 Goal=   None    Shift=    0.000
 RMSDP=2.13D-02 MaxDP=1.59D+00 DE= 7.49D-01 OVMax= 8.48D-01

 Cycle   6  Pass 1  IDiag  1:
 RMSU=  2.01D-02    CP:  1.02D+00  4.47D-01  6.04D-03  7.29D-01  8.70D-01
 E= -2421.44541885615     Delta-E=      -15.228154560047 Rises=F Damp=F
 DIIS: error= 1.45D-02 at cycle   6 NSaved=   6.
 NSaved= 6 IEnMin= 6 EnMin= -2421.44541885615     IErMin= 6 ErrMin= 1.45D-02
 ErrMax= 1.45D-02  0.00D+00 EMaxC= 1.00D-01 BMatC= 1.09D-01 BMatP= 8.01D+00
 IDIUse=3 WtCom= 8.55D-01 WtEn= 1.45D-01
 Coeff-Com: -0.745D-01 0.901D-01-0.345D-02 0.610D-01 0.298D-01 0.897D+00
 Coeff-En:   0.000D+00 0.000D+00 0.000D+00 0.000D+00 0.000D+00 0.100D+01
 Coeff:     -0.637D-01 0.770D-01-0.294D-02 0.521D-01 0.255D-01 0.912D+00
 Gap=     0.137 Goal=   None    Shift=    0.000
 RMSDP=8.42D-03 MaxDP=4.06D-01 DE=-1.52D+01 OVMax= 3.15D-01

 Cycle   7  Pass 1  IDiag  1:
 RMSU=  6.79D-03    CP:  1.01D+00  4.57D-01  6.36D-03  7.56D-01  8.76D-01
                    CP:  8.33D-01
 E= -2421.42935744130     Delta-E=        0.016061414851 Rises=F Damp=F
 DIIS: error= 1.79D-02 at cycle   7 NSaved=   7.
 NSaved= 7 IEnMin= 6 EnMin= -2421.44541885615     IErMin= 6 ErrMin= 1.45D-02
 ErrMax= 1.79D-02  0.00D+00 EMaxC= 1.00D-01 BMatC= 1.30D-01 BMatP= 1.09D-01
 IDIUse=2 WtCom= 0.00D+00 WtEn= 1.00D+00
 Coeff-En:   0.000D+00 0.000D+00 0.000D+00 0.000D+00 0.000D+00 0.526D+00
 Coeff-En:   0.474D+00
 Coeff:      0.000D+00 0.000D+00 0.000D+00 0.000D+00 0.000D+00 0.526D+00
 Coeff:      0.474D+00
 Gap=     0.111 Goal=   None    Shift=    0.000
 RMSDP=3.95D-03 MaxDP=2.36D-01 DE= 1.61D-02 OVMax= 1.54D-01

 Cycle   8  Pass 1  IDiag  1:
 RMSU=  1.30D-03    CP:  1.02D+00  4.50D-01  6.19D-03  7.42D-01  8.71D-01
                    CP:  9.15D-01  6.03D-01
 E= -2421.58809519037     Delta-E=       -0.158737749067 Rises=F Damp=F
 DIIS: error= 4.35D-03 at cycle   8 NSaved=   8.
 NSaved= 8 IEnMin= 8 EnMin= -2421.58809519037     IErMin= 8 ErrMin= 4.35D-03
 ErrMax= 4.35D-03  0.00D+00 EMaxC= 1.00D-01 BMatC= 4.33D-03 BMatP= 1.09D-01
 IDIUse=3 WtCom= 9.57D-01 WtEn= 4.35D-02
 Coeff-Com: -0.268D-02 0.327D-02 0.118D-03-0.377D-02 0.909D-03 0.146D+00
 Coeff-Com:  0.164D+00 0.692D+00
 Coeff-En:   0.000D+00 0.000D+00 0.000D+00 0.000D+00 0.000D+00 0.000D+00
 Coeff-En:   0.000D+00 0.100D+01
 Coeff:     -0.256D-02 0.313D-02 0.113D-03-0.361D-02 0.870D-03 0.140D+00
 Coeff:      0.157D+00 0.705D+00
 Gap=     0.083 Goal=   None    Shift=    0.000
 RMSDP=4.46D-04 MaxDP=1.54D-02 DE=-1.59D-01 OVMax= 1.86D-02

 Cycle   9  Pass 1  IDiag  1:
 RMSU=  4.24D-04    CP:  1.02D+00  4.50D-01  6.18D-03  7.42D-01  8.72D-01
                    CP:  9.17D-01  5.99D-01  9.24D-01
 E= -2421.59215759680     Delta-E=       -0.004062406434 Rises=F Damp=F
 DIIS: error= 9.84D-04 at cycle   9 NSaved=   9.
 NSaved= 9 IEnMin= 9 EnMin= -2421.59215759680     IErMin= 9 ErrMin= 9.84D-04
 ErrMax= 9.84D-04  0.00D+00 EMaxC= 1.00D-01 BMatC= 4.05D-04 BMatP= 4.33D-03
 IDIUse=3 WtCom= 9.90D-01 WtEn= 9.84D-03
 Coeff-Com: -0.199D-02 0.243D-02 0.400D-04-0.169D-02 0.132D-02 0.240D-01
 Coeff-Com:  0.366D-01 0.302D+00 0.638D+00
 Coeff-En:   0.000D+00 0.000D+00 0.000D+00 0.000D+00 0.000D+00 0.000D+00
 Coeff-En:   0.000D+00 0.000D+00 0.100D+01
 Coeff:     -0.197D-02 0.240D-02 0.396D-04-0.167D-02 0.131D-02 0.238D-01
 Coeff:      0.362D-01 0.299D+00 0.641D+00
 Gap=     0.084 Goal=   None    Shift=    0.000
 RMSDP=3.02D-04 MaxDP=1.43D-02 DE=-4.06D-03 OVMax= 9.01D-03

 Cycle  10  Pass 1  IDiag  1:
 RMSU=  1.74D-04    CP:  1.02D+00  4.50D-01  6.19D-03  7.43D-01  8.72D-01
                    CP:  9.12D-01  6.16D-01  9.47D-01  5.89D-01
 E= -2421.59254907133     Delta-E=       -0.000391474523 Rises=F Damp=F
 DIIS: error= 4.28D-04 at cycle  10 NSaved=  10.
 NSaved=10 IEnMin=10 EnMin= -2421.59254907133     IErMin=10 ErrMin= 4.28D-04
 ErrMax= 4.28D-04  0.00D+00 EMaxC= 1.00D-01 BMatC= 8.58D-05 BMatP= 4.05D-04
 IDIUse=3 WtCom= 9.96D-01 WtEn= 4.28D-03
 Coeff-Com: -0.109D-02 0.132D-02-0.192D-05-0.740D-03 0.750D-03 0.163D-02
 Coeff-Com:  0.993D-02 0.881D-01 0.327D+00 0.573D+00
 Coeff-En:   0.000D+00 0.000D+00 0.000D+00 0.000D+00 0.000D+00 0.000D+00
 Coeff-En:   0.000D+00 0.000D+00 0.646D-01 0.935D+00
 Coeff:     -0.109D-02 0.132D-02-0.191D-05-0.736D-03 0.747D-03 0.162D-02
 Coeff:      0.988D-02 0.877D-01 0.326D+00 0.575D+00
 Gap=     0.084 Goal=   None    Shift=    0.000
 RMSDP=1.25D-04 MaxDP=5.59D-03 DE=-3.91D-04 OVMax= 6.40D-03

 Cycle  11  Pass 1  IDiag  1:
 RMSU=  1.02D-04    CP:  1.02D+00  4.50D-01  6.19D-03  7.43D-01  8.72D-01
                    CP:  9.11D-01  6.22D-01  9.50D-01  6.79D-01  8.09D-01
 E= -2421.59261951063     Delta-E=       -0.000070439305 Rises=F Damp=F
 DIIS: error= 2.96D-04 at cycle  11 NSaved=  11.
 NSaved=11 IEnMin=11 EnMin= -2421.59261951063     IErMin=11 ErrMin= 2.96D-04
 ErrMax= 2.96D-04  0.00D+00 EMaxC= 1.00D-01 BMatC= 3.61D-05 BMatP= 8.58D-05
 IDIUse=3 WtCom= 9.97D-01 WtEn= 2.96D-03
 Coeff-Com: -0.266D-03 0.314D-03-0.145D-04-0.214D-03 0.220D-03-0.490D-02
 Coeff-Com: -0.104D-02-0.260D-01 0.448D-01 0.434D+00 0.554D+00
 Coeff-En:   0.000D+00 0.000D+00 0.000D+00 0.000D+00 0.000D+00 0.000D+00
 Coeff-En:   0.000D+00 0.000D+00 0.000D+00 0.263D+00 0.737D+00
 Coeff:     -0.265D-03 0.313D-03-0.144D-04-0.214D-03 0.219D-03-0.489D-02
 Coeff:     -0.103D-02-0.259D-01 0.447D-01 0.433D+00 0.554D+00
 Gap=     0.084 Goal=   None    Shift=    0.000
 RMSDP=6.17D-05 MaxDP=2.01D-03 DE=-7.04D-05 OVMax= 3.25D-03

 Cycle  12  Pass 1  IDiag  1:
 RMSU=  3.08D-05    CP:  1.02D+00  4.50D-01  6.19D-03  7.43D-01  8.72D-01
                    CP:  9.11D-01  6.25D-01  9.59D-01  6.98D-01  9.98D-01
                    CP:  6.59D-01
 E= -2421.59266413124     Delta-E=       -0.000044620611 Rises=F Damp=F
 DIIS: error= 3.35D-05 at cycle  12 NSaved=  12.
 NSaved=12 IEnMin=12 EnMin= -2421.59266413124     IErMin=12 ErrMin= 3.35D-05
 ErrMax= 3.35D-05  0.00D+00 EMaxC= 1.00D-01 BMatC= 8.34D-07 BMatP= 3.61D-05
 IDIUse=1 WtCom= 1.00D+00 WtEn= 0.00D+00
 Coeff-Com:  0.243D-04-0.308D-04-0.311D-05-0.797D-04 0.589D-04-0.165D-02
 Coeff-Com: -0.639D-03-0.144D-01-0.128D-01 0.106D+00 0.204D+00 0.720D+00
 Coeff:      0.243D-04-0.308D-04-0.311D-05-0.797D-04 0.589D-04-0.165D-02
 Coeff:     -0.639D-03-0.144D-01-0.128D-01 0.106D+00 0.204D+00 0.720D+00
 Gap=     0.084 Goal=   None    Shift=    0.000
 RMSDP=1.68D-05 MaxDP=8.67D-04 DE=-4.46D-05 OVMax= 8.86D-04

 Cycle  13  Pass 1  IDiag  1:
 RMSU=  8.02D-06    CP:  1.02D+00  4.50D-01  6.19D-03  7.43D-01  8.72D-01
                    CP:  9.10D-01  6.26D-01  9.62D-01  7.09D-01  1.04D+00
                    CP:  7.41D-01  1.21D+00
 E= -2421.59266529462     Delta-E=       -0.000001163374 Rises=F Damp=F
 DIIS: error= 1.36D-05 at cycle  13 NSaved=  13.
 NSaved=13 IEnMin=13 EnMin= -2421.59266529462     IErMin=13 ErrMin= 1.36D-05
 ErrMax= 1.36D-05  0.00D+00 EMaxC= 1.00D-01 BMatC= 1.37D-07 BMatP= 8.34D-07
 IDIUse=1 WtCom= 1.00D+00 WtEn= 0.00D+00
 Coeff-Com:  0.438D-05-0.559D-05-0.115D-05-0.268D-05 0.140D-04-0.185D-03
 Coeff-Com: -0.239D-03-0.495D-02-0.150D-01 0.232D-02 0.385D-01 0.321D+00
 Coeff-Com:  0.658D+00
 Coeff:      0.438D-05-0.559D-05-0.115D-05-0.268D-05 0.140D-04-0.185D-03
 Coeff:     -0.239D-03-0.495D-02-0.150D-01 0.232D-02 0.385D-01 0.321D+00
 Coeff:      0.658D+00
 Gap=     0.084 Goal=   None    Shift=    0.000
 RMSDP=9.37D-06 MaxDP=4.56D-04 DE=-1.16D-06 OVMax= 4.24D-04

 Cycle  14  Pass 1  IDiag  1:
 RMSU=  3.02D-06    CP:  1.02D+00  4.50D-01  6.19D-03  7.43D-01  8.72D-01
                    CP:  9.10D-01  6.26D-01  9.62D-01  7.12D-01  1.06D+00
                    CP:  7.67D-01  1.33D+00  1.27D+00
 E= -2421.59266557334     Delta-E=       -0.000000278725 Rises=F Damp=F
 DIIS: error= 3.59D-06 at cycle  14 NSaved=  14.
 NSaved=14 IEnMin=14 EnMin= -2421.59266557334     IErMin=14 ErrMin= 3.59D-06
 ErrMax= 3.59D-06  0.00D+00 EMaxC= 1.00D-01 BMatC= 7.11D-09 BMatP= 1.37D-07
 IDIUse=1 WtCom= 1.00D+00 WtEn= 0.00D+00
 Coeff-Com:  0.524D-05-0.606D-05 0.347D-06 0.141D-05-0.526D-05 0.174D-03
 Coeff-Com:  0.181D-04 0.684D-03-0.173D-02-0.711D-02-0.106D-01-0.515D-01
 Coeff-Com:  0.724D-01 0.998D+00
 Coeff:      0.524D-05-0.606D-05 0.347D-06 0.141D-05-0.526D-05 0.174D-03
 Coeff:      0.181D-04 0.684D-03-0.173D-02-0.711D-02-0.106D-01-0.515D-01
 Coeff:      0.724D-01 0.998D+00
 Gap=     0.084 Goal=   None    Shift=    0.000
 RMSDP=6.10D-06 MaxDP=3.66D-04 DE=-2.79D-07 OVMax= 3.38D-04

 Cycle  15  Pass 1  IDiag  1:
 RMSU=  8.50D-07    CP:  1.02D+00  4.50D-01  6.19D-03  7.43D-01  8.72D-01
                    CP:  9.10D-01  6.26D-01  9.63D-01  7.16D-01  1.08D+00
                    CP:  7.84D-01  1.44D+00  1.62D+00  1.43D+00
 E= -2421.59266562135     Delta-E=       -0.000000048005 Rises=F Damp=F
 DIIS: error= 1.49D-06 at cycle  15 NSaved=  15.
 NSaved=15 IEnMin=15 EnMin= -2421.59266562135     IErMin=15 ErrMin= 1.49D-06
 ErrMax= 1.49D-06  0.00D+00 EMaxC= 1.00D-01 BMatC= 1.24D-09 BMatP= 7.11D-09
 IDIUse=1 WtCom= 1.00D+00 WtEn= 0.00D+00
 Coeff-Com:  0.157D-05-0.177D-05 0.223D-06 0.145D-05-0.238D-05 0.593D-04
 Coeff-Com:  0.332D-05 0.624D-03 0.945D-03-0.136D-02-0.555D-02-0.482D-01
 Coeff-Com: -0.582D-01 0.274D+00 0.838D+00
 Coeff:      0.157D-05-0.177D-05 0.223D-06 0.145D-05-0.238D-05 0.593D-04
 Coeff:      0.332D-05 0.624D-03 0.945D-03-0.136D-02-0.555D-02-0.482D-01
 Coeff:     -0.582D-01 0.274D+00 0.838D+00
 Gap=     0.084 Goal=   None    Shift=    0.000
 RMSDP=2.27D-06 MaxDP=1.44D-04 DE=-4.80D-08 OVMax= 1.27D-04

 Cycle  16  Pass 1  IDiag  1:
 RMSU=  3.07D-07    CP:  1.02D+00  4.50D-01  6.19D-03  7.43D-01  8.72D-01
                    CP:  9.10D-01  6.26D-01  9.63D-01  7.18D-01  1.08D+00
                    CP:  7.90D-01  1.48D+00  1.74D+00  1.65D+00  1.46D+00
 E= -2421.59266562745     Delta-E=       -0.000000006100 Rises=F Damp=F
 DIIS: error= 6.82D-07 at cycle  16 NSaved=  16.
 NSaved=16 IEnMin=16 EnMin= -2421.59266562745     IErMin=16 ErrMin= 6.82D-07
 ErrMax= 6.82D-07  0.00D+00 EMaxC= 1.00D-01 BMatC= 2.70D-10 BMatP= 1.24D-09
 IDIUse=1 WtCom= 1.00D+00 WtEn= 0.00D+00
 Coeff-Com: -0.144D-07 0.322D-07 0.151D-07 0.614D-06-0.164D-06-0.499D-05
 Coeff-Com: -0.962D-05 0.172D-03 0.749D-03 0.701D-03-0.699D-03-0.150D-01
 Coeff-Com: -0.426D-01-0.376D-01 0.383D+00 0.711D+00
 Coeff:     -0.144D-07 0.322D-07 0.151D-07 0.614D-06-0.164D-06-0.499D-05
 Coeff:     -0.962D-05 0.172D-03 0.749D-03 0.701D-03-0.699D-03-0.150D-01
 Coeff:     -0.426D-01-0.376D-01 0.383D+00 0.711D+00
 Gap=     0.084 Goal=   None    Shift=    0.000
 RMSDP=1.01D-06 MaxDP=6.69D-05 DE=-6.10D-09 OVMax= 5.88D-05

 Cycle  17  Pass 1  IDiag  1:
 RMSU=  1.41D-07    CP:  1.02D+00  4.50D-01  6.19D-03  7.43D-01  8.72D-01
                    CP:  9.10D-01  6.26D-01  9.63D-01  7.18D-01  1.09D+00
                    CP:  7.93D-01  1.49D+00  1.80D+00  1.75D+00  1.80D+00
                    CP:  1.32D+00
 E= -2421.59266562864     Delta-E=       -0.000000001194 Rises=F Damp=F
 DIIS: error= 2.70D-07 at cycle  17 NSaved=  17.
 NSaved=17 IEnMin=17 EnMin= -2421.59266562864     IErMin=17 ErrMin= 2.70D-07
 ErrMax= 2.70D-07  0.00D+00 EMaxC= 1.00D-01 BMatC= 1.70D-11 BMatP= 2.70D-10
 IDIUse=1 WtCom= 1.00D+00 WtEn= 0.00D+00
 Coeff-Com:  0.122D-06-0.156D-06-0.264D-07-0.193D-06 0.899D-07-0.784D-05
 Coeff-Com: -0.191D-05-0.359D-04 0.143D-04 0.154D-03 0.386D-03 0.343D-02
 Coeff-Com:  0.132D-02-0.360D-01-0.595D-01 0.130D+00 0.960D+00
 Coeff:      0.122D-06-0.156D-06-0.264D-07-0.193D-06 0.899D-07-0.784D-05
 Coeff:     -0.191D-05-0.359D-04 0.143D-04 0.154D-03 0.386D-03 0.343D-02
 Coeff:      0.132D-02-0.360D-01-0.595D-01 0.130D+00 0.960D+00
 Gap=     0.084 Goal=   None    Shift=    0.000
 RMSDP=4.22D-07 MaxDP=2.90D-05 DE=-1.19D-09 OVMax= 2.47D-05

 Cycle  18  Pass 1  IDiag  1:
 RMSU=  3.77D-08    CP:  1.02D+00  4.50D-01  6.19D-03  7.43D-01  8.72D-01
                    CP:  9.10D-01  6.26D-01  9.63D-01  7.18D-01  1.09D+00
                    CP:  7.94D-01  1.50D+00  1.82D+00  1.79D+00  1.99D+00
                    CP:  1.70D+00  1.54D+00
 E= -2421.59266562878     Delta-E=       -0.000000000143 Rises=F Damp=F
 DIIS: error= 1.11D-07 at cycle  18 NSaved=  18.
 NSaved=18 IEnMin=18 EnMin= -2421.59266562878     IErMin=18 ErrMin= 1.11D-07
 ErrMax= 1.11D-07  0.00D+00 EMaxC= 1.00D-01 BMatC= 3.17D-12 BMatP= 1.70D-11
 IDIUse=1 WtCom= 1.00D+00 WtEn= 0.00D+00
 Coeff-Com: -0.201D-06 0.236D-06-0.196D-08 0.534D-07 0.198D-07-0.978D-06
 Coeff-Com:  0.114D-05-0.277D-04-0.659D-04-0.963D-04 0.952D-04 0.282D-02
 Coeff-Com:  0.489D-02-0.547D-02-0.484D-01-0.294D-01 0.196D+00 0.880D+00
 Coeff:     -0.201D-06 0.236D-06-0.196D-08 0.534D-07 0.198D-07-0.978D-06
 Coeff:      0.114D-05-0.277D-04-0.659D-04-0.963D-04 0.952D-04 0.282D-02
 Coeff:      0.489D-02-0.547D-02-0.484D-01-0.294D-01 0.196D+00 0.880D+00
 Gap=     0.084 Goal=   None    Shift=    0.000
 RMSDP=1.21D-07 MaxDP=8.11D-06 DE=-1.43D-10 OVMax= 7.07D-06

 Cycle  19  Pass 1  IDiag  1:
 RMSU=  1.80D-08    CP:  1.02D+00  4.50D-01  6.19D-03  7.43D-01  8.72D-01
                    CP:  9.10D-01  6.26D-01  9.63D-01  7.18D-01  1.09D+00
                    CP:  7.94D-01  1.50D+00  1.82D+00  1.80D+00  2.07D+00
                    CP:  1.85D+00  1.78D+00  1.32D+00
 E= -2421.59266562871     Delta-E=        0.000000000073 Rises=F Damp=F
 DIIS: error= 4.21D-08 at cycle  19 NSaved=  19.
 NSaved=19 IEnMin=18 EnMin= -2421.59266562878     IErMin=19 ErrMin= 4.21D-08
 ErrMax= 4.21D-08  0.00D+00 EMaxC= 1.00D-01 BMatC= 6.10D-13 BMatP= 3.17D-12
 IDIUse=1 WtCom= 1.00D+00 WtEn= 0.00D+00
 Coeff-Com:  0.134D-07-0.165D-07 0.566D-08 0.647D-08-0.123D-07 0.112D-05
 Coeff-Com:  0.128D-05-0.768D-06-0.178D-04-0.752D-04-0.574D-04 0.493D-03
 Coeff-Com:  0.164D-02 0.471D-02-0.812D-02-0.419D-01-0.144D+00 0.329D+00
 Coeff-Com:  0.858D+00
 Coeff:      0.134D-07-0.165D-07 0.566D-08 0.647D-08-0.123D-07 0.112D-05
 Coeff:      0.128D-05-0.768D-06-0.178D-04-0.752D-04-0.574D-04 0.493D-03
 Coeff:      0.164D-02 0.471D-02-0.812D-02-0.419D-01-0.144D+00 0.329D+00
 Coeff:      0.858D+00
 Gap=     0.084 Goal=   None    Shift=    0.000
 RMSDP=7.12D-08 MaxDP=4.78D-06 DE= 7.32D-11 OVMax= 4.22D-06

 Cycle  20  Pass 1  IDiag  1:
 RMSU=  6.82D-09    CP:  1.02D+00  4.50D-01  6.19D-03  7.43D-01  8.72D-01
                    CP:  9.10D-01  6.26D-01  9.63D-01  7.19D-01  1.09D+00
                    CP:  7.94D-01  1.50D+00  1.83D+00  1.81D+00  2.11D+00
                    CP:  1.93D+00  1.93D+00  1.71D+00  1.17D+00
 E= -2421.59266562888     Delta-E=       -0.000000000168 Rises=F Damp=F
 DIIS: error= 1.31D-08 at cycle  20 NSaved=  20.
 NSaved=20 IEnMin=20 EnMin= -2421.59266562888     IErMin=20 ErrMin= 1.31D-08
 ErrMax= 1.31D-08  0.00D+00 EMaxC= 1.00D-01 BMatC= 3.81D-14 BMatP= 6.10D-13
 IDIUse=1 WtCom= 1.00D+00 WtEn= 0.00D+00
 Coeff-Com: -0.889D-08 0.108D-07-0.115D-08 0.126D-08 0.290D-08 0.261D-06
 Coeff-Com:  0.309D-07 0.152D-05 0.501D-06-0.717D-05-0.177D-04-0.116D-03
 Coeff-Com:  0.246D-04 0.135D-02 0.227D-02-0.588D-02-0.444D-01-0.115D-01
 Coeff-Com:  0.215D+00 0.844D+00
 Coeff:     -0.889D-08 0.108D-07-0.115D-08 0.126D-08 0.290D-08 0.261D-06
 Coeff:      0.309D-07 0.152D-05 0.501D-06-0.717D-05-0.177D-04-0.116D-03
 Coeff:      0.246D-04 0.135D-02 0.227D-02-0.588D-02-0.444D-01-0.115D-01
 Coeff:      0.215D+00 0.844D+00
 Gap=     0.084 Goal=   None    Shift=    0.000
 RMSDP=1.09D-08 MaxDP=6.11D-07 DE=-1.68D-10 OVMax= 7.37D-07

 Cycle  21  Pass 1  IDiag  1:
 Restarting incremental Fock formation.
 E= -2421.59266562874     Delta-E=        0.000000000141 Rises=F Damp=F
 DIIS: error= 3.69D-09 at cycle  21 NSaved=  20.
 NSaved=20 IEnMin=19 EnMin= -2421.59266562888     IErMin=20 ErrMin= 3.69D-09
 ErrMax= 3.69D-09  0.00D+00 EMaxC= 1.00D-01 BMatC= 4.23D-15 BMatP= 3.81D-14
 IDIUse=1 WtCom= 1.00D+00 WtEn= 0.00D+00
 Coeff-Com:  0.126D-09-0.605D-09-0.249D-08-0.578D-09-0.228D-07-0.932D-07
 Coeff-Com:  0.478D-06 0.185D-05 0.780D-05 0.336D-05-0.917D-04-0.148D-03
 Coeff-Com: -0.882D-04 0.163D-02 0.207D-02 0.129D-03-0.349D-01-0.296D-01
 Coeff-Com:  0.199D+00 0.862D+00
 Coeff:      0.126D-09-0.605D-09-0.249D-08-0.578D-09-0.228D-07-0.932D-07
 Coeff:      0.478D-06 0.185D-05 0.780D-05 0.336D-05-0.917D-04-0.148D-03
 Coeff:     -0.882D-04 0.163D-02 0.207D-02 0.129D-03-0.349D-01-0.296D-01
 Coeff:      0.199D+00 0.862D+00
 Gap=     0.084 Goal=   None    Shift=    0.000
 RMSDP=3.74D-09 MaxDP=1.68D-07 DE= 1.41D-10 OVMax= 2.86D-07

 Error on total polarization charges =  0.04359
 SCF Done:  E(RPBE1PBE) =  -2421.59266563     A.U. after   21 cycles
            NFock= 21  Conv=0.37D-08     -V/T= 2.9997
 KE= 1.210980414817D+03 PE=-7.223128754132D+03 EE= 2.329548882544D+03
 SMD-CDS (non-electrostatic) energy       (kcal/mol) =       0.14
 (included in total energy above)
 Leave Link  502 at Fri Nov 22 00:51:34 2019, MaxMem=   280000000 cpu:            1150.5 elap:              49.2
 (Enter /home/soft/g16/l801.exe)
 DoSCS=F DFT=T ScalE2(SS,OS)=  1.000000  1.000000
 Range of M.O.s used for correlation:     1   298
 NBasis=   298 NAE=    66 NBE=    66 NFC=     0 NFV=     0
 NROrb=    298 NOA=    66 NOB=    66 NVA=   232 NVB=   232

 **** Warning!!: The smallest alpha delta epsilon is  0.84433673D-01

 Leave Link  801 at Fri Nov 22 00:51:34 2019, MaxMem=   280000000 cpu:               0.7 elap:               0.1
 (Enter /home/soft/g16/l1101.exe)
 Using compressed storage, NAtomX=    29.
 Will process     30 centers per pass.
 R6Disp: Adding Grimme-D3(BJ) dispersion energy 1st derivatives to the gradient.
 Leave Link 1101 at Fri Nov 22 00:51:35 2019, MaxMem=   280000000 cpu:              10.6 elap:               0.5
 (Enter /home/soft/g16/l1102.exe)
 Symmetrizing basis deriv contribution to polar:
 IMax=3 JMax=2 DiffMx= 0.00D+00
 Leave Link 1102 at Fri Nov 22 00:51:36 2019, MaxMem=   280000000 cpu:               3.7 elap:               0.4
 (Enter /home/soft/g16/l1110.exe)
 Forming Gx(P) for the SCF density, NAtomX=    29.
 Integral derivatives from FoFJK, PRISM(SPDF).
 Do as many integral derivatives as possible in FoFJK.
 G2DrvN: MDV=     279997776.
 G2DrvN: will do    30 centers at a time, making    1 passes.
 Calling FoFCou, ICntrl=  3107 FMM=F I1Cent=   0 AccDes= 0.00D+00.
 FoFJK:  IHMeth= 1 ICntrl=    3107 DoSepK=F KAlg= 0 I1Cent=           0 FoldK=F
 IRaf=         0 NMat=       1 IRICut=       1 DoRegI=T DoRafI=F ISym2E= 0 IDoP0=0 IntGTp=1.
 FoFCou: FMM=F IPFlag=           0 FMFlag=      100000 FMFlg1=           0
         NFxFlg=           0 DoJE=F BraDBF=F KetDBF=F FulRan=T
         wScrn=  0.000000 ICntrl=      3107 IOpCl=  0 I1Cent=           0 NGrid=           0
         NMat0=    1 NMatS0=      1 NMatT0=    0 NMatD0=    1 NMtDS0=    0 NMtDT0=    0
 Symmetry not used in FoFCou.
 Defaulting to unpruned grid for atomic number  46.
 Defaulting to unpruned grid for atomic number  46.
 Defaulting to unpruned grid for atomic number  46.
 Defaulting to unpruned grid for atomic number  46.
 Defaulting to unpruned grid for atomic number  46.
 Defaulting to unpruned grid for atomic number  46.
 Defaulting to unpruned grid for atomic number  46.
 Defaulting to unpruned grid for atomic number  46.
 Defaulting to unpruned grid for atomic number  46.
 Defaulting to unpruned grid for atomic number  46.
 Defaulting to unpruned grid for atomic number  46.
 Defaulting to unpruned grid for atomic number  46.
 Defaulting to unpruned grid for atomic number  46.
 Defaulting to unpruned grid for atomic number  46.
 Defaulting to unpruned grid for atomic number  46.
 Defaulting to unpruned grid for atomic number  46.
 Defaulting to unpruned grid for atomic number  46.
 Defaulting to unpruned grid for atomic number  46.
 Defaulting to unpruned grid for atomic number  46.
 Defaulting to unpruned grid for atomic number  46.
 Defaulting to unpruned grid for atomic number  46.
 Defaulting to unpruned grid for atomic number  46.
 Defaulting to unpruned grid for atomic number  46.
 Defaulting to unpruned grid for atomic number  46.
 NEqPCM:  Using equilibrium solvation (IEInf=0, Eps=   2.2706, EpsInf=   2.2533)
 G2PCM: DoFxE=T DoFxN=T DoGrad=T DoDP/DQ/DG/TGxP=FFFF NFrqRd=   0 IEInf=0 SqF1=F DoCFld=F IF1Alg=4.
 GePol: Maximum number of non-zero 1st derivatives   =     242
 CoulSu:  requested number of processors reduced to:  14 ShMem   1 Linda.
 CoulSu:  requested number of processors reduced to:  16 ShMem   1 Linda.
 End of G2Drv F.D. properties file   721 does not exist.
 End of G2Drv F.D. properties file   722 does not exist.
 End of G2Drv F.D. properties file   788 does not exist.
 Leave Link 1110 at Fri Nov 22 00:52:34 2019, MaxMem=   280000000 cpu:            1381.9 elap:              58.2
 (Enter /home/soft/g16/l1002.exe)
 Minotr:  Closed shell wavefunction.
          IDoAtm=11111111111111111111111111111
 NEqPCM:  Using equilibrium solvation (IEInf=0, Eps=   2.2706, EpsInf=   2.2533)
          Direct CPHF calculation.
          Differentiating once with respect to nuclear coordinates.
          Requested convergence is 1.0D-08 RMS, and 1.0D-07 maximum.
          Secondary convergence is 1.0D-12 RMS, and 1.0D-12 maximum.
          NewPWx=T KeepS1=F KeepF1=F KeepIn=T MapXYZ=F SortEE=F KeepMc=T.
 Defaulting to unpruned grid for atomic number  46.
         8783 words used for storage of precomputed grid.
 Two-electron integrals replicated using symmetry.
          MDV=     280000000 using IRadAn=       1.
          Solving linear equations simultaneously, MaxMat=     384.
 FoF2E skips out because all densities are zero.
 CalDSu exits because no D1Ps are significant.
 FoFJK:  IHMeth= 1 ICntrl=       0 DoSepK=F KAlg= 0 I1Cent=           0 FoldK=F
 IRaf= 870000000 NMat=      24 IRICut=      60 DoRegI=T DoRafI=T ISym2E= 2 IDoP0=3 IntGTp=3.
 Defaulting to unpruned grid for atomic number  46.
 Defaulting to unpruned grid for atomic number  46.
 Defaulting to unpruned grid for atomic number  46.
 Defaulting to unpruned grid for atomic number  46.
 Defaulting to unpruned grid for atomic number  46.
 Defaulting to unpruned grid for atomic number  46.
 Defaulting to unpruned grid for atomic number  46.
 Defaulting to unpruned grid for atomic number  46.
 Defaulting to unpruned grid for atomic number  46.
 Defaulting to unpruned grid for atomic number  46.
 Defaulting to unpruned grid for atomic number  46.
 Defaulting to unpruned grid for atomic number  46.
 Defaulting to unpruned grid for atomic number  46.
 Defaulting to unpruned grid for atomic number  46.
 Defaulting to unpruned grid for atomic number  46.
 Defaulting to unpruned grid for atomic number  46.
 Defaulting to unpruned grid for atomic number  46.
 Defaulting to unpruned grid for atomic number  46.
 Defaulting to unpruned grid for atomic number  46.
 Defaulting to unpruned grid for atomic number  46.
 Defaulting to unpruned grid for atomic number  46.
 Defaulting to unpruned grid for atomic number  46.
 Defaulting to unpruned grid for atomic number  46.
 Defaulting to unpruned grid for atomic number  46.
          There are    90 degrees of freedom in the 1st order CPHF.  IDoFFX=6 NUNeed=     0.
     85 vectors produced by pass  0 Test12= 1.70D-14 1.11D-09 XBig12= 6.19D-01 6.11D-01.
 AX will form    24 AO Fock derivatives at one time.
     84 vectors produced by pass  1 Test12= 1.70D-14 1.11D-09 XBig12= 1.16D-01 1.17D-01.
     84 vectors produced by pass  2 Test12= 1.70D-14 1.11D-09 XBig12= 3.65D-03 9.81D-03.
     84 vectors produced by pass  3 Test12= 1.70D-14 1.11D-09 XBig12= 1.32D-05 9.94D-04.
     84 vectors produced by pass  4 Test12= 1.70D-14 1.11D-09 XBig12= 3.94D-08 3.32D-05.
     84 vectors produced by pass  5 Test12= 1.70D-14 1.11D-09 XBig12= 6.21D-11 1.39D-06.
     28 vectors produced by pass  6 Test12= 1.70D-14 1.11D-09 XBig12= 7.19D-14 3.72D-08.
      1 vectors produced by pass  7 Test12= 1.70D-14 1.11D-09 XBig12= 6.54D-17 1.21D-09.
 InvSVY:  IOpt=1 It=  1 EMax= 7.77D-16
 Solved reduced A of dimension   534 with    90 vectors.
 End of Minotr F.D. properties file   721 does not exist.
 End of Minotr F.D. properties file   722 does not exist.
 End of Minotr F.D. properties file   788 does not exist.
 Leave Link 1002 at Fri Nov 22 00:54:49 2019, MaxMem=   280000000 cpu:            3230.2 elap:             134.9
 (Enter /home/soft/g16/l601.exe)
 Copying SCF densities to generalized density rwf, IOpCl= 0 IROHF=0.

 **********************************************************************

            Population analysis using the SCF density.

 **********************************************************************

 Orbital symmetries:
       Occupied  (A) (A) (A) (A) (A) (A) (A) (A) (A) (A) (A) (A)
                 (A) (A) (A) (A) (A) (A) (A) (A) (A) (A) (A) (A)
                 (A) (A) (A) (A) (A) (A) (A) (A) (A) (A) (A) (A)
                 (A) (A) (A) (A) (A) (A) (A) (A) (A) (A) (A) (A)
                 (A) (A) (A) (A) (A) (A) (A) (A) (A) (A) (A) (A)
                 (A) (A) (A) (A) (A) (A)
       Virtual   (A) (A) (A) (A) (A) (A) (A) (A) (A) (A) (A) (A)
                 (A) (A) (A) (A) (A) (A) (A) (A) (A) (A) (A) (A)
                 (A) (A) (A) (A) (A) (A) (A) (A) (A) (A) (A) (A)
                 (A) (A) (A) (A) (A) (A) (A) (A) (A) (A) (A) (A)
                 (A) (A) (A) (A) (A) (A) (A) (A) (A) (A) (A) (A)
                 (A) (A) (A) (A) (A) (A) (A) (A) (A) (A) (A) (A)
                 (A) (A) (A) (A) (A) (A) (A) (A) (A) (A) (A) (A)
                 (A) (A) (A) (A) (A) (A) (A) (A) (A) (A) (A) (A)
                 (A) (A) (A) (A) (A) (A) (A) (A) (A) (A) (A) (A)
                 (A) (A) (A) (A) (A) (A) (A) (A) (A) (A) (A) (A)
                 (A) (A) (A) (A) (A) (A) (A) (A) (A) (A) (A) (A)
                 (A) (A) (A) (A) (A) (A) (A) (A) (A) (A) (A) (A)
                 (A) (A) (A) (A) (A) (A) (A) (A) (A) (A) (A) (A)
                 (A) (A) (A) (A) (A) (A) (A) (A) (A) (A) (A) (A)
                 (A) (A) (A) (A) (A) (A) (A) (A) (A) (A) (A) (A)
                 (A) (A) (A) (A) (A) (A) (A) (A) (A) (A) (A) (A)
                 (A) (A) (A) (A) (A) (A) (A) (A) (A) (A) (A) (A)
                 (A) (A) (A) (A) (A) (A) (A) (A) (A) (A) (A) (A)
                 (A) (A) (A) (A) (A) (A) (A) (A) (A) (A) (A) (A)
                 (A) (A) (A) (A)
 The electronic state is 1-A.
 Alpha  occ. eigenvalues -- -213.02917 -77.20143 -77.20143 -48.29987 -13.25149
 Alpha  occ. eigenvalues --  -13.13884 -13.10637 -11.21261 -10.22589 -10.22588
 Alpha  occ. eigenvalues --  -10.20881 -10.20881 -10.20847 -10.20846  -9.84288
 Alpha  occ. eigenvalues --   -9.74159  -9.67926  -9.61257  -9.58339  -6.59248
 Alpha  occ. eigenvalues --   -6.59247  -4.72865  -4.72864  -4.72733  -4.72732
 Alpha  occ. eigenvalues --   -4.72646  -4.72646  -1.19164  -1.06922  -1.06429
 Alpha  occ. eigenvalues --   -1.05758  -1.05652  -1.05527  -1.05334  -1.05290
 Alpha  occ. eigenvalues --   -0.79216  -0.77150  -0.70249  -0.69828  -0.69515
 Alpha  occ. eigenvalues --   -0.69239  -0.69146  -0.64380  -0.60077  -0.52778
 Alpha  occ. eigenvalues --   -0.50384  -0.44187  -0.43283  -0.43232  -0.43054
 Alpha  occ. eigenvalues --   -0.42880  -0.42852  -0.40504  -0.40378  -0.40056
 Alpha  occ. eigenvalues --   -0.39867  -0.38804  -0.38667  -0.38643  -0.33543
 Alpha  occ. eigenvalues --   -0.33237  -0.33117  -0.32789  -0.23871  -0.12784
 Alpha  occ. eigenvalues --   -0.07984
 Alpha virt. eigenvalues --    0.00459   0.01890   0.02797   0.04601   0.05839
 Alpha virt. eigenvalues --    0.06310   0.09018   0.09760   0.10732   0.10831
 Alpha virt. eigenvalues --    0.10955   0.12141   0.12985   0.13050   0.13443
 Alpha virt. eigenvalues --    0.14111   0.14122   0.15376   0.15947   0.17227
 Alpha virt. eigenvalues --    0.17364   0.17556   0.17652   0.18359   0.18619
 Alpha virt. eigenvalues --    0.18919   0.19387   0.19913   0.20622   0.23617
 Alpha virt. eigenvalues --    0.23883   0.24250   0.30217   0.31172   0.32436
 Alpha virt. eigenvalues --    0.32767   0.33191   0.34135   0.34884   0.35414
 Alpha virt. eigenvalues --    0.37880   0.39950   0.40204   0.42931   0.45128
 Alpha virt. eigenvalues --    0.46428   0.46712   0.46959   0.47817   0.48489
 Alpha virt. eigenvalues --    0.49246   0.49717   0.51171   0.52243   0.53907
 Alpha virt. eigenvalues --    0.54876   0.55958   0.57093   0.57233   0.61191
 Alpha virt. eigenvalues --    0.61530   0.61672   0.62701   0.63404   0.64058
 Alpha virt. eigenvalues --    0.64245   0.64554   0.66497   0.67596   0.68338
 Alpha virt. eigenvalues --    0.69065   0.69309   0.69675   0.70617   0.71002
 Alpha virt. eigenvalues --    0.71321   0.71350   0.71896   0.72337   0.73863
 Alpha virt. eigenvalues --    0.73874   0.74603   0.74661   0.76801   0.77161
 Alpha virt. eigenvalues --    0.77366   0.78184   0.79015   0.79340   0.80676
 Alpha virt. eigenvalues --    0.82491   0.83175   0.83735   0.86540   0.86957
 Alpha virt. eigenvalues --    0.88387   0.92751   0.92874   0.96232   1.00416
 Alpha virt. eigenvalues --    1.04000   1.04017   1.04648   1.06005   1.06052
 Alpha virt. eigenvalues --    1.10137   1.14901   1.17423   1.17578   1.18357
 Alpha virt. eigenvalues --    1.26990   1.29839   1.30556   1.30617   1.31452
 Alpha virt. eigenvalues --    1.32657   1.36639   1.38355   1.39369   1.40555
 Alpha virt. eigenvalues --    1.41059   1.42273   1.43397   1.50188   1.54413
 Alpha virt. eigenvalues --    1.54582   1.54922   1.54950   1.55209   1.55220
 Alpha virt. eigenvalues --    1.55993   1.58769   1.59122   1.59189   1.62696
 Alpha virt. eigenvalues --    1.63447   1.63538   1.64031   1.64063   1.65968
 Alpha virt. eigenvalues --    1.69241   1.69821   1.70043   1.70877   1.74718
 Alpha virt. eigenvalues --    1.76697   1.78663   1.78791   1.78953   1.79064
 Alpha virt. eigenvalues --    1.80158   1.81114   1.82742   1.83682   1.86476
 Alpha virt. eigenvalues --    1.87571   1.88268   1.88358   1.89410   1.91546
 Alpha virt. eigenvalues --    1.91616   1.95611   1.96646   1.96912   1.97342
 Alpha virt. eigenvalues --    1.98193   2.00185   2.00300   2.10283   2.10779
 Alpha virt. eigenvalues --    2.10992   2.11169   2.12193   2.12605   2.14257
 Alpha virt. eigenvalues --    2.14522   2.14789   2.14915   2.15167   2.15739
 Alpha virt. eigenvalues --    2.16190   2.18025   2.18102   2.18339   2.18665
 Alpha virt. eigenvalues --    2.24653   2.29925   2.40980   2.41432   2.41444
 Alpha virt. eigenvalues --    2.41705   2.43737   2.44890   2.50180   2.50558
 Alpha virt. eigenvalues --    2.50821   2.51013   2.56023   2.56431   2.56671
 Alpha virt. eigenvalues --    2.56749   2.58745   2.58828   2.59421   2.59710
 Alpha virt. eigenvalues --    2.76833   2.77600   2.80476   2.80560   2.80813
 Alpha virt. eigenvalues --    2.80915   2.96120   2.96329   2.96973   2.97399
 Alpha virt. eigenvalues --    2.97898   2.97961   3.04000   3.04152   3.05699
 Alpha virt. eigenvalues --    3.05741   3.05930   3.07199   3.32681   7.52816
 Alpha virt. eigenvalues --    7.53374   7.53522   7.53534   7.65880   7.70579
 Alpha virt. eigenvalues --   13.77316  13.90166
          Condensed to atoms (all electrons):
               1          2          3          4          5          6
     1  Pd  48.841533  -1.980216  -1.980869   0.067889   0.005683  -0.019132
     2  P   -1.980216  19.137871   0.119628  -0.419556  -0.065438   0.060479
     3  P   -1.980869   0.119628  19.138579   0.008203  -0.000178  -0.000263
     4  C    0.067889  -0.419556   0.008203   5.543097   0.398960   0.243949
     5  H    0.005683  -0.065438  -0.000178   0.398960   0.627492  -0.019933
     6  H   -0.019132   0.060479  -0.000263   0.243949  -0.019933   0.703584
     7  H    0.009267  -0.077488   0.000352   0.399757  -0.012223  -0.021327
     8  C    0.007405  -0.207816  -0.000551  -0.076431  -0.002060   0.005200
     9  H    0.000994  -0.060345   0.000112   0.000861  -0.000223   0.000171
    10  H   -0.007524   0.000404   0.000015  -0.003617   0.000102   0.004197
    11  H    0.001149  -0.062294   0.000104  -0.000983   0.001977   0.000182
    12  C    0.068759  -0.403058   0.009807  -0.175225   0.000497   0.003616
    13  H    0.010356  -0.080299   0.000147  -0.001128  -0.000091  -0.000130
    14  H   -0.018789   0.057974  -0.000264   0.004572   0.000171   0.005053
    15  H    0.006352  -0.069712  -0.000208   0.000223  -0.000222   0.000186
    16  C    0.068742   0.009794  -0.403296  -0.000861  -0.000016   0.000016
    17  H    0.010341   0.000149  -0.080290  -0.000183  -0.000001   0.000006
    18  H   -0.018797  -0.000264   0.058023   0.000014  -0.000000  -0.000000
    19  H    0.006345  -0.000207  -0.069651  -0.000027  -0.000003   0.000000
    20  C    0.007470  -0.000551  -0.207845  -0.000003  -0.000001  -0.000000
    21  H   -0.007526   0.000015   0.000395  -0.000000  -0.000000   0.000000
    22  H    0.001142   0.000104  -0.062262   0.000000  -0.000000  -0.000000
    23  H    0.000993   0.000112  -0.060361  -0.000000  -0.000000  -0.000000
    24  C    0.067935   0.008211  -0.419396   0.000146   0.000002  -0.000001
    25  H    0.005686  -0.000178  -0.065491   0.000002  -0.000000  -0.000000
    26  H   -0.019133  -0.000263   0.060436  -0.000001  -0.000000   0.000000
    27  H    0.009270   0.000351  -0.077505  -0.000010   0.000000   0.000000
[...]
 (Enter /home/soft/g16/l202.exe)
                          Input orientation:                          
 ---------------------------------------------------------------------
 Center     Atomic      Atomic             Coordinates (Angstroms)
 Number     Number       Type             X           Y           Z
 ---------------------------------------------------------------------
      1         46           0       -0.077025   -1.628840    0.044451
      2         15           0        1.433397    0.028124    0.022087
      3         15           0       -1.515624   -0.126707   -0.007703
      4          6           0        1.555744    1.015163    1.538957
      5          1           0        1.839546    0.336161    2.357913
      6          1           0        2.322931    1.802134    1.428914
      7          1           0        0.600674    1.476851    1.821462
      8          6           0        3.201918   -0.233719   -0.202196
      9          1           0        3.343177   -0.701229   -1.187352
     10          1           0        3.780766    0.705078   -0.136460
     11          1           0        3.530617   -0.941791    0.572626
     12          6           0        1.281518    1.447119   -1.059088
     13          1           0        0.268881    1.852466   -0.810882
     14          1           0        2.076160    2.202544   -0.889942
     15          1           0        1.312624    1.123119   -2.112529
     16          6           0       -1.179330    1.090491    1.146643
     17          1           0       -0.145159    1.240818    0.800621
     18          1           0       -1.829579    1.978390    1.076835
     19          1           0       -1.224143    0.704375    2.174810
     20          6           0       -3.318209   -0.279964    0.124161
     21          1           0       -3.867466    0.672190    0.040167
     22          1           0       -3.662059   -0.966661   -0.663747
     23          1           0       -3.554190   -0.742311    1.093441
     24          6           0       -1.483065    0.730311   -1.562289
     25          1           0       -1.778795    0.009333   -2.340033
     26          1           0       -2.176952    1.584972   -1.568627
     27          1           0       -0.470135    1.046140   -1.791952
     28          1           0       -0.512073   -3.663152    0.030818
     29          1           0        0.245920   -3.890896    0.059989
 ---------------------------------------------------------------------
                    Distance matrix (angstroms):
                    1          2          3          4          5
     1  Pd   0.000000
     2  P    2.242188   0.000000
     3  P    2.080551   2.953233   0.000000
     4  C    3.448222   1.813866   3.623441   0.000000
     5  H    3.589789   2.390801   4.131289   1.101034   0.000000
     6  H    4.410001   2.432600   4.529768   1.104540   1.801604
     7  H    3.641752   2.455603   3.224276   1.097781   1.767416
     8  C    3.571927   1.801814   4.722762   2.702076   2.955501
     9  H    3.751743   2.375280   5.032851   3.684247   3.988231
    10  H    4.512477   2.448171   5.362852   2.802481   3.182190
    11  H    3.710268   2.375324   5.144482   2.943398   2.771306
    12  C    3.539062   1.790406   3.377327   2.647948   3.636141
    13  H    3.601491   2.319085   2.783286   2.806927   3.848043
    14  H    4.493195   2.443981   4.370889   2.753227   3.753390
    15  H    3.762574   2.402121   3.740500   3.661163   4.569661
    16  C    3.134432   3.036378   1.710900   2.764094   3.339132
    17  H    2.968396   2.137424   2.098020   1.867922   2.680041
    18  H    4.141180   3.945002   2.388770   3.549898   4.219070
    19  H    3.361280   3.486266   2.353512   2.868565   3.091164
    20  C    3.511567   4.762678   1.813888   5.237788   5.654352
    21  H    4.434209   5.339878   2.484289   5.636950   6.168861
    22  H    3.713825   5.236758   2.396477   6.000417   6.410572
    23  H    3.738582   5.159205   2.397340   5.422050   5.643968
    24  C    3.181848   3.392501   1.775466   4.351233   5.153939
    25  H    3.356397   3.987248   2.351070   5.213196   5.938848
    26  H    4.164169   4.241317   2.409084   4.890275   5.754086
    27  H    3.268399   2.819668   2.377427   3.898731   4.802091
    28  H    2.080354   4.172583   3.676280   5.332633   5.190374
    29  H    2.285045   4.095150   4.156529   5.288894   5.068344
                    6          7          8          9         10
     6  H    0.000000
     7  H    1.796127   0.000000
     8  C    2.752787   3.713181   0.000000
     9  H    3.761991   4.617176   1.099568   0.000000
    10  H    2.403999   3.813407   1.104864   1.809297   0.000000
    11  H    3.117830   3.999249   1.099891   1.786204   1.810402
    12  C    2.720428   2.960067   2.692103   2.980317   2.765521
    13  H    3.039464   2.679628   3.650394   4.014272   3.755620
    14  H    2.366077   3.171025   2.770506   3.182088   2.390778
    15  H    3.744810   4.013512   3.009952   2.882246   3.189252
    16  C    3.584961   1.942439   4.771607   5.395448   5.137844
    17  H    2.607929   1.286116   3.792470   4.460052   4.071611
    18  H    4.171134   2.590779   5.643165   6.250144   5.879572
    19  H    3.787237   2.012841   5.110792   5.842967   5.512810
    20  C    6.153046   4.617886   6.528454   6.802323   7.171728
    21  H    6.444098   4.876962   7.131312   7.442208   7.650341
    22  H    6.918494   5.506170   6.918411   7.029789   7.646462
    23  H    6.413056   4.766297   6.897995   7.264803   7.576883
    24  C    4.957994   4.043397   4.972753   5.048019   5.453580
    25  H    5.851774   5.013334   5.425581   5.297940   6.020674
    26  H    5.411225   4.384016   5.840121   5.986978   6.190292
    27  H    4.329748   3.793270   4.201112   4.237946   4.574618
    28  H    6.313578   5.555559   5.060537   5.011973   6.126816
    29  H    6.212770   5.660507   4.709735   4.617665   5.801439
                   11         12         13         14         15
    11  H    0.000000
    12  C    3.664401   0.000000
    13  H    4.512305   1.118635   0.000000
    14  H    3.760505   1.109385   1.842570   0.000000
    15  H    4.048877   1.102580   1.820888   1.800796   0.000000
    16  C    5.161712   3.323884   2.551436   3.997820   4.102816
    17  H    4.281016   2.352973   1.772705   2.952487   3.259666
    18  H    6.124817   3.810949   2.825396   4.378727   4.558176
    19  H    5.280587   4.157896   3.530097   4.746495   4.999180
    20  C    6.895329   5.053749   4.276538   6.024158   5.330670
    21  H    7.590790   5.321739   4.384826   6.207558   5.627679
    22  H    7.298207   5.515576   4.839567   6.559130   5.586914
    23  H    7.106724   5.728093   4.997518   6.656337   6.119146
    24  C    5.700070   2.899990   2.212048   3.909937   2.876271
    25  H    6.130097   3.615739   3.150940   4.666222   3.293805
    26  H    6.598928   3.498521   2.574457   4.350974   3.561780
    27  H    5.054614   1.940660   1.469287   2.938454   1.812988
    28  H    4.903335   5.524466   5.633860   6.477124   5.552642
    29  H    4.444013   5.551504   5.809057   6.432897   5.567587
                   16         17         18         19         20
    16  C    0.000000
    17  H    1.100836   0.000000
    18  H    1.102752   1.859456   0.000000
    19  H    1.099191   1.827669   1.787517   0.000000
    20  C    2.738324   3.583103   2.867711   3.091795   0.000000
    21  H    2.936893   3.841510   2.633215   3.397778   1.102422
    22  H    3.697747   4.402945   3.880842   4.097951   1.100266
    23  H    3.000325   3.954749   3.221299   2.948114   1.099525
    24  C    2.749600   2.762961   2.939855   3.746148   2.689336
    25  H    3.699348   3.748204   3.943951   4.601579   2.919887
    26  H    2.934699   3.140058   2.697019   3.961896   2.765138
    27  H    3.023287   2.620103   3.308642   4.052225   3.679887
    28  H    4.928226   4.977564   5.887016   4.917218   4.396484
    29  H    5.293993   5.199612   6.307946   5.267833   5.074048
                   21         22         23         24         25
    21  H    0.000000
    22  H    1.795417   0.000000
    23  H    1.791184   1.774734   0.000000
    24  C    2.873432   2.904325   3.675742   0.000000
    25  H    3.235317   2.703549   3.937732   1.100978   0.000000
    26  H    2.505839   3.087909   3.794685   1.100893   1.798954
    27  H    3.877932   3.938602   4.586441   1.085596   1.757258
    28  H    5.482147   4.204271   4.349133   4.773188   4.551116
    29  H    6.143459   4.934292   5.042067   5.193912   5.007131
                   26         27         28         29
    26  H    0.000000
    27  H    1.803729   0.000000
    28  H    5.733485   5.049918   0.000000
    29  H    6.205467   5.321347   0.792004   0.000000
 Stoichiometry    C6H20P2Pd
 Framework group  C1[X(C6H20P2Pd)]
 Deg. of freedom    81
 Full point group                 C1      NOp   1
 RotChk:  IX=0 Diff= 9.40D-02
 Largest Abelian subgroup         C1      NOp   1
 Largest concise Abelian subgroup C1      NOp   1
                         Standard orientation:                         
 ---------------------------------------------------------------------
 Center     Atomic      Atomic             Coordinates (Angstroms)
 Number     Number       Type             X           Y           Z
 ---------------------------------------------------------------------
      1         46           0        0.203813    1.250078    0.004837
      2         15           0       -1.503321   -0.202808   -0.042285
      3         15           0        1.440641   -0.422610    0.037459
      4          6           0       -1.803742   -1.128975    1.488098
      5          1           0       -2.027661   -0.399677    2.281987
      6          1           0       -2.660407   -1.815163    1.364486
      7          1           0       -0.925728   -1.700569    1.815962
      8          6           0       -3.215142    0.274814   -0.339070
      9          1           0       -3.260885    0.732122   -1.337983
     10          1           0       -3.910636   -0.581424   -0.276861
     11          1           0       -3.478308    1.037531    0.408436
     12          6           0       -1.495007   -1.655706   -1.088501
     13          1           0       -0.551553   -2.179543   -0.793824
     14          1           0       -2.384745   -2.300295   -0.934856
     15          1           0       -1.447398   -1.356307   -2.148584
     16          6           0        0.911691   -1.558881    1.202053
     17          1           0       -0.120318   -1.585774    0.819854
     18          1           0        1.445802   -2.523267    1.174752
     19          1           0        0.968869   -1.156422    2.223316
     20          6           0        3.242283   -0.495155    0.234972
     21          1           0        3.668617   -1.510849    0.190919
     22          1           0        3.698305    0.123061   -0.552708
     23          1           0        3.500733   -0.042698    1.203188
     24          6           0        1.354333   -1.306513   -1.499924
     25          1           0        1.766657   -0.647973   -2.279966
     26          1           0        1.933685   -2.241895   -1.462807
     27          1           0        0.318220   -1.497362   -1.761775
     28          1           0        0.894243    3.212165   -0.032546
     29          1           0        0.170814    3.534504   -0.036858
 ---------------------------------------------------------------------
 Rotational constants (GHZ):           1.0996147           0.7007470           0.5433198
 Leave Link  202 at Fri Nov 22 01:13:46 2019, MaxMem=   280000000 cpu:               0.8 elap:               0.1
 (Enter /home/soft/g16/l301.exe)
 Basis read from rwf:  (5D, 7F)
 No pseudopotential information found on rwf file.
 There are   320 symmetry adapted cartesian basis functions of A   symmetry.
 There are   298 symmetry adapted basis functions of A   symmetry.
   298 basis functions,   502 primitive gaussians,   320 cartesian basis functions
    66 alpha electrons       66 beta electrons
       nuclear repulsion energy      1367.3517354789 Hartrees.
 IExCor= 1009 DFT=T Ex+Corr=PBE1PBE ExCW=0 ScaHFX=  0.250000
 ScaDFX=  0.750000  0.750000  1.000000  1.000000 ScalE2=  1.000000  1.000000
 IRadAn=      5 IRanWt=     -1 IRanGd=            0 ICorTp=0 IEmpDi=141
 NAtoms=   29 NActive=   29 NUniq=   29 SFac= 1.00D+00 NAtFMM=   60 NAOKFM=F Big=F
 Integral buffers will be    131072 words long.
 Raffenetti 2 integral format.
 Two-electron integral symmetry is turned on.
 R6Disp:  Grimme-D3(BJ) Dispersion energy=       -0.0375535274 Hartrees.
 Nuclear repulsion after empirical dispersion term =     1367.3141819515 Hartrees.
 No density basis found on file   724.
 ------------------------------------------------------------------------------
 Polarizable Continuum Model (PCM)
 =================================
 Model                : PCM.
 Atomic radii         : SMD-Coulomb.
 Polarization charges : Total charges.
 Charge compensation  : None.
 Solution method      : Matrix inversion.
 Cavity type          : VdW (van der Waals Surface) (Alpha=1.000).
 Cavity algorithm     : GePol (No added spheres)
                        Default sphere list used, NSphG=   29.
                        Lebedev-Laikov grids with approx.  5.0 points / Ang**2.
                        Smoothing algorithm: York/Karplus (Gamma=1.0000).
                        Polarization charges: spherical gaussians, with
                                              point-specific exponents (IZeta= 3).
                        Self-potential: point-specific (ISelfS= 7).
                        Self-field    : sphere-specific E.n sum rule (ISelfD= 2).
 1st derivatives      : Analytical E(r).r(x)/FMM algorithm (CHGder, D1EAlg=3).
                        Cavity 1st derivative terms included.
 Solvent              : Benzene, Eps=   2.270600 Eps(inf)=   2.253301
 ------------------------------------------------------------------------------
 GePol: Number of generator spheres                  =      29
 GePol: Total number of spheres                      =      29
 GePol: Number of exposed spheres                    =      29 (100.00%)
 GePol: Number of points                             =    1887
 GePol: Average weight of points                     =       0.12
 GePol: Minimum weight of points                     =   0.24D-11
 GePol: Maximum weight of points                     =    0.21314
 GePol: Number of points with low weight             =     116
 GePol: Fraction of low-weight points (<1% of avg)   =       6.15%
 GePol: Cavity surface area                          =    220.101 Ang**2
 GePol: Cavity volume                                =    192.830 Ang**3
 ------------------------------------------------------------------------------
 Atomic radii for non-electrostatic terms: SMD-CDS.
 ------------------------------------------------------------------------------
 PCM non-electrostatic energy =         0.0007156231 Hartrees.
 Nuclear repulsion after PCM non-electrostatic terms =     1367.3148975746 Hartrees.
 Leave Link  301 at Fri Nov 22 01:13:46 2019, MaxMem=   280000000 cpu:               2.1 elap:               0.1
 (Enter /home/soft/g16/l302.exe)
 NPDir=0 NMtPBC=     1 NCelOv=     1 NCel=       1 NClECP=     1 NCelD=      1
         NCelK=      1 NCelE2=     1 NClLst=     1 CellRange=     0.0.
 One-electron integrals computed using PRISM.
 One-electron integral symmetry used in STVInt
 NBasis=   298 RedAO= T EigKep=  7.85D-04  NBF=   298
 NBsUse=   298 1.00D-06 EigRej= -1.00D+00 NBFU=   298
 Precomputing XC quadrature grid using
 IXCGrd= 4 IRadAn=           5 IRanWt=          -1 IRanGd=           0 AccXCQ= 0.00D+00.
 Defaulting to unpruned grid for atomic number  46.
 Generated NRdTot=       0 NPtTot=           0 NUsed=           0 NTot=          32
 NSgBfM=   320   320   320   320   320 MxSgAt=    29 MxSgA2=    29.
 Leave Link  302 at Fri Nov 22 01:13:47 2019, MaxMem=   280000000 cpu:               6.7 elap:               0.3
 (Enter /home/soft/g16/l303.exe)
 DipDrv:  MaxL=1.
 Leave Link  303 at Fri Nov 22 01:13:47 2019, MaxMem=   280000000 cpu:               1.6 elap:               0.1
 (Enter /home/soft/g16/l401.exe)
 Initial guess from the checkpoint file:  "Pd_tsb.chk"
 B after Tr=     0.000000    0.000000    0.000000
         Rot=    0.999443    0.006769   -0.001109    0.032665 Ang=   3.83 deg.
 Guess basis will be translated and rotated to current coordinates.
 JPrj=2 DoOrth=T DoCkMO=T.
 Generating alternative initial guess.
 ExpMin= 3.70D-02 ExpMax= 5.24D+04 ExpMxC= 1.79D+03 IAcc=3 IRadAn=         5 AccDes= 0.00D+00
 Harris functional with IExCor= 1009 and IRadAn=       5 diagonalized for initial guess.
 HarFok:  IExCor= 1009 AccDes= 0.00D+00 IRadAn=         5 IDoV= 1 UseB2=F ITyADJ=14
 ICtDFT=  3500011 ScaDFX=  1.000000  1.000000  1.000000  1.000000
 Defaulting to unpruned grid for atomic number  46.
 FoFCou: FMM=F IPFlag=           0 FMFlag=      100000 FMFlg1=           0
         NFxFlg=           0 DoJE=T BraDBF=F KetDBF=T FulRan=T
         wScrn=  0.000000 ICntrl=       500 IOpCl=  0 I1Cent=   200000004 NGrid=           0
         NMat0=    1 NMatS0=      1 NMatT0=    0 NMatD0=    1 NMtDS0=    0 NMtDT0=    0
 Petite list used in FoFCou.
 Harris En= -3289.35996673144    
 Leave Link  401 at Fri Nov 22 01:13:48 2019, MaxMem=   280000000 cpu:              29.1 elap:               1.3
 (Enter /home/soft/g16/l502.exe)
 Integral symmetry usage will be decided dynamically.
 Closed shell SCF:
 Using DIIS extrapolation, IDIIS=  1040.
 NGot=   280000000 LenX=   279784095 LenY=   279681254
 Requested convergence on RMS density matrix=1.00D-08 within 128 cycles.
 Requested convergence on MAX density matrix=1.00D-06.
 Requested convergence on             energy=1.00D-06.
 No special actions if energy rises.
 Fock matrices will be formed incrementally for  20 cycles.

 Cycle   1  Pass 1  IDiag  1:
 FoFJK:  IHMeth= 1 ICntrl=       0 DoSepK=F KAlg= 0 I1Cent=           0 FoldK=F
 IRaf= 950000000 NMat=       1 IRICut=       1 DoRegI=T DoRafI=F ISym2E= 0 IDoP0=0 IntGTp=1.
 FoFCou: FMM=F IPFlag=           0 FMFlag=      100000 FMFlg1=           0
         NFxFlg=           0 DoJE=F BraDBF=F KetDBF=F FulRan=T
         wScrn=  0.000000 ICntrl=         0 IOpCl=  0 I1Cent=           0 NGrid=           0
         NMat0=    1 NMatS0=      1 NMatT0=    0 NMatD0=    1 NMtDS0=    0 NMtDT0=    0
 Symmetry not used in FoFCou.
 Defaulting to unpruned grid for atomic number  46.
 Defaulting to unpruned grid for atomic number  46.
 Defaulting to unpruned grid for atomic number  46.
 Defaulting to unpruned grid for atomic number  46.
 Defaulting to unpruned grid for atomic number  46.
 Defaulting to unpruned grid for atomic number  46.
 Defaulting to unpruned grid for atomic number  46.
 Defaulting to unpruned grid for atomic number  46.
 Defaulting to unpruned grid for atomic number  46.
 Defaulting to unpruned grid for atomic number  46.
 Defaulting to unpruned grid for atomic number  46.
 Defaulting to unpruned grid for atomic number  46.
 Defaulting to unpruned grid for atomic number  46.
 Defaulting to unpruned grid for atomic number  46.
 Defaulting to unpruned grid for atomic number  46.
 Defaulting to unpruned grid for atomic number  46.
 Defaulting to unpruned grid for atomic number  46.
 Defaulting to unpruned grid for atomic number  46.
 Defaulting to unpruned grid for atomic number  46.
 Defaulting to unpruned grid for atomic number  46.
 Defaulting to unpruned grid for atomic number  46.
 Defaulting to unpruned grid for atomic number  46.
 Defaulting to unpruned grid for atomic number  46.
 Defaulting to unpruned grid for atomic number  46.
 Inv3:  Mode=1 IEnd=    10682307.
 Iteration    1 A*A^-1 deviation from unit magnitude is 3.33D-15 for   1863.
 Iteration    1 A*A^-1 deviation from orthogonality  is 2.47D-15 for   1637    368.
