 Default is to use a total of   4 processors:
                                4 via shared-memory
                                1 via Linda
 Entering Link 1 = d:\study\G09W\l1.exe PID=      4668.
  
 Copyright (c) 1988,1990,1992,1993,1995,1998,2003,2009, Gaussian, Inc.
                  All Rights Reserved.
  
 This is part of the Gaussian(R) 09 program.  It is based on
 the Gaussian(R) 03 system (copyright 2003, Gaussian, Inc.),
 the Gaussian(R) 98 system (copyright 1998, Gaussian, Inc.),
 the Gaussian(R) 94 system (copyright 1995, Gaussian, Inc.),
 the Gaussian 92(TM) system (copyright 1992, Gaussian, Inc.),
 the Gaussian 90(TM) system (copyright 1990, Gaussian, Inc.),
 the Gaussian 88(TM) system (copyright 1988, Gaussian, Inc.),
 the Gaussian 86(TM) system (copyright 1986, Carnegie Mellon
 University), and the Gaussian 82(TM) system (copyright 1983,
 Carnegie Mellon University). Gaussian is a federally registered
 trademark of Gaussian, Inc.
  
 This software contains proprietary and confidential information,
 including trade secrets, belonging to Gaussian, Inc.
  
 This software is provided under written license and may be
 used, copied, transmitted, or stored only in accord with that
 written license.
  
 The following legend is applicable only to US Government
 contracts under FAR:
  
                    RESTRICTED RIGHTS LEGEND
  
 Use, reproduction and disclosure by the US Government is
 subject to restrictions as set forth in subparagraphs (a)
 and (c) of the Commercial Computer Software - Restricted
 Rights clause in FAR 52.227-19.
  
 Gaussian, Inc.
 340 Quinnipiac St., Bldg. 40, Wallingford CT 06492
  
  
 ---------------------------------------------------------------
 Warning -- This program may not be used in any manner that
 competes with the business of Gaussian, Inc. or will provide
 assistance to any competitor of Gaussian, Inc.  The licensee
 of this program is prohibited from giving any competitor of
 Gaussian, Inc. access to this program.  By using this program,
 the user acknowledges that Gaussian, Inc. is engaged in the
 business of creating and licensing software in the field of
 computational chemistry and represents and warrants to the
 licensee that it is not a competitor of Gaussian, Inc. and that
 it will not use this program in any manner prohibited above.
 ---------------------------------------------------------------
  

 Cite this work as:
 Gaussian 09, Revision A.02,
 M. J. Frisch, G. W. Trucks, H. B. Schlegel, G. E. Scuseria, 
 M. A. Robb, J. R. Cheeseman, G. Scalmani, V. Barone, B. Mennucci, 
 G. A. Petersson, H. Nakatsuji, M. Caricato, X. Li, H. P. Hratchian, 
 A. F. Izmaylov, J. Bloino, G. Zheng, J. L. Sonnenberg, M. Hada, 
 M. Ehara, K. Toyota, R. Fukuda, J. Hasegawa, M. Ishida, T. Nakajima, 
 Y. Honda, O. Kitao, H. Nakai, T. Vreven, J. A. Montgomery, Jr., 
 J. E. Peralta, F. Ogliaro, M. Bearpark, J. J. Heyd, E. Brothers, 
 K. N. Kudin, V. N. Staroverov, R. Kobayashi, J. Normand, 
 K. Raghavachari, A. Rendell, J. C. Burant, S. S. Iyengar, J. Tomasi, 
 M. Cossi, N. Rega, J. M. Millam, M. Klene, J. E. Knox, J. B. Cross, 
 V. Bakken, C. Adamo, J. Jaramillo, R. Gomperts, R. E. Stratmann, 
 O. Yazyev, A. J. Austin, R. Cammi, C. Pomelli, J. W. Ochterski, 
 R. L. Martin, K. Morokuma, V. G. Zakrzewski, G. A. Voth, 
 P. Salvador, J. J. Dannenberg, S. Dapprich, A. D. Daniels, 
 O. Farkas, J. B. Foresman, J. V. Ortiz, J. Cioslowski, 
 and D. J. Fox, Gaussian, Inc., Wallingford CT, 2009.
 
 ******************************************
 Gaussian 09:  IA32W-G09RevA.02 11-Jun-2009
                08-Sep-2013 
 ******************************************
 %chk=c:\IRC.chk
 -----------------------------------------------------------
 # irc=(maxpoints=20,calcfc,maxcyc=50,stepsize=10) rhf/3-21g
 -----------------------------------------------------------
 1/6=50,10=4,18=20,38=1,39=10,42=20,44=3/1,23;
 2/9=110,12=2,17=6,18=5,29=1,40=1/2;
 3/5=5,11=1,16=1,25=1,30=1,71=2,116=1/1,2,3;
 4//1;
 5/5=2,38=5/2;
 8/6=4,10=90,11=11/1;
 11/6=1,8=1,9=11,15=111,16=1/1,2,10;
 10/6=1,7=6,13=1/2;
 6/7=2,8=2,9=2,10=2,28=1/1;
 7/10=1,18=20,25=1/1,2,3,16;
 1/6=50,10=4,18=20,39=10,42=20,44=3/23(3);
 2/9=110,29=1/2;
 7/9=1,25=1,44=-1/16;
 99//99;
 2/9=110,29=1/2;
 3/5=5,11=1,16=1,25=1,30=1,71=2,116=1/1,2,3;
 4/5=5,16=3/1;
 5/5=2,38=5/2;
 8/6=4,10=90,11=11/1;
 11/6=1,8=1,9=11,15=111,16=1/1,2,10;
 10/6=1,7=6,13=1/2;
 7/10=1,18=20,25=1/1,2,3,16;
 1/6=50,18=20,39=10,42=20,44=3/23(-8);
 2/9=110,29=1/2;
 6/7=2,8=2,9=2,10=2,19=2,28=1/1;
 7/9=1,25=1,44=-1/16;
 99/9=1/99;
 -------------------------------------------------------------------
 IRC test: SIH2+H2 OPTM. AT 3-21G LEVEL (STEP=0.1,POINT NUMBER 1-30)
 -------------------------------------------------------------------
 Symbolic Z-matrix:
 Charge =  0 Multiplicity = 1
 Si                    0.        0.        0. 
 H                     0.78339   1.23552  -0.25086 
 H                     0.78339  -1.23552  -0.25086 
 H                    -0.54807   0.        1.44194 
 H                     0.54807   0.        1.59366 
 
 IRC-IRC-IRC-IRC-IRC-IRC-IRC-IRC-IRC-IRC-IRC-IRC-IRC-IRC-IRC-IRC-IRC-IRC
 ------------------------------------------------------------------------
 INPUT DATA FOR L123
 ------------------------------------------------------------------------
 GENERAL PARAMETERS:
 Follow reaction path in both directions.
 Maximum points per path      =  20
 Step size                    =   0.100 bohr
 Integration scheme           = HPC                                 
    Redo corrector integration= Yes                                 
    Max correction cycles     =  50
 Initial Hessian              = CalcFC
 Hessian eveluation           = All updating
    Hessian updating method   = Bofill                              
 ------------------------------------------------------------------------
 IRC-IRC-IRC-IRC-IRC-IRC-IRC-IRC-IRC-IRC-IRC-IRC-IRC-IRC-IRC-IRC-IRC-IRC
                          Input orientation:                          
 ---------------------------------------------------------------------
 Center     Atomic      Atomic             Coordinates (Angstroms)
 Number     Number       Type             X           Y           Z
 ---------------------------------------------------------------------
      1         14           0        0.000000    0.000000    0.000000
      2          1           0        0.783390    1.235523   -0.250858
      3          1           0        0.783390   -1.235523   -0.250858
      4          1           0       -0.548075    0.000000    1.441938
      5          1           0        0.548075    0.000000    1.593662
 ---------------------------------------------------------------------
                    Distance matrix (angstroms):
                    1          2          3          4          5
     1  Si   0.000000
     2  H    1.484300   0.000000
     3  H    1.484300   2.471046   0.000000
     4  H    1.542586   2.482917   2.482917   0.000000
     5  H    1.685272   2.232520   2.232520   1.106600   0.000000
 Symmetry turned off by external request.
 Stoichiometry    H4Si
 Framework group  CS[SG(H2Si),X(H2)]
 Deg. of freedom     6
 Full point group                 CS      NOp   2
 Rotational constants (GHZ):    105.8427598     79.6779994     65.4482775
 Standard basis: 3-21G (6D, 7F)
 Integral buffers will be    262144 words long.
 Raffenetti 1 integral format.
 Two-electron integral symmetry is turned off.
    21 basis functions,    39 primitive gaussians,    21 cartesian basis functions
     9 alpha electrons        9 beta electrons
       nuclear repulsion energy        20.7737771686 Hartrees.
 NAtoms=    5 NActive=    5 NUniq=    5 SFac= 7.50D-01 NAtFMM=   80 NAOKFM=F Big=F
 One-electron integrals computed using PRISM.
 NBasis=    21 RedAO= T  NBF=    21
 NBsUse=    21 1.00D-06 NBFU=    21
 Harris functional with IExCor=  205 diagonalized for initial guess.
 ExpMin= 9.33D-02 ExpMax= 9.11D+02 ExpMxC= 9.11D+02 IAcc=2 IRadAn=         0 AccDes= 0.00D+00
 HarFok:  IExCor=  205 AccDes= 0.00D+00 IRadAn=         0 IDoV= 1
 ScaDFX=  1.000000  1.000000  1.000000  1.000000
 FoFCou: FMM=F IPFlag=           0 FMFlag=      100000 FMFlg1=           0
         NFxFlg=           0 DoJE=T BraDBF=F KetDBF=T FulRan=T
         Omega=  0.000000  0.000000  1.000000  0.000000  0.000000 ICntrl=     500 IOpCl=  0
         NMat0=    1 NMatS0=    1 NMatT0=    0 NMatD0=    1 NMtDS0=    0 NMtDT0=    0
         I1Cent=           4 NGrid=           0.
 Symmetry not used in FoFCou.
 Requested convergence on RMS density matrix=1.00D-08 within 128 cycles.
 Requested convergence on MAX density matrix=1.00D-06.
 Requested convergence on             energy=1.00D-06.
 No special actions if energy rises.
 Keep R1 ints in memory in canonical form, NReq=846515.
 SCF Done:  E(RHF) =  -289.565025989     A.U. after   11 cycles
             Convg  =    0.2185D-08             -V/T =  2.0005
 Range of M.O.s used for correlation:     1    21
 NBasis=    21 NAE=     9 NBE=     9 NFC=     0 NFV=     0
 NROrb=     21 NOA=     9 NOB=     9 NVA=    12 NVB=    12
 Symmetrizing basis deriv contribution to polar:
 IMax=3 JMax=2 DiffMx= 0.00D+00
 G2DrvN: will do     6 centers at a time, making    1 passes doing MaxLOS=1.
 Calling FoFCou, ICntrl=  3107 FMM=F I1Cent=   0 AccDes= 0.00D+00.
 FoFDir/FoFCou used for L=0 through L=1.
 End of G2Drv Frequency-dependent properties file   721 does not exist.
 End of G2Drv Frequency-dependent properties file   722 does not exist.
          IDoAtm=11111
          Differentiating once with respect to nuclear coordinates.
          Keep R1 ints in memory in canonical form, NReq=827115.
          There are    18 degrees of freedom in the 1st order CPHF.  IDoFFX=5.
     12 vectors produced by pass  0 Test12= 6.00D-12 5.56D-07 XBig12= 4.55D-02 1.56D-01.
 AX will form    12 AO Fock derivatives at one time.
     12 vectors produced by pass  1 Test12= 6.00D-12 5.56D-07 XBig12= 1.34D-03 1.81D-02.
     12 vectors produced by pass  2 Test12= 6.00D-12 5.56D-07 XBig12= 2.88D-06 8.75D-04.
     12 vectors produced by pass  3 Test12= 6.00D-12 5.56D-07 XBig12= 1.17D-08 4.18D-05.
      4 vectors produced by pass  4 Test12= 6.00D-12 5.56D-07 XBig12= 2.34D-11 1.64D-06.
 Inverted reduced A of dimension    52 with in-core refinement.
 End of Minotr Frequency-dependent properties file   721 does not exist.
 End of Minotr Frequency-dependent properties file   722 does not exist.

 **********************************************************************

            Population analysis using the SCF density.

 **********************************************************************

 Alpha  occ. eigenvalues --  -68.28793  -6.10365  -4.19936  -4.19761  -4.19608
 Alpha  occ. eigenvalues --   -0.78512  -0.55708  -0.49226  -0.32372
 Alpha virt. eigenvalues --    0.09553   0.17147   0.19143   0.27746   0.44549
 Alpha virt. eigenvalues --    0.47486   0.48368   0.51969   1.21389   1.24283
 Alpha virt. eigenvalues --    1.33020   1.33926
          Condensed to atoms (all electrons):
              1          2          3          4          5
     1  Si  12.583898   0.370194   0.370194   0.244103   0.078637
     2  H    0.370194   0.798962  -0.020968  -0.019867  -0.004106
     3  H    0.370194  -0.020968   0.798962  -0.019867  -0.004106
     4  H    0.244103  -0.019867  -0.019867   0.752519   0.056186
     5  H    0.078637  -0.004106  -0.004106   0.056186   0.964860
 Mulliken atomic charges:
              1
     1  Si   0.352974
     2  H   -0.124215
     3  H   -0.124215
     4  H   -0.013074
     5  H   -0.091471
 Sum of Mulliken atomic charges =   0.00000
 Mulliken charges with hydrogens summed into heavy atoms:
              1
     1  Si   0.000000
 Sum of Mulliken charges with hydrogens summed into heavy atoms =   0.00000
 APT atomic charges:
              1
     1  Si  -0.178766
     2  H    0.035536
     3  H    0.035536
     4  H    0.118578
     5  H   -0.010883
 Sum of APT charges=   0.00000
 APT Atomic charges with hydrogens summed into heavy atoms:
              1
     1  Si   0.000000
     2  H    0.000000
     3  H    0.000000
     4  H    0.000000
     5  H    0.000000
 Sum of APT charges=   0.00000
 Electronic spatial extent (au):  <R**2>=             74.3118
 Charge=              0.0000 electrons
 Dipole moment (field-independent basis, Debye):
    X=              0.2594    Y=              0.0000    Z=              0.4206  Tot=              0.4942
 Quadrupole moment (field-independent basis, Debye-Ang):
   XX=            -19.8994   YY=            -17.9307   ZZ=            -15.8860
   XY=              0.0000   XZ=             -1.2115   YZ=              0.0000
 Traceless Quadrupole moment (field-independent basis, Debye-Ang):
   XX=             -1.9940   YY=             -0.0253   ZZ=              2.0193
   XY=              0.0000   XZ=             -1.2115   YZ=              0.0000
 Octapole moment (field-independent basis, Debye-Ang**2):
  XXX=             -3.6282  YYY=              0.0000  ZZZ=             -8.2417  XYY=             -2.3283
  XXY=              0.0000  XXZ=             -3.4057  XZZ=             -2.4258  YZZ=              0.0000
  YYZ=             -1.9182  XYZ=              0.0000
 Hexadecapole moment (field-independent basis, Debye-Ang**3):
 XXXX=            -47.1740 YYYY=            -46.9062 ZZZZ=            -53.3017 XXXY=              0.0000
 XXXZ=             -1.3455 YYYX=              0.0000 YYYZ=              0.0000 ZZZX=             -3.2601
 ZZZY=              0.0000 XXYY=            -15.8641 XXZZ=            -17.5420 YYZZ=            -16.3941
 XXYZ=              0.0000 YYXZ=             -0.2505 ZZXY=              0.0000
 N-N= 2.077377716862D+01 E-N=-7.318003876477D+02  KE= 2.894084456071D+02
  Exact polarizability:   0.000   0.000   0.000   0.000   0.000   0.000
 Approx polarizability:  20.902   0.000  19.894   5.588   0.000  38.687
 Calling FoFJK, ICntrl=    100147 FMM=F ISym2X=0 I1Cent= 0 IOpClX= 0 NMat=1 NMatS=1 NMatT=0.
 -------------------------------------------------------------------
 Center     Atomic                   Forces (Hartrees/Bohr)
 Number     Number              X              Y              Z
 -------------------------------------------------------------------
      1       14           0.000090928    0.000000000   -0.000002869
      2        1          -0.000059754    0.000006539    0.000011745
      3        1          -0.000059754   -0.000006539    0.000011745
      4        1           0.000087821    0.000000000   -0.000050269
      5        1          -0.000059240    0.000000000    0.000029649
 -------------------------------------------------------------------
 Cartesian Forces:  Max     0.000090928 RMS     0.000045023
 IRC-IRC-IRC-IRC-IRC-IRC-IRC-IRC-IRC-IRC-IRC-IRC-IRC-IRC-IRC-IRC-IRC-IRC
          ******** Start new reaction path calculation ********
 Supplied step size of   0.1000 bohr.
    Integration on MW PES will use step size of   0.1025 sqrt(amu)*bohr.
 Point Number:   0          Path Number:   1
 Calculating another point on the path.
 IRC-IRC-IRC-IRC-IRC-IRC-IRC-IRC-IRC-IRC-IRC-IRC-IRC-IRC-IRC-IRC-IRC-IRC
                          Input orientation:                          
 ---------------------------------------------------------------------
 Center     Atomic      Atomic             Coordinates (Angstroms)
 Number     Number       Type             X           Y           Z
 ---------------------------------------------------------------------
      1         14           0       -0.048327    0.000000   -0.077925
      2          1           0        0.725669    1.237857   -0.338787
      3          1           0        0.725669   -1.237857   -0.338787
      4          1           0       -0.632909    0.000000    1.340317
      5          1           0        0.523103    0.000000    1.500435
 ---------------------------------------------------------------------
                    Distance matrix (angstroms):
                    1          2          3          4          5
     1  Si   0.000000
     2  H    1.483040   0.000000
     3  H    1.483040   2.475713   0.000000
     4  H    1.533997   2.489461   2.489461   0.000000
     5  H    1.678616   2.226221   2.226221   1.167048   0.000000
 Symmetry turned off by external request.
 Stoichiometry    H4Si
 Framework group  CS[SG(H2Si),X(H2)]
 Deg. of freedom     6
 Full point group                 CS      NOp   2
 Rotational constants (GHZ):    104.8544426     80.3857949     66.1125628
 Standard basis: 3-21G (6D, 7F)
 Integral buffers will be    262144 words long.
 Raffenetti 1 integral format.
 Two-electron integral symmetry is turned off.
    21 basis functions,    39 primitive gaussians,    21 cartesian basis functions
     9 alpha electrons        9 beta electrons
       nuclear repulsion energy        20.8016319225 Hartrees.
 NAtoms=    5 NActive=    5 NUniq=    5 SFac= 7.50D-01 NAtFMM=   80 NAOKFM=F Big=F
 One-electron integrals computed using PRISM.
 NBasis=    21 RedAO= T  NBF=    21
 NBsUse=    21 1.00D-06 NBFU=    21
 Initial guess read from the read-write file.
 B after Tr=     0.000000    0.000000    0.000000
         Rot=    1.000000    0.000000    0.000000    0.000000 Ang=   0.00 deg.
 Harris functional with IExCor=  205 diagonalized for initial guess.
 ExpMin= 9.33D-02 ExpMax= 9.11D+02 ExpMxC= 9.11D+02 IAcc=2 IRadAn=         0 AccDes= 0.00D+00
 HarFok:  IExCor=  205 AccDes= 0.00D+00 IRadAn=         0 IDoV= 1
 ScaDFX=  1.000000  1.000000  1.000000  1.000000
 FoFCou: FMM=F IPFlag=           0 FMFlag=      100000 FMFlg1=           0
         NFxFlg=           0 DoJE=T BraDBF=F KetDBF=T FulRan=T
         Omega=  0.000000  0.000000  1.000000  0.000000  0.000000 ICntrl=     500 IOpCl=  0
         NMat0=    1 NMatS0=    1 NMatT0=    0 NMatD0=    1 NMtDS0=    0 NMtDT0=    0
         I1Cent=           4 NGrid=           0.
 Symmetry not used in FoFCou.
 Requested convergence on RMS density matrix=1.00D-08 within 128 cycles.
 Requested convergence on MAX density matrix=1.00D-06.
 Requested convergence on             energy=1.00D-06.
 No special actions if energy rises.
 Keep R1 ints in memory in canonical form, NReq=846515.
 SCF Done:  E(RHF) =  -289.565603559     A.U. after   10 cycles
             Convg  =    0.2372D-08             -V/T =  2.0006
 Range of M.O.s used for correlation:     1    21
 NBasis=    21 NAE=     9 NBE=     9 NFC=     0 NFV=     0
 NROrb=     21 NOA=     9 NOB=     9 NVA=    12 NVB=    12
 Symmetrizing basis deriv contribution to polar:
 IMax=3 JMax=2 DiffMx= 0.00D+00
 Calling FoFJK, ICntrl=      2147 FMM=F ISym2X=0 I1Cent= 0 IOpClX= 0 NMat=1 NMatS=1 NMatT=0.
 -------------------------------------------------------------------
 Center     Atomic                   Forces (Hartrees/Bohr)
 Number     Number              X              Y              Z
 -------------------------------------------------------------------
      1       14           0.005976884    0.000000000    0.010813689
      2        1          -0.001807622    0.000496685   -0.001730675
      3        1          -0.001807622   -0.000496685   -0.001730675
      4        1          -0.007419702    0.000000000   -0.004570886
      5        1           0.005058062    0.000000000   -0.002781453
 -------------------------------------------------------------------
 Cartesian Forces:  Max     0.010813689 RMS     0.004281303
 IRC-IRC-IRC-IRC-IRC-IRC-IRC-IRC-IRC-IRC-IRC-IRC-IRC-IRC-IRC-IRC-IRC-IRC
 Pt  1 Step number   1 out of a maximum of  50
 CORRECTOR INTEGRATION CONVERGENCE:
   Recorrection delta-x convergence threshold:    0.010000
   Delta-x Convergence Met
 Point Number:   1          Path Number:   1
   CHANGE IN THE REACTION COORDINATE =    0.10251
   NET REACTION COORDINATE UP TO THIS POINT =    0.10251
  # OF POINTS ALONG THE PATH =   1
  # OF STEPS =   1

 Calculating another point on the path.
 IRC-IRC-IRC-IRC-IRC-IRC-IRC-IRC-IRC-IRC-IRC-IRC-IRC-IRC-IRC-IRC-IRC-IRC
                          Input orientation:                          
 ---------------------------------------------------------------------
 Center     Atomic      Atomic             Coordinates (Angstroms)
 Number     Number       Type             X           Y           Z
 ---------------------------------------------------------------------
      1         14           0       -0.047295    0.000000   -0.076063
      2          1           0        0.717028    1.240278   -0.347111
      3          1           0        0.717028   -1.240278   -0.347111
      4          1           0       -0.668409    0.000000    1.318558
      5          1           0        0.547236    0.000000    1.487160
 ---------------------------------------------------------------------
                    Distance matrix (angstroms):
                    1          2          3          4          5
     1  Si   0.000000
     2  H    1.481872   0.000000
     3  H    1.481872   2.480555   0.000000
     4  H    1.526680   2.496433   2.496433   0.000000
     5  H    1.672463   2.220735   2.220735   1.227281   0.000000
 Symmetry turned off by external request.
 Stoichiometry    H4Si
 Framework group  CS[SG(H2Si),X(H2)]
 Deg. of freedom     6
 Full point group                 CS      NOp   2
 Rotational constants (GHZ):    103.8251231     81.0313657     66.7560388
 Standard basis: 3-21G (6D, 7F)
 Integral buffers will be    262144 words long.
 Raffenetti 1 integral format.
 Two-electron integral symmetry is turned off.
    21 basis functions,    39 primitive gaussians,    21 cartesian basis functions
     9 alpha electrons        9 beta electrons
       nuclear repulsion energy        20.8262045474 Hartrees.
 NAtoms=    5 NActive=    5 NUniq=    5 SFac= 7.50D-01 NAtFMM=   80 NAOKFM=F Big=F
 One-electron integrals computed using PRISM.
 NBasis=    21 RedAO= T  NBF=    21
 NBsUse=    21 1.00D-06 NBFU=    21
 Initial guess read from the read-write file.
 B after Tr=     0.000000    0.000000    0.000000
         Rot=    1.000000    0.000000    0.000000    0.000000 Ang=   0.00 deg.
 Harris functional with IExCor=  205 diagonalized for initial guess.
 ExpMin= 9.33D-02 ExpMax= 9.11D+02 ExpMxC= 9.11D+02 IAcc=2 IRadAn=         0 AccDes= 0.00D+00
 HarFok:  IExCor=  205 AccDes= 0.00D+00 IRadAn=         0 IDoV= 1
 ScaDFX=  1.000000  1.000000  1.000000  1.000000
 FoFCou: FMM=F IPFlag=           0 FMFlag=      100000 FMFlg1=           0
         NFxFlg=           0 DoJE=T BraDBF=F KetDBF=T FulRan=T
         Omega=  0.000000  0.000000  1.000000  0.000000  0.000000 ICntrl=     500 IOpCl=  0
         NMat0=    1 NMatS0=    1 NMatT0=    0 NMatD0=    1 NMtDS0=    0 NMtDT0=    0
         I1Cent=           4 NGrid=           0.
 Symmetry not used in FoFCou.
 Requested convergence on RMS density matrix=1.00D-08 within 128 cycles.
 Requested convergence on MAX density matrix=1.00D-06.
 Requested convergence on             energy=1.00D-06.
 No special actions if energy rises.
 Keep R1 ints in memory in canonical form, NReq=846515.
 SCF Done:  E(RHF) =  -289.567305499     A.U. after    9 cycles
             Convg  =    0.9881D-08             -V/T =  2.0006
 Range of M.O.s used for correlation:     1    21
 NBasis=    21 NAE=     9 NBE=     9 NFC=     0 NFV=     0
 NROrb=     21 NOA=     9 NOB=     9 NVA=    12 NVB=    12
 Symmetrizing basis deriv contribution to polar:
 IMax=3 JMax=2 DiffMx= 0.00D+00
 Calling FoFJK, ICntrl=      2147 FMM=F ISym2X=0 I1Cent= 0 IOpClX= 0 NMat=1 NMatS=1 NMatT=0.
 -------------------------------------------------------------------
 Center     Atomic                   Forces (Hartrees/Bohr)
 Number     Number              X              Y              Z
 -------------------------------------------------------------------
      1       14           0.011638716    0.000000000    0.021207382
      2        1          -0.003450362    0.000965821   -0.003465325
      3        1          -0.003450362   -0.000965821   -0.003465325
      4        1          -0.014369331    0.000000000   -0.008778694
      5        1           0.009631338    0.000000000   -0.005498037
 -------------------------------------------------------------------
 Cartesian Forces:  Max     0.021207382 RMS     0.008332425
 IRC-IRC-IRC-IRC-IRC-IRC-IRC-IRC-IRC-IRC-IRC-IRC-IRC-IRC-IRC-IRC-IRC-IRC
 Pt  2 Step number   1 out of a maximum of  50
 CORRECTOR INTEGRATION CONVERGENCE:
   Recorrection delta-x convergence threshold:    0.010000
   Delta-x Convergence Met
 Point Number:   2          Path Number:   1
   CHANGE IN THE REACTION COORDINATE =    0.10247
   NET REACTION COORDINATE UP TO THIS POINT =    0.20498
  # OF POINTS ALONG THE PATH =   2
  # OF STEPS =   1

 Calculating another point on the path.
 IRC-IRC-IRC-IRC-IRC-IRC-IRC-IRC-IRC-IRC-IRC-IRC-IRC-IRC-IRC-IRC-IRC-IRC
                          Input orientation:                          
 ---------------------------------------------------------------------
 Center     Atomic      Atomic             Coordinates (Angstroms)
 Number     Number       Type             X           Y           Z
 ---------------------------------------------------------------------
      1         14           0       -0.046249    0.000000   -0.074163
      2          1           0        0.708454    1.242662   -0.355824
      3          1           0        0.708454   -1.242662   -0.355824
      4          1           0       -0.703938    0.000000    1.296863
      5          1           0        0.570875    0.000000    1.473530
 ---------------------------------------------------------------------
                    Distance matrix (angstroms):
                    1          2          3          4          5
     1  Si   0.000000
     2  H    1.480918   0.000000
     3  H    1.480918   2.485323   0.000000
     4  H    1.520614   2.504083   2.504083   0.000000
     5  H    1.666192   2.215778   2.215778   1.286996   0.000000
 Symmetry turned off by external request.
 Stoichiometry    H4Si
 Framework group  CS[SG(H2Si),X(H2)]
 Deg. of freedom     6
 Full point group                 CS      NOp   2
 Rotational constants (GHZ):    102.7693835     81.6214742     67.3901322
 Standard basis: 3-21G (6D, 7F)
 Integral buffers will be    262144 words long.
 Raffenetti 1 integral format.
 Two-electron integral symmetry is turned off.
    21 basis functions,    39 primitive gaussians,    21 cartesian basis functions
     9 alpha electrons        9 beta electrons
       nuclear repulsion energy        20.8480338806 Hartrees.
 NAtoms=    5 NActive=    5 NUniq=    5 SFac= 7.50D-01 NAtFMM=   80 NAOKFM=F Big=F
 One-electron integrals computed using PRISM.
 NBasis=    21 RedAO= T  NBF=    21
 NBsUse=    21 1.00D-06 NBFU=    21
 Initial guess read from the read-write file.
 B after Tr=     0.000000    0.000000    0.000000
         Rot=    1.000000    0.000000    0.000000    0.000000 Ang=   0.00 deg.
 Harris functional with IExCor=  205 diagonalized for initial guess.
 ExpMin= 9.33D-02 ExpMax= 9.11D+02 ExpMxC= 9.11D+02 IAcc=2 IRadAn=         0 AccDes= 0.00D+00
 HarFok:  IExCor=  205 AccDes= 0.00D+00 IRadAn=         0 IDoV= 1
 ScaDFX=  1.000000  1.000000  1.000000  1.000000
 FoFCou: FMM=F IPFlag=           0 FMFlag=      100000 FMFlg1=           0
         NFxFlg=           0 DoJE=T BraDBF=F KetDBF=T FulRan=T
         Omega=  0.000000  0.000000  1.000000  0.000000  0.000000 ICntrl=     500 IOpCl=  0
         NMat0=    1 NMatS0=    1 NMatT0=    0 NMatD0=    1 NMtDS0=    0 NMtDT0=    0
         I1Cent=           4 NGrid=           0.
 Symmetry not used in FoFCou.
 Requested convergence on RMS density matrix=1.00D-08 within 128 cycles.
 Requested convergence on MAX density matrix=1.00D-06.
 Requested convergence on             energy=1.00D-06.
 No special actions if energy rises.
 Keep R1 ints in memory in canonical form, NReq=846515.
 SCF Done:  E(RHF) =  -289.570016679     A.U. after   10 cycles
             Convg  =    0.8858D-09             -V/T =  2.0006
 Range of M.O.s used for correlation:     1    21
 NBasis=    21 NAE=     9 NBE=     9 NFC=     0 NFV=     0
 NROrb=     21 NOA=     9 NOB=     9 NVA=    12 NVB=    12
 Symmetrizing basis deriv contribution to polar:
 IMax=3 JMax=2 DiffMx= 0.00D+00
 Calling FoFJK, ICntrl=      2147 FMM=F ISym2X=0 I1Cent= 0 IOpClX= 0 NMat=1 NMatS=1 NMatT=0.
 -------------------------------------------------------------------
 Center     Atomic                   Forces (Hartrees/Bohr)
 Number     Number              X              Y              Z
 -------------------------------------------------------------------
      1       14           0.016976746    0.000000000    0.030832273
      2        1          -0.005003013    0.001377888   -0.005131260
      3        1          -0.005003013   -0.001377888   -0.005131260
      4        1          -0.020278812    0.000000000   -0.012591345
      5        1           0.013308093    0.000000000   -0.007978407
 -------------------------------------------------------------------
 Cartesian Forces:  Max     0.030832273 RMS     0.011988574
 IRC-IRC-IRC-IRC-IRC-IRC-IRC-IRC-IRC-IRC-IRC-IRC-IRC-IRC-IRC-IRC-IRC-IRC
 Pt  3 Step number   1 out of a maximum of  50
 CORRECTOR INTEGRATION CONVERGENCE:
   Recorrection delta-x convergence threshold:    0.010000
   Delta-x Convergence Met
 Point Number:   3          Path Number:   1
   CHANGE IN THE REACTION COORDINATE =    0.10248
   NET REACTION COORDINATE UP TO THIS POINT =    0.30746
  # OF POINTS ALONG THE PATH =   3
  # OF STEPS =   1

 Calculating another point on the path.
 IRC-IRC-IRC-IRC-IRC-IRC-IRC-IRC-IRC-IRC-IRC-IRC-IRC-IRC-IRC-IRC-IRC-IRC
                          Input orientation:                          
 ---------------------------------------------------------------------
 Center     Atomic      Atomic             Coordinates (Angstroms)
 Number     Number       Type             X           Y           Z
 ---------------------------------------------------------------------
      1         14           0       -0.045166    0.000000   -0.072207
      2          1           0        0.699627    1.245081   -0.364971
      3          1           0        0.699627   -1.245081   -0.364971
      4          1           0       -0.739197    0.000000    1.274879
      5          1           0        0.593729    0.000000    1.459512
 ---------------------------------------------------------------------
                    Distance matrix (angstroms):
                    1          2          3          4          5
     1  Si   0.000000
     2  H    1.480085   0.000000
     3  H    1.480085   2.490162   0.000000
     4  H    1.515361   2.511881   2.511881   0.000000
     5  H    1.659624   2.211375   2.211375   1.345652   0.000000
 Symmetry turned off by external request.
 Stoichiometry    H4Si
 Framework group  CS[SG(H2Si),X(H2)]
 Deg. of freedom     6
 Full point group                 CS      NOp   2
 Rotational constants (GHZ):    101.7209419     82.1903505     68.0184976
 Standard basis: 3-21G (6D, 7F)
 Integral buffers will be    262144 words long.
 Raffenetti 1 integral format.
 Two-electron integral symmetry is turned off.
    21 basis functions,    39 primitive gaussians,    21 cartesian basis functions
     9 alpha electrons        9 beta electrons
       nuclear repulsion energy        20.8694497766 Hartrees.
 NAtoms=    5 NActive=    5 NUniq=    5 SFac= 7.50D-01 NAtFMM=   80 NAOKFM=F Big=F
 One-electron integrals computed using PRISM.
 NBasis=    21 RedAO= T  NBF=    21
 NBsUse=    21 1.00D-06 NBFU=    21
 Initial guess read from the read-write file.
 B after Tr=     0.000000    0.000000    0.000000
         Rot=    1.000000    0.000000    0.000000    0.000000 Ang=   0.00 deg.
 Harris functional with IExCor=  205 diagonalized for initial guess.
 ExpMin= 9.33D-02 ExpMax= 9.11D+02 ExpMxC= 9.11D+02 IAcc=2 IRadAn=         0 AccDes= 0.00D+00
 HarFok:  IExCor=  205 AccDes= 0.00D+00 IRadAn=         0 IDoV= 1
 ScaDFX=  1.000000  1.000000  1.000000  1.000000
 FoFCou: FMM=F IPFlag=           0 FMFlag=      100000 FMFlg1=           0
         NFxFlg=           0 DoJE=T BraDBF=F KetDBF=T FulRan=T
         Omega=  0.000000  0.000000  1.000000  0.000000  0.000000 ICntrl=     500 IOpCl=  0
         NMat0=    1 NMatS0=    1 NMatT0=    0 NMatD0=    1 NMtDS0=    0 NMtDT0=    0
         I1Cent=           4 NGrid=           0.
 Symmetry not used in FoFCou.
 Requested convergence on RMS density matrix=1.00D-08 within 128 cycles.
 Requested convergence on MAX density matrix=1.00D-06.
 Requested convergence on             energy=1.00D-06.
 No special actions if energy rises.
 Keep R1 ints in memory in canonical form, NReq=846515.
 SCF Done:  E(RHF) =  -289.573583357     A.U. after    9 cycles
             Convg  =    0.8649D-08             -V/T =  2.0006
 Range of M.O.s used for correlation:     1    21
 NBasis=    21 NAE=     9 NBE=     9 NFC=     0 NFV=     0
 NROrb=     21 NOA=     9 NOB=     9 NVA=    12 NVB=    12
 Symmetrizing basis deriv contribution to polar:
 IMax=3 JMax=2 DiffMx= 0.00D+00
 Calling FoFJK, ICntrl=      2147 FMM=F ISym2X=0 I1Cent= 0 IOpClX= 0 NMat=1 NMatS=1 NMatT=0.
 -------------------------------------------------------------------
 Center     Atomic                   Forces (Hartrees/Bohr)
 Number     Number              X              Y              Z
 -------------------------------------------------------------------
      1       14           0.021887936    0.000000000    0.039448985
      2        1          -0.006421800    0.001733964   -0.006709804
      3        1          -0.006421800   -0.001733964   -0.006709804
      4        1          -0.025031443    0.000000000   -0.015869788
      5        1           0.015987107    0.000000000   -0.010159588
 -------------------------------------------------------------------
 Cartesian Forces:  Max     0.039448985 RMS     0.015168097
 IRC-IRC-IRC-IRC-IRC-IRC-IRC-IRC-IRC-IRC-IRC-IRC-IRC-IRC-IRC-IRC-IRC-IRC
 Pt  4 Step number   1 out of a maximum of  50
 CORRECTOR INTEGRATION CONVERGENCE:
   Recorrection delta-x convergence threshold:    0.010000
   Delta-x Convergence Met
 Point Number:   4          Path Number:   1
   CHANGE IN THE REACTION COORDINATE =    0.10248
   NET REACTION COORDINATE UP TO THIS POINT =    0.40994
  # OF POINTS ALONG THE PATH =   4
  # OF STEPS =   1

 Calculating another point on the path.
 IRC-IRC-IRC-IRC-IRC-IRC-IRC-IRC-IRC-IRC-IRC-IRC-IRC-IRC-IRC-IRC-IRC-IRC
                          Input orientation:                          
 ---------------------------------------------------------------------
 Center     Atomic      Atomic             Coordinates (Angstroms)
 Number     Number       Type             X           Y           Z
 ---------------------------------------------------------------------
      1         14           0       -0.044040    0.000000   -0.070191
      2          1           0        0.690484    1.247532   -0.374613
      3          1           0        0.690484   -1.247532   -0.374613
      4          1           0       -0.774114    0.000000    1.252561
      5          1           0        0.615689    0.000000    1.445146
 ---------------------------------------------------------------------
                    Distance matrix (angstroms):
                    1          2          3          4          5
     1  Si   0.000000
     2  H    1.479369   0.000000
     3  H    1.479369   2.495064   0.000000
     4  H    1.510854   2.519738   2.519738   0.000000
     5  H    1.652722   2.207590   2.207590   1.403083   0.000000
 Symmetry turned off by external request.
 Stoichiometry    H4Si
 Framework group  CS[SG(H2Si),X(H2)]
 Deg. of freedom     6
 Full point group                 CS      NOp   2
 Rotational constants (GHZ):    100.6955958     82.7416151     68.6367578
 Standard basis: 3-21G (6D, 7F)
 Integral buffers will be    262144 words long.
 Raffenetti 1 integral format.
 Two-electron integral symmetry is turned off.
    21 basis functions,    39 primitive gaussians,    21 cartesian basis functions
     9 alpha electrons        9 beta electrons
       nuclear repulsion energy        20.8905112490 Hartrees.
 NAtoms=    5 NActive=    5 NUniq=    5 SFac= 7.50D-01 NAtFMM=   80 NAOKFM=F Big=F
 One-electron integrals computed using PRISM.
 NBasis=    21 RedAO= T  NBF=    21
 NBsUse=    21 1.00D-06 NBFU=    21
 Initial guess read from the read-write file.
 B after Tr=     0.000000    0.000000    0.000000
         Rot=    1.000000    0.000000    0.000000    0.000000 Ang=   0.00 deg.
 Harris functional with IExCor=  205 diagonalized for initial guess.
 ExpMin= 9.33D-02 ExpMax= 9.11D+02 ExpMxC= 9.11D+02 IAcc=2 IRadAn=         0 AccDes= 0.00D+00
 HarFok:  IExCor=  205 AccDes= 0.00D+00 IRadAn=         0 IDoV= 1
 ScaDFX=  1.000000  1.000000  1.000000  1.000000
 FoFCou: FMM=F IPFlag=           0 FMFlag=      100000 FMFlg1=           0
         NFxFlg=           0 DoJE=T BraDBF=F KetDBF=T FulRan=T
         Omega=  0.000000  0.000000  1.000000  0.000000  0.000000 ICntrl=     500 IOpCl=  0
         NMat0=    1 NMatS0=    1 NMatT0=    0 NMatD0=    1 NMtDS0=    0 NMtDT0=    0
         I1Cent=           4 NGrid=           0.
 Symmetry not used in FoFCou.
 Requested convergence on RMS density matrix=1.00D-08 within 128 cycles.
 Requested convergence on MAX density matrix=1.00D-06.
 Requested convergence on             energy=1.00D-06.
 No special actions if energy rises.
 Keep R1 ints in memory in canonical form, NReq=846515.
 SCF Done:  E(RHF) =  -289.577843029     A.U. after    9 cycles
             Convg  =    0.4833D-08             -V/T =  2.0006
 Range of M.O.s used for correlation:     1    21
 NBasis=    21 NAE=     9 NBE=     9 NFC=     0 NFV=     0
 NROrb=     21 NOA=     9 NOB=     9 NVA=    12 NVB=    12
 Symmetrizing basis deriv contribution to polar:
 IMax=3 JMax=2 DiffMx= 0.00D+00
 Calling FoFJK, ICntrl=      2147 FMM=F ISym2X=0 I1Cent= 0 IOpClX= 0 NMat=1 NMatS=1 NMatT=0.
 -------------------------------------------------------------------
 Center     Atomic                   Forces (Hartrees/Bohr)
 Number     Number              X              Y              Z
 -------------------------------------------------------------------
      1       14           0.026311294    0.000000000    0.046995041
      2        1          -0.007700538    0.002024747   -0.008180497
      3        1          -0.007700538   -0.002024747   -0.008180497
      4        1          -0.028619327    0.000000000   -0.018632232
      5        1           0.017709108    0.000000000   -0.012001815
 -------------------------------------------------------------------
 Cartesian Forces:  Max     0.046995041 RMS     0.017861200
 IRC-IRC-IRC-IRC-IRC-IRC-IRC-IRC-IRC-IRC-IRC-IRC-IRC-IRC-IRC-IRC-IRC-IRC
 Pt  5 Step number   1 out of a maximum of  50
 CORRECTOR INTEGRATION CONVERGENCE:
   Recorrection delta-x convergence threshold:    0.010000
   Delta-x Convergence Met
 Point Number:   5          Path Number:   1
   CHANGE IN THE REACTION COORDINATE =    0.10248
   NET REACTION COORDINATE UP TO THIS POINT =    0.51242
  # OF POINTS ALONG THE PATH =   5
  # OF STEPS =   1

 Calculating another point on the path.
 IRC-IRC-IRC-IRC-IRC-IRC-IRC-IRC-IRC-IRC-IRC-IRC-IRC-IRC-IRC-IRC-IRC-IRC
                          Input orientation:                          
 ---------------------------------------------------------------------
 Center     Atomic      Atomic             Coordinates (Angstroms)
 Number     Number       Type             X           Y           Z
 ---------------------------------------------------------------------
      1         14           0       -0.042868    0.000000   -0.068111
      2          1           0        0.680977    1.250005   -0.384799
      3          1           0        0.680977   -1.250005   -0.384799
      4          1           0       -0.808603    0.000000    1.229852
      5          1           0        0.636659    0.000000    1.430471
 ---------------------------------------------------------------------
                    Distance matrix (angstroms):
                    1          2          3          4          5
     1  Si   0.000000
     2  H    1.478768   0.000000
     3  H    1.478768   2.500010   0.000000
     4  H    1.507003   2.527540   2.527540   0.000000
     5  H    1.645449   2.204468   2.204468   1.459120   0.000000
 Symmetry turned off by external request.
 Stoichiometry    H4Si
 Framework group  CS[SG(H2Si),X(H2)]
 Deg. of freedom     6
 Full point group                 CS      NOp   2
 Rotational constants (GHZ):     99.7080570     83.2795466     69.2410504
 Standard basis: 3-21G (6D, 7F)
 Integral buffers will be    262144 words long.
 Raffenetti 1 integral format.
 Two-electron integral symmetry is turned off.
    21 basis functions,    39 primitive gaussians,    21 cartesian basis functions
     9 alpha electrons        9 beta electrons
       nuclear repulsion energy        20.9114057330 Hartrees.
 NAtoms=    5 NActive=    5 NUniq=    5 SFac= 7.50D-01 NAtFMM=   80 NAOKFM=F Big=F
 One-electron integrals computed using PRISM.
 NBasis=    21 RedAO= T  NBF=    21
 NBsUse=    21 1.00D-06 NBFU=    21
 Initial guess read from the read-write file.
 B after Tr=     0.000000    0.000000    0.000000
         Rot=    1.000000    0.000000    0.000000    0.000000 Ang=   0.00 deg.
 Harris functional with IExCor=  205 diagonalized for initial guess.
 ExpMin= 9.33D-02 ExpMax= 9.11D+02 ExpMxC= 9.11D+02 IAcc=2 IRadAn=         0 AccDes= 0.00D+00
 HarFok:  IExCor=  205 AccDes= 0.00D+00 IRadAn=         0 IDoV= 1
 ScaDFX=  1.000000  1.000000  1.000000  1.000000
 FoFCou: FMM=F IPFlag=           0 FMFlag=      100000 FMFlg1=           0
         NFxFlg=           0 DoJE=T BraDBF=F KetDBF=T FulRan=T
         Omega=  0.000000  0.000000  1.000000  0.000000  0.000000 ICntrl=     500 IOpCl=  0
         NMat0=    1 NMatS0=    1 NMatT0=    0 NMatD0=    1 NMtDS0=    0 NMtDT0=    0
         I1Cent=           4 NGrid=           0.
 Symmetry not used in FoFCou.
 Requested convergence on RMS density matrix=1.00D-08 within 128 cycles.
 Requested convergence on MAX density matrix=1.00D-06.
 Requested convergence on             energy=1.00D-06.
 No special actions if energy rises.
 Keep R1 ints in memory in canonical form, NReq=846515.
 SCF Done:  E(RHF) =  -289.582641714     A.U. after    9 cycles
             Convg  =    0.2647D-08             -V/T =  2.0006
 Range of M.O.s used for correlation:     1    21
 NBasis=    21 NAE=     9 NBE=     9 NFC=     0 NFV=     0
 NROrb=     21 NOA=     9 NOB=     9 NVA=    12 NVB=    12
 Symmetrizing basis deriv contribution to polar:
 IMax=3 JMax=2 DiffMx= 0.00D+00
 Calling FoFJK, ICntrl=      2147 FMM=F ISym2X=0 I1Cent= 0 IOpClX= 0 NMat=1 NMatS=1 NMatT=0.
 -------------------------------------------------------------------
 Center     Atomic                   Forces (Hartrees/Bohr)
 Number     Number              X              Y              Z
 -------------------------------------------------------------------
      1       14           0.030214741    0.000000000    0.053454276
      2        1          -0.008840124    0.002243898   -0.009529518
      3        1          -0.008840124   -0.002243898   -0.009529518
      4        1          -0.031132870    0.000000000   -0.020916119
      5        1           0.018598378    0.000000000   -0.013479122
 -------------------------------------------------------------------
 Cartesian Forces:  Max     0.053454276 RMS     0.020087484
 IRC-IRC-IRC-IRC-IRC-IRC-IRC-IRC-IRC-IRC-IRC-IRC-IRC-IRC-IRC-IRC-IRC-IRC
 Pt  6 Step number   1 out of a maximum of  50
 CORRECTOR INTEGRATION CONVERGENCE:
   Recorrection delta-x convergence threshold:    0.010000
   Delta-x Convergence Met
 Point Number:   6          Path Number:   1
   CHANGE IN THE REACTION COORDINATE =    0.10248
   NET REACTION COORDINATE UP TO THIS POINT =    0.61490
  # OF POINTS ALONG THE PATH =   6
  # OF STEPS =   1

 Calculating another point on the path.
 IRC-IRC-IRC-IRC-IRC-IRC-IRC-IRC-IRC-IRC-IRC-IRC-IRC-IRC-IRC-IRC-IRC-IRC
                          Input orientation:                          
 ---------------------------------------------------------------------
 Center     Atomic      Atomic             Coordinates (Angstroms)
 Number     Number       Type             X           Y           Z
 ---------------------------------------------------------------------
      1         14           0       -0.041648    0.000000   -0.065964
      2          1           0        0.671067    1.252483   -0.395562
      3          1           0        0.671067   -1.252483   -0.395562
      4          1           0       -0.842581    0.000000    1.206706
      5          1           0        0.656570    0.000000    1.415552
 ---------------------------------------------------------------------
                    Distance matrix (angstroms):
                    1          2          3          4          5
     1  Si   0.000000
     2  H    1.478280   0.000000
     3  H    1.478280   2.504967   0.000000
     4  H    1.503723   2.535174   2.535174   0.000000
     5  H    1.637802   2.202058   2.202058   1.513628   0.000000
 Symmetry turned off by external request.
 Stoichiometry    H4Si
 Framework group  CS[SG(H2Si),X(H2)]
 Deg. of freedom     6
 Full point group                 CS      NOp   2
 Rotational constants (GHZ):     98.7708790     83.8064108     69.8269480
 Standard basis: 3-21G (6D, 7F)
 Integral buffers will be    262144 words long.
 Raffenetti 1 integral format.
 Two-electron integral symmetry is turned off.
    21 basis functions,    39 primitive gaussians,    21 cartesian basis functions
     9 alpha electrons        9 beta electrons
       nuclear repulsion energy        20.9322444045 Hartrees.
 NAtoms=    5 NActive=    5 NUniq=    5 SFac= 7.50D-01 NAtFMM=   80 NAOKFM=F Big=F
 One-electron integrals computed using PRISM.
 NBasis=    21 RedAO= T  NBF=    21
 NBsUse=    21 1.00D-06 NBFU=    21
 Initial guess read from the read-write file.
 B after Tr=     0.000000    0.000000    0.000000
         Rot=    1.000000    0.000000    0.000000    0.000000 Ang=   0.00 deg.
 Harris functional with IExCor=  205 diagonalized for initial guess.
 ExpMin= 9.33D-02 ExpMax= 9.11D+02 ExpMxC= 9.11D+02 IAcc=2 IRadAn=         0 AccDes= 0.00D+00
 HarFok:  IExCor=  205 AccDes= 0.00D+00 IRadAn=         0 IDoV= 1
 ScaDFX=  1.000000  1.000000  1.000000  1.000000
 FoFCou: FMM=F IPFlag=           0 FMFlag=      100000 FMFlg1=           0
         NFxFlg=           0 DoJE=T BraDBF=F KetDBF=T FulRan=T
         Omega=  0.000000  0.000000  1.000000  0.000000  0.000000 ICntrl=     500 IOpCl=  0
         NMat0=    1 NMatS0=    1 NMatT0=    0 NMatD0=    1 NMtDS0=    0 NMtDT0=    0
         I1Cent=           4 NGrid=           0.
 Symmetry not used in FoFCou.
 Requested convergence on RMS density matrix=1.00D-08 within 128 cycles.
 Requested convergence on MAX density matrix=1.00D-06.
 Requested convergence on             energy=1.00D-06.
 No special actions if energy rises.
 Keep R1 ints in memory in canonical form, NReq=846515.
 SCF Done:  E(RHF) =  -289.587842014     A.U. after    9 cycles
             Convg  =    0.2036D-08             -V/T =  2.0006
 Range of M.O.s used for correlation:     1    21
 NBasis=    21 NAE=     9 NBE=     9 NFC=     0 NFV=     0
 NROrb=     21 NOA=     9 NOB=     9 NVA=    12 NVB=    12
 Symmetrizing basis deriv contribution to polar:
 IMax=3 JMax=2 DiffMx= 0.00D+00
 Calling FoFJK, ICntrl=      2147 FMM=F ISym2X=0 I1Cent= 0 IOpClX= 0 NMat=1 NMatS=1 NMatT=0.
 -------------------------------------------------------------------
 Center     Atomic                   Forces (Hartrees/Bohr)
 Number     Number              X              Y              Z
 -------------------------------------------------------------------
      1       14           0.033584885    0.000000000    0.058847893
      2        1          -0.009845083    0.002388345   -0.010747487
      3        1          -0.009845083   -0.002388345   -0.010747487
      4        1          -0.032703203    0.000000000   -0.022769400
      5        1           0.018808483    0.000000000   -0.014583519
 -------------------------------------------------------------------
 Cartesian Forces:  Max     0.058847893 RMS     0.021881010
 IRC-IRC-IRC-IRC-IRC-IRC-IRC-IRC-IRC-IRC-IRC-IRC-IRC-IRC-IRC-IRC-IRC-IRC
 Pt  7 Step number   1 out of a maximum of  50
 CORRECTOR INTEGRATION CONVERGENCE:
   Recorrection delta-x convergence threshold:    0.010000
   Delta-x Convergence Met
 Point Number:   7          Path Number:   1
   CHANGE IN THE REACTION COORDINATE =    0.10248
   NET REACTION COORDINATE UP TO THIS POINT =    0.71738
  # OF POINTS ALONG THE PATH =   7
  # OF STEPS =   1

 Calculating another point on the path.
 IRC-IRC-IRC-IRC-IRC-IRC-IRC-IRC-IRC-IRC-IRC-IRC-IRC-IRC-IRC-IRC-IRC-IRC
                          Input orientation:                          
 ---------------------------------------------------------------------
 Center     Atomic      Atomic             Coordinates (Angstroms)
 Number     Number       Type             X           Y           Z
 ---------------------------------------------------------------------
      1         14           0       -0.040378    0.000000   -0.063751
      2          1           0        0.660724    1.254943   -0.406929
      3          1           0        0.660724   -1.254943   -0.406929
      4          1           0       -0.875967    0.000000    1.183086
      5          1           0        0.675381    0.000000    1.400473
 ---------------------------------------------------------------------
                    Distance matrix (angstroms):
                    1          2          3          4          5
     1  Si   0.000000
     2  H    1.477903   0.000000
     3  H    1.477903   2.509887   0.000000
     4  H    1.500937   2.542528   2.542528   0.000000
     5  H    1.629805   2.200408   2.200408   1.566505   0.000000
 Symmetry turned off by external request.
 Stoichiometry    H4Si
 Framework group  CS[SG(H2Si),X(H2)]
 Deg. of freedom     6
 Full point group                 CS      NOp   2
 Rotational constants (GHZ):     97.8941951     84.3228209     70.3899163
 Standard basis: 3-21G (6D, 7F)
 Integral buffers will be    262144 words long.
 Raffenetti 1 integral format.
 Two-electron integral symmetry is turned off.
    21 basis functions,    39 primitive gaussians,    21 cartesian basis functions
     9 alpha electrons        9 beta electrons
       nuclear repulsion energy        20.9530799619 Hartrees.
 NAtoms=    5 NActive=    5 NUniq=    5 SFac= 7.50D-01 NAtFMM=   80 NAOKFM=F Big=F
 One-electron integrals computed using PRISM.
 NBasis=    21 RedAO= T  NBF=    21
 NBsUse=    21 1.00D-06 NBFU=    21
 Initial guess read from the read-write file.
 B after Tr=     0.000000    0.000000    0.000000
         Rot=    1.000000    0.000000    0.000000    0.000000 Ang=   0.00 deg.
 Harris functional with IExCor=  205 diagonalized for initial guess.
 ExpMin= 9.33D-02 ExpMax= 9.11D+02 ExpMxC= 9.11D+02 IAcc=2 IRadAn=         0 AccDes= 0.00D+00
 HarFok:  IExCor=  205 AccDes= 0.00D+00 IRadAn=         0 IDoV= 1
 ScaDFX=  1.000000  1.000000  1.000000  1.000000
 FoFCou: FMM=F IPFlag=           0 FMFlag=      100000 FMFlg1=           0
         NFxFlg=           0 DoJE=T BraDBF=F KetDBF=T FulRan=T
         Omega=  0.000000  0.000000  1.000000  0.000000  0.000000 ICntrl=     500 IOpCl=  0
         NMat0=    1 NMatS0=    1 NMatT0=    0 NMatD0=    1 NMtDS0=    0 NMtDT0=    0
         I1Cent=           4 NGrid=           0.
 Symmetry not used in FoFCou.
 Requested convergence on RMS density matrix=1.00D-08 within 128 cycles.
 Requested convergence on MAX density matrix=1.00D-06.
 Requested convergence on             energy=1.00D-06.
 No special actions if energy rises.
 Keep R1 ints in memory in canonical form, NReq=846515.
 SCF Done:  E(RHF) =  -289.593325648     A.U. after    9 cycles
             Convg  =    0.1686D-08             -V/T =  2.0006
 Range of M.O.s used for correlation:     1    21
 NBasis=    21 NAE=     9 NBE=     9 NFC=     0 NFV=     0
 NROrb=     21 NOA=     9 NOB=     9 NVA=    12 NVB=    12
 Symmetrizing basis deriv contribution to polar:
 IMax=3 JMax=2 DiffMx= 0.00D+00
 Calling FoFJK, ICntrl=      2147 FMM=F ISym2X=0 I1Cent= 0 IOpClX= 0 NMat=1 NMatS=1 NMatT=0.
 -------------------------------------------------------------------
 Center     Atomic                   Forces (Hartrees/Bohr)
 Number     Number              X              Y              Z
 -------------------------------------------------------------------
      1       14           0.036421770    0.000000000    0.063217645
      2        1          -0.010721534    0.002457624   -0.011827884
      3        1          -0.010721534   -0.002457624   -0.011827884
      4        1          -0.033472694    0.000000000   -0.024240193
      5        1           0.018493992    0.000000000   -0.015321684
 -------------------------------------------------------------------
 Cartesian Forces:  Max     0.063217645 RMS     0.023280301
 IRC-IRC-IRC-IRC-IRC-IRC-IRC-IRC-IRC-IRC-IRC-IRC-IRC-IRC-IRC-IRC-IRC-IRC
 Pt  8 Step number   1 out of a maximum of  50
 CORRECTOR INTEGRATION CONVERGENCE:
   Recorrection delta-x convergence threshold:    0.010000
   Delta-x Convergence Met
 Point Number:   8          Path Number:   1
   CHANGE IN THE REACTION COORDINATE =    0.10248
   NET REACTION COORDINATE UP TO THIS POINT =    0.81986
  # OF POINTS ALONG THE PATH =   8
  # OF STEPS =   1

 Calculating another point on the path.
 IRC-IRC-IRC-IRC-IRC-IRC-IRC-IRC-IRC-IRC-IRC-IRC-IRC-IRC-IRC-IRC-IRC-IRC
                          Input orientation:                          
 ---------------------------------------------------------------------
 Center     Atomic      Atomic             Coordinates (Angstroms)
 Number     Number       Type             X           Y           Z
 ---------------------------------------------------------------------
      1         14           0       -0.039059    0.000000   -0.061474
      2          1           0        0.649924    1.257358   -0.418911
      3          1           0        0.649924   -1.257358   -0.418911
      4          1           0       -0.908683    0.000000    1.158968
      5          1           0        0.693075    0.000000    1.385332
 ---------------------------------------------------------------------
                    Distance matrix (angstroms):
                    1          2          3          4          5
     1  Si   0.000000
     2  H    1.477635   0.000000
     3  H    1.477635   2.514715   0.000000
     4  H    1.498575   2.549492   2.549492   0.000000
     5  H    1.621502   2.199569   2.199569   1.617674   0.000000
 Symmetry turned off by external request.
 Stoichiometry    H4Si
 Framework group  CS[SG(H2Si),X(H2)]
 Deg. of freedom     6
 Full point group                 CS      NOp   2
 Rotational constants (GHZ):     97.0854589     84.8278974     70.9257289
 Standard basis: 3-21G (6D, 7F)
 Integral buffers will be    262144 words long.
 Raffenetti 1 integral format.
 Two-electron integral symmetry is turned off.
    21 basis functions,    39 primitive gaussians,    21 cartesian basis functions
     9 alpha electrons        9 beta electrons
       nuclear repulsion energy        20.9739102495 Hartrees.
 NAtoms=    5 NActive=    5 NUniq=    5 SFac= 7.50D-01 NAtFMM=   80 NAOKFM=F Big=F
 One-electron integrals computed using PRISM.
 NBasis=    21 RedAO= T  NBF=    21
 NBsUse=    21 1.00D-06 NBFU=    21
 Initial guess read from the read-write file.
 B after Tr=     0.000000    0.000000    0.000000
         Rot=    1.000000    0.000000    0.000000    0.000000 Ang=   0.00 deg.
 Harris functional with IExCor=  205 diagonalized for initial guess.
 ExpMin= 9.33D-02 ExpMax= 9.11D+02 ExpMxC= 9.11D+02 IAcc=2 IRadAn=         0 AccDes= 0.00D+00
 HarFok:  IExCor=  205 AccDes= 0.00D+00 IRadAn=         0 IDoV= 1
 ScaDFX=  1.000000  1.000000  1.000000  1.000000
 FoFCou: FMM=F IPFlag=           0 FMFlag=      100000 FMFlg1=           0
         NFxFlg=           0 DoJE=T BraDBF=F KetDBF=T FulRan=T
         Omega=  0.000000  0.000000  1.000000  0.000000  0.000000 ICntrl=     500 IOpCl=  0
         NMat0=    1 NMatS0=    1 NMatT0=    0 NMatD0=    1 NMtDS0=    0 NMtDT0=    0
         I1Cent=           4 NGrid=           0.
 Symmetry not used in FoFCou.
 Requested convergence on RMS density matrix=1.00D-08 within 128 cycles.
 Requested convergence on MAX density matrix=1.00D-06.
 Requested convergence on             energy=1.00D-06.
 No special actions if energy rises.
 Keep R1 ints in memory in canonical form, NReq=846515.
 SCF Done:  E(RHF) =  -289.598993001     A.U. after    9 cycles
             Convg  =    0.1381D-08             -V/T =  2.0006
 Range of M.O.s used for correlation:     1    21
 NBasis=    21 NAE=     9 NBE=     9 NFC=     0 NFV=     0
 NROrb=     21 NOA=     9 NOB=     9 NVA=    12 NVB=    12
 Symmetrizing basis deriv contribution to polar:
 IMax=3 JMax=2 DiffMx= 0.00D+00
 Calling FoFJK, ICntrl=      2147 FMM=F ISym2X=0 I1Cent= 0 IOpClX= 0 NMat=1 NMatS=1 NMatT=0.
 -------------------------------------------------------------------
 Center     Atomic                   Forces (Hartrees/Bohr)
 Number     Number              X              Y              Z
 -------------------------------------------------------------------
      1       14           0.038734755    0.000000000    0.066616003
      2        1          -0.011475850    0.002453403   -0.012766027
      3        1          -0.011475850   -0.002453403   -0.012766027
      4        1          -0.033579136    0.000000000   -0.025372087
      5        1           0.017796082    0.000000000   -0.015711862
 -------------------------------------------------------------------
 Cartesian Forces:  Max     0.066616003 RMS     0.024323252
 IRC-IRC-IRC-IRC-IRC-IRC-IRC-IRC-IRC-IRC-IRC-IRC-IRC-IRC-IRC-IRC-IRC-IRC
 Pt  9 Step number   1 out of a maximum of  50
 CORRECTOR INTEGRATION CONVERGENCE:
   Recorrection delta-x convergence threshold:    0.010000
   Delta-x Convergence Met
 Point Number:   9          Path Number:   1
   CHANGE IN THE REACTION COORDINATE =    0.10248
   NET REACTION COORDINATE UP TO THIS POINT =    0.92234
  # OF POINTS ALONG THE PATH =   9
  # OF STEPS =   1

 Calculating another point on the path.
 IRC-IRC-IRC-IRC-IRC-IRC-IRC-IRC-IRC-IRC-IRC-IRC-IRC-IRC-IRC-IRC-IRC-IRC
                          Input orientation:                          
 ---------------------------------------------------------------------
 Center     Atomic      Atomic             Coordinates (Angstroms)
 Number     Number       Type             X           Y           Z
 ---------------------------------------------------------------------
      1         14           0       -0.037692    0.000000   -0.059135
      2          1           0        0.638648    1.259694   -0.431514
      3          1           0        0.638648   -1.259694   -0.431514
      4          1           0       -0.940661    0.000000    1.134335
      5          1           0        0.709653    0.000000    1.370238
 ---------------------------------------------------------------------
                    Distance matrix (angstroms):
                    1          2          3          4          5
     1  Si   0.000000
     2  H    1.477474   0.000000
     3  H    1.477474   2.519388   0.000000
     4  H    1.496571   2.555960   2.555960   0.000000
     5  H    1.612957   2.199586   2.199586   1.667090   0.000000
 Symmetry turned off by external request.
 Stoichiometry    H4Si
 Framework group  CS[SG(H2Si),X(H2)]
 Deg. of freedom     6
 Full point group                 CS      NOp   2
 Rotational constants (GHZ):     96.3491961     85.3194719     71.4309584
 Standard basis: 3-21G (6D, 7F)
 Integral buffers will be    262144 words long.
 Raffenetti 1 integral format.
 Two-electron integral symmetry is turned off.
    21 basis functions,    39 primitive gaussians,    21 cartesian basis functions
     9 alpha electrons        9 beta electrons
       nuclear repulsion energy        20.9946849887 Hartrees.
 NAtoms=    5 NActive=    5 NUniq=    5 SFac= 7.50D-01 NAtFMM=   80 NAOKFM=F Big=F
 One-electron integrals computed using PRISM.
 NBasis=    21 RedAO= T  NBF=    21
 NBsUse=    21 1.00D-06 NBFU=    21
 Initial guess read from the read-write file.
 B after Tr=     0.000000    0.000000    0.000000
         Rot=    1.000000    0.000000    0.000000    0.000000 Ang=   0.00 deg.
 Harris functional with IExCor=  205 diagonalized for initial guess.
 ExpMin= 9.33D-02 ExpMax= 9.11D+02 ExpMxC= 9.11D+02 IAcc=2 IRadAn=         0 AccDes= 0.00D+00
 HarFok:  IExCor=  205 AccDes= 0.00D+00 IRadAn=         0 IDoV= 1
 ScaDFX=  1.000000  1.000000  1.000000  1.000000
 FoFCou: FMM=F IPFlag=           0 FMFlag=      100000 FMFlg1=           0
         NFxFlg=           0 DoJE=T BraDBF=F KetDBF=T FulRan=T
         Omega=  0.000000  0.000000  1.000000  0.000000  0.000000 ICntrl=     500 IOpCl=  0
         NMat0=    1 NMatS0=    1 NMatT0=    0 NMatD0=    1 NMtDS0=    0 NMtDT0=    0
         I1Cent=           4 NGrid=           0.
 Symmetry not used in FoFCou.
 Requested convergence on RMS density matrix=1.00D-08 within 128 cycles.
 Requested convergence on MAX density matrix=1.00D-06.
 Requested convergence on             energy=1.00D-06.
 No special actions if energy rises.
 Keep R1 ints in memory in canonical form, NReq=846515.
 SCF Done:  E(RHF) =  -289.604761264     A.U. after    9 cycles
             Convg  =    0.1132D-08             -V/T =  2.0006
 Range of M.O.s used for correlation:     1    21
 NBasis=    21 NAE=     9 NBE=     9 NFC=     0 NFV=     0
 NROrb=     21 NOA=     9 NOB=     9 NVA=    12 NVB=    12
 Symmetrizing basis deriv contribution to polar:
 IMax=3 JMax=2 DiffMx= 0.00D+00
 Calling FoFJK, ICntrl=      2147 FMM=F ISym2X=0 I1Cent= 0 IOpClX= 0 NMat=1 NMatS=1 NMatT=0.
 -------------------------------------------------------------------
 Center     Atomic                   Forces (Hartrees/Bohr)
 Number     Number              X              Y              Z
 -------------------------------------------------------------------
      1       14           0.040539616    0.000000000    0.069100492
      2        1          -0.012113904    0.002379067   -0.013558487
      3        1          -0.012113904   -0.002379067   -0.013558487
      4        1          -0.033148234    0.000000000   -0.026202564
      5        1           0.016836425    0.000000000   -0.015780953
 -------------------------------------------------------------------
 Cartesian Forces:  Max     0.069100492 RMS     0.025044894
 IRC-IRC-IRC-IRC-IRC-IRC-IRC-IRC-IRC-IRC-IRC-IRC-IRC-IRC-IRC-IRC-IRC-IRC
 Pt 10 Step number   1 out of a maximum of  50
 CORRECTOR INTEGRATION CONVERGENCE:
   Recorrection delta-x convergence threshold:    0.010000
   Delta-x Convergence Met
 Point Number:  10          Path Number:   1
   CHANGE IN THE REACTION COORDINATE =    0.10248
   NET REACTION COORDINATE UP TO THIS POINT =    1.02482
  # OF POINTS ALONG THE PATH =  10
  # OF STEPS =   1

 Calculating another point on the path.
 IRC-IRC-IRC-IRC-IRC-IRC-IRC-IRC-IRC-IRC-IRC-IRC-IRC-IRC-IRC-IRC-IRC-IRC
                          Input orientation:                          
 ---------------------------------------------------------------------
 Center     Atomic      Atomic             Coordinates (Angstroms)
 Number     Number       Type             X           Y           Z
 ---------------------------------------------------------------------
      1         14           0       -0.036279    0.000000   -0.056739
      2          1           0        0.626883    1.261917   -0.444731
      3          1           0        0.626883   -1.261917   -0.444731
      4          1           0       -0.971837    0.000000    1.109180
      5          1           0        0.725140    0.000000    1.355300
 ---------------------------------------------------------------------
                    Distance matrix (angstroms):
                    1          2          3          4          5
     1  Si   0.000000
     2  H    1.477415   0.000000
     3  H    1.477415   2.523834   0.000000
     4  H    1.494870   2.561831   2.561831   0.000000
     5  H    1.604249   2.200500   2.200500   1.714732   0.000000
 Symmetry turned off by external request.
 Stoichiometry    H4Si
 Framework group  CS[SG(H2Si),X(H2)]
 Deg. of freedom     6
 Full point group                 CS      NOp   2
 Rotational constants (GHZ):     95.6868107     85.7942947     71.9034695
 Standard basis: 3-21G (6D, 7F)
 Integral buffers will be    262144 words long.
 Raffenetti 1 integral format.
 Two-electron integral symmetry is turned off.
    21 basis functions,    39 primitive gaussians,    21 cartesian basis functions
     9 alpha electrons        9 beta electrons
       nuclear repulsion energy        21.0153133029 Hartrees.
 NAtoms=    5 NActive=    5 NUniq=    5 SFac= 7.50D-01 NAtFMM=   80 NAOKFM=F Big=F
 One-electron integrals computed using PRISM.
 NBasis=    21 RedAO= T  NBF=    21
 NBsUse=    21 1.00D-06 NBFU=    21
 Initial guess read from the read-write file.
 B after Tr=     0.000000    0.000000    0.000000
         Rot=    1.000000    0.000000    0.000000    0.000000 Ang=   0.00 deg.
 Harris functional with IExCor=  205 diagonalized for initial guess.
 ExpMin= 9.33D-02 ExpMax= 9.11D+02 ExpMxC= 9.11D+02 IAcc=2 IRadAn=         0 AccDes= 0.00D+00
 HarFok:  IExCor=  205 AccDes= 0.00D+00 IRadAn=         0 IDoV= 1
 ScaDFX=  1.000000  1.000000  1.000000  1.000000
 FoFCou: FMM=F IPFlag=           0 FMFlag=      100000 FMFlg1=           0
         NFxFlg=           0 DoJE=T BraDBF=F KetDBF=T FulRan=T
         Omega=  0.000000  0.000000  1.000000  0.000000  0.000000 ICntrl=     500 IOpCl=  0
         NMat0=    1 NMatS0=    1 NMatT0=    0 NMatD0=    1 NMtDS0=    0 NMtDT0=    0
         I1Cent=           4 NGrid=           0.
 Symmetry not used in FoFCou.
 Requested convergence on RMS density matrix=1.00D-08 within 128 cycles.
 Requested convergence on MAX density matrix=1.00D-06.
 Requested convergence on             energy=1.00D-06.
 No special actions if energy rises.
 Keep R1 ints in memory in canonical form, NReq=846515.
 SCF Done:  E(RHF) =  -289.610562063     A.U. after    9 cycles
             Convg  =    0.9345D-09             -V/T =  2.0006
 Range of M.O.s used for correlation:     1    21
 NBasis=    21 NAE=     9 NBE=     9 NFC=     0 NFV=     0
 NROrb=     21 NOA=     9 NOB=     9 NVA=    12 NVB=    12
 Symmetrizing basis deriv contribution to polar:
 IMax=3 JMax=2 DiffMx= 0.00D+00
 Calling FoFJK, ICntrl=      2147 FMM=F ISym2X=0 I1Cent= 0 IOpClX= 0 NMat=1 NMatS=1 NMatT=0.
 -------------------------------------------------------------------
 Center     Atomic                   Forces (Hartrees/Bohr)
 Number     Number              X              Y              Z
 -------------------------------------------------------------------
      1       14           0.041856574    0.000000000    0.070730754
      2        1          -0.012640641    0.002239490   -0.014202893
      3        1          -0.012640641   -0.002239490   -0.014202893
      4        1          -0.032290822    0.000000000   -0.026762922
      5        1           0.015715530    0.000000000   -0.015562047
 -------------------------------------------------------------------
 Cartesian Forces:  Max     0.070730754 RMS     0.025476741
 IRC-IRC-IRC-IRC-IRC-IRC-IRC-IRC-IRC-IRC-IRC-IRC-IRC-IRC-IRC-IRC-IRC-IRC
 Pt 11 Step number   1 out of a maximum of  50
 CORRECTOR INTEGRATION CONVERGENCE:
   Recorrection delta-x convergence threshold:    0.010000
   Delta-x Convergence Met
 Point Number:  11          Path Number:   1
   CHANGE IN THE REACTION COORDINATE =    0.10248
   NET REACTION COORDINATE UP TO THIS POINT =    1.12729
  # OF POINTS ALONG THE PATH =  11
  # OF STEPS =   1

 Calculating another point on the path.
 IRC-IRC-IRC-IRC-IRC-IRC-IRC-IRC-IRC-IRC-IRC-IRC-IRC-IRC-IRC-IRC-IRC-IRC
                          Input orientation:                          
 ---------------------------------------------------------------------
 Center     Atomic      Atomic             Coordinates (Angstroms)
 Number     Number       Type             X           Y           Z
 ---------------------------------------------------------------------
      1         14           0       -0.034823    0.000000   -0.054290
      2          1           0        0.614619    1.263989   -0.458548
      3          1           0        0.614619   -1.263989   -0.458548
      4          1           0       -1.002156    0.000000    1.083503
      5          1           0        0.739573    0.000000    1.340633
 ---------------------------------------------------------------------
                    Distance matrix (angstroms):
                    1          2          3          4          5
     1  Si   0.000000
     2  H    1.477453   0.000000
     3  H    1.477453   2.527979   0.000000
     4  H    1.493422   2.567013   2.567013   0.000000
     5  H    1.595463   2.202348   2.202348   1.760607   0.000000
 Symmetry turned off by external request.
 Stoichiometry    H4Si
 Framework group  CS[SG(H2Si),X(H2)]
 Deg. of freedom     6
 Full point group                 CS      NOp   2
 Rotational constants (GHZ):     95.0964942     86.2482365     72.3428293
 Standard basis: 3-21G (6D, 7F)
 Integral buffers will be    262144 words long.
 Raffenetti 1 integral format.
 Two-electron integral symmetry is turned off.
    21 basis functions,    39 primitive gaussians,    21 cartesian basis functions
     9 alpha electrons        9 beta electrons
       nuclear repulsion energy        21.0356698341 Hartrees.
 NAtoms=    5 NActive=    5 NUniq=    5 SFac= 7.50D-01 NAtFMM=   80 NAOKFM=F Big=F
 One-electron integrals computed using PRISM.
 NBasis=    21 RedAO= T  NBF=    21
 NBsUse=    21 1.00D-06 NBFU=    21
 Initial guess read from the read-write file.
 B after Tr=     0.000000    0.000000    0.000000
         Rot=    1.000000    0.000000    0.000000    0.000000 Ang=   0.00 deg.
 Harris functional with IExCor=  205 diagonalized for initial guess.
 ExpMin= 9.33D-02 ExpMax= 9.11D+02 ExpMxC= 9.11D+02 IAcc=2 IRadAn=         0 AccDes= 0.00D+00
 HarFok:  IExCor=  205 AccDes= 0.00D+00 IRadAn=         0 IDoV= 1
 ScaDFX=  1.000000  1.000000  1.000000  1.000000
 FoFCou: FMM=F IPFlag=           0 FMFlag=      100000 FMFlg1=           0
         NFxFlg=           0 DoJE=T BraDBF=F KetDBF=T FulRan=T
         Omega=  0.000000  0.000000  1.000000  0.000000  0.000000 ICntrl=     500 IOpCl=  0
         NMat0=    1 NMatS0=    1 NMatT0=    0 NMatD0=    1 NMtDS0=    0 NMtDT0=    0
         I1Cent=           4 NGrid=           0.
 Symmetry not used in FoFCou.
 Requested convergence on RMS density matrix=1.00D-08 within 128 cycles.
 Requested convergence on MAX density matrix=1.00D-06.
 Requested convergence on             energy=1.00D-06.
 No special actions if energy rises.
 Keep R1 ints in memory in canonical form, NReq=846515.
 SCF Done:  E(RHF) =  -289.616339061     A.U. after    8 cycles
             Convg  =    0.9650D-08             -V/T =  2.0006
 Range of M.O.s used for correlation:     1    21
 NBasis=    21 NAE=     9 NBE=     9 NFC=     0 NFV=     0
 NROrb=     21 NOA=     9 NOB=     9 NVA=    12 NVB=    12
 Symmetrizing basis deriv contribution to polar:
 IMax=3 JMax=2 DiffMx= 0.00D+00
 Calling FoFJK, ICntrl=      2147 FMM=F ISym2X=0 I1Cent= 0 IOpClX= 0 NMat=1 NMatS=1 NMatT=0.
 -------------------------------------------------------------------
 Center     Atomic                   Forces (Hartrees/Bohr)
 Number     Number              X              Y              Z
 -------------------------------------------------------------------
      1       14           0.042708981    0.000000000    0.071567472
      2        1          -0.013059990    0.002040767   -0.014697829
      3        1          -0.013059990   -0.002040767   -0.014697829
      4        1          -0.031102273    0.000000000   -0.027079187
      5        1           0.014513272    0.000000000   -0.015092628
 -------------------------------------------------------------------
 Cartesian Forces:  Max     0.071567472 RMS     0.025646994
 IRC-IRC-IRC-IRC-IRC-IRC-IRC-IRC-IRC-IRC-IRC-IRC-IRC-IRC-IRC-IRC-IRC-IRC
 Pt 12 Step number   1 out of a maximum of  50
 CORRECTOR INTEGRATION CONVERGENCE:
   Recorrection delta-x convergence threshold:    0.010000
   Delta-x Convergence Met
 Point Number:  12          Path Number:   1
   CHANGE IN THE REACTION COORDINATE =    0.10248
   NET REACTION COORDINATE UP TO THIS POINT =    1.22977
  # OF POINTS ALONG THE PATH =  12
  # OF STEPS =   1

 Calculating another point on the path.
 IRC-IRC-IRC-IRC-IRC-IRC-IRC-IRC-IRC-IRC-IRC-IRC-IRC-IRC-IRC-IRC-IRC-IRC
                          Input orientation:                          
 ---------------------------------------------------------------------
 Center     Atomic      Atomic             Coordinates (Angstroms)
 Number     Number       Type             X           Y           Z
 ---------------------------------------------------------------------
      1         14           0       -0.033328    0.000000   -0.051795
      2          1           0        0.601850    1.265872   -0.472944
      3          1           0        0.601850   -1.265872   -0.472944
      4          1           0       -1.031572    0.000000    1.057312
      5          1           0        0.753007    0.000000    1.326344
 ---------------------------------------------------------------------
                    Distance matrix (angstroms):
                    1          2          3          4          5
     1  Si   0.000000
     2  H    1.477581   0.000000
     3  H    1.477581   2.531743   0.000000
     4  H    1.492184   2.571416   2.571416   0.000000
     5  H    1.586691   2.205156   2.205156   1.804744   0.000000
 Symmetry turned off by external request.
 Stoichiometry    H4Si
 Framework group  CS[SG(H2Si),X(H2)]
 Deg. of freedom     6
 Full point group                 CS      NOp   2
 Rotational constants (GHZ):     94.5733367     86.6765445     72.7506039
 Standard basis: 3-21G (6D, 7F)
 Integral buffers will be    262144 words long.
 Raffenetti 1 integral format.
 Two-electron integral symmetry is turned off.
    21 basis functions,    39 primitive gaussians,    21 cartesian basis functions
     9 alpha electrons        9 beta electrons
       nuclear repulsion energy        21.0556057123 Hartrees.
 NAtoms=    5 NActive=    5 NUniq=    5 SFac= 7.50D-01 NAtFMM=   80 NAOKFM=F Big=F
 One-electron integrals computed using PRISM.
 NBasis=    21 RedAO= T  NBF=    21
 NBsUse=    21 1.00D-06 NBFU=    21
 Initial guess read from the read-write file.
 B after Tr=     0.000000    0.000000    0.000000
         Rot=    1.000000    0.000000    0.000000    0.000000 Ang=   0.00 deg.
 Harris functional with IExCor=  205 diagonalized for initial guess.
 ExpMin= 9.33D-02 ExpMax= 9.11D+02 ExpMxC= 9.11D+02 IAcc=2 IRadAn=         0 AccDes= 0.00D+00
 HarFok:  IExCor=  205 AccDes= 0.00D+00 IRadAn=         0 IDoV= 1
 ScaDFX=  1.000000  1.000000  1.000000  1.000000
 FoFCou: FMM=F IPFlag=           0 FMFlag=      100000 FMFlg1=           0
         NFxFlg=           0 DoJE=T BraDBF=F KetDBF=T FulRan=T
         Omega=  0.000000  0.000000  1.000000  0.000000  0.000000 ICntrl=     500 IOpCl=  0
         NMat0=    1 NMatS0=    1 NMatT0=    0 NMatD0=    1 NMtDS0=    0 NMtDT0=    0
         I1Cent=           4 NGrid=           0.
 Symmetry not used in FoFCou.
 Requested convergence on RMS density matrix=1.00D-08 within 128 cycles.
 Requested convergence on MAX density matrix=1.00D-06.
 Requested convergence on             energy=1.00D-06.
 No special actions if energy rises.
 Keep R1 ints in memory in canonical form, NReq=846515.
 SCF Done:  E(RHF) =  -289.622045748     A.U. after    8 cycles
             Convg  =    0.7791D-08             -V/T =  2.0006
 Range of M.O.s used for correlation:     1    21
 NBasis=    21 NAE=     9 NBE=     9 NFC=     0 NFV=     0
 NROrb=     21 NOA=     9 NOB=     9 NVA=    12 NVB=    12
 Symmetrizing basis deriv contribution to polar:
 IMax=3 JMax=2 DiffMx= 0.00D+00
 Calling FoFJK, ICntrl=      2147 FMM=F ISym2X=0 I1Cent= 0 IOpClX= 0 NMat=1 NMatS=1 NMatT=0.
 -------------------------------------------------------------------
 Center     Atomic                   Forces (Hartrees/Bohr)
 Number     Number              X              Y              Z
 -------------------------------------------------------------------
      1       14           0.043122346    0.000000000    0.071671747
      2        1          -0.013374840    0.001790137   -0.015042968
      3        1          -0.013374840   -0.001790137   -0.015042968
      4        1          -0.029663354    0.000000000   -0.027173027
      5        1           0.013290688    0.000000000   -0.014412785
 -------------------------------------------------------------------
 Cartesian Forces:  Max     0.071671747 RMS     0.025580980
 IRC-IRC-IRC-IRC-IRC-IRC-IRC-IRC-IRC-IRC-IRC-IRC-IRC-IRC-IRC-IRC-IRC-IRC
 Pt 13 Step number   1 out of a maximum of  50
 CORRECTOR INTEGRATION CONVERGENCE:
   Recorrection delta-x convergence threshold:    0.010000
   Delta-x Convergence Met
 Point Number:  13          Path Number:   1
   CHANGE IN THE REACTION COORDINATE =    0.10248
   NET REACTION COORDINATE UP TO THIS POINT =    1.33225
  # OF POINTS ALONG THE PATH =  13
  # OF STEPS =   1

 Calculating another point on the path.
 IRC-IRC-IRC-IRC-IRC-IRC-IRC-IRC-IRC-IRC-IRC-IRC-IRC-IRC-IRC-IRC-IRC-IRC
                          Input orientation:                          
 ---------------------------------------------------------------------
 Center     Atomic      Atomic             Coordinates (Angstroms)
 Number     Number       Type             X           Y           Z
 ---------------------------------------------------------------------
      1         14           0       -0.031796    0.000000   -0.049260
      2          1           0        0.588573    1.267523   -0.487887
      3          1           0        0.588573   -1.267523   -0.487887
      4          1           0       -1.060047    0.000000    1.030620
      5          1           0        0.765506    0.000000    1.312533
 ---------------------------------------------------------------------
                    Distance matrix (angstroms):
                    1          2          3          4          5
     1  Si   0.000000
     2  H    1.477791   0.000000
     3  H    1.477791   2.535047   0.000000
     4  H    1.491120   2.574961   2.574961   0.000000
     5  H    1.578028   2.208945   2.208945   1.847192   0.000000
 Symmetry turned off by external request.
 Stoichiometry    H4Si
 Framework group  CS[SG(H2Si),X(H2)]
 Deg. of freedom     6
 Full point group                 CS      NOp   2
 Rotational constants (GHZ):     94.1096311     87.0740790     73.1304393
 Standard basis: 3-21G (6D, 7F)
 Integral buffers will be    262144 words long.
 Raffenetti 1 integral format.
 Two-electron integral symmetry is turned off.
    21 basis functions,    39 primitive gaussians,    21 cartesian basis functions
     9 alpha electrons        9 beta electrons
       nuclear repulsion energy        21.0749570323 Hartrees.
 NAtoms=    5 NActive=    5 NUniq=    5 SFac= 7.50D-01 NAtFMM=   80 NAOKFM=F Big=F
 One-electron integrals computed using PRISM.
 NBasis=    21 RedAO= T  NBF=    21
 NBsUse=    21 1.00D-06 NBFU=    21
 Initial guess read from the read-write file.
 B after Tr=     0.000000    0.000000    0.000000
         Rot=    1.000000    0.000000    0.000000    0.000000 Ang=   0.00 deg.
 Harris functional with IExCor=  205 diagonalized for initial guess.
 ExpMin= 9.33D-02 ExpMax= 9.11D+02 ExpMxC= 9.11D+02 IAcc=2 IRadAn=         0 AccDes= 0.00D+00
 HarFok:  IExCor=  205 AccDes= 0.00D+00 IRadAn=         0 IDoV= 1
 ScaDFX=  1.000000  1.000000  1.000000  1.000000
 FoFCou: FMM=F IPFlag=           0 FMFlag=      100000 FMFlg1=           0
[...]
 No special actions if energy rises.
 Keep R1 ints in memory in canonical form, NReq=846515.
 SCF Done:  E(RHF) =  -289.601710276     A.U. after    8 cycles
             Convg  =    0.6961D-08             -V/T =  2.0007
 Range of M.O.s used for correlation:     1    21
 NBasis=    21 NAE=     9 NBE=     9 NFC=     0 NFV=     0
 NROrb=     21 NOA=     9 NOB=     9 NVA=    12 NVB=    12
 Symmetrizing basis deriv contribution to polar:
 IMax=3 JMax=2 DiffMx= 0.00D+00
 Calling FoFJK, ICntrl=      2147 FMM=F ISym2X=0 I1Cent= 0 IOpClX= 0 NMat=1 NMatS=1 NMatT=0.
 -------------------------------------------------------------------
 Center     Atomic                   Forces (Hartrees/Bohr)
 Number     Number              X              Y              Z
 -------------------------------------------------------------------
      1       14          -0.005364338    0.000000000   -0.017255030
      2        1           0.001111916   -0.000907918    0.002196547
      3        1           0.001111916    0.000907918    0.002196547
      4        1           0.000570708    0.000000000    0.006717405
      5        1           0.002569798    0.000000000    0.006144530
 -------------------------------------------------------------------
 Cartesian Forces:  Max     0.017255030 RMS     0.005354696
 IRC-IRC-IRC-IRC-IRC-IRC-IRC-IRC-IRC-IRC-IRC-IRC-IRC-IRC-IRC-IRC-IRC-IRC
 Error in corrector energy =          -0.0000244020
 Magnitude of corrector gradient =     0.0214062428
 Magnitude of analytic gradient =      0.0207386483
 Magnitude of difference =             0.0035704308
 Angle between gradients (degrees)=    9.5490
 Pt 38 Step number   2 out of a maximum of  50
 CORRECTOR INTEGRATION CONVERGENCE:
   Recorrection delta-x convergence threshold:    0.010000
   Delta-x Convergence Met
 Point Number:  18          Path Number:   2
   CHANGE IN THE REACTION COORDINATE =    0.10146
   NET REACTION COORDINATE UP TO THIS POINT =    1.84066
  # OF POINTS ALONG THE PATH =  38
  # OF STEPS =   2

 Calculating another point on the path.
 IRC-IRC-IRC-IRC-IRC-IRC-IRC-IRC-IRC-IRC-IRC-IRC-IRC-IRC-IRC-IRC-IRC-IRC
                          Input orientation:                          
 ---------------------------------------------------------------------
 Center     Atomic      Atomic             Coordinates (Angstroms)
 Number     Number       Type             X           Y           Z
 ---------------------------------------------------------------------
      1         14           0       -0.076071    0.000000   -0.132670
      2          1           0        0.945507    1.133390   -0.095082
      3          1           0        0.945507   -1.133390   -0.095082
      4          1           0       -0.262374    0.000000    1.899279
      5          1           0        0.486791    0.000000    1.983149
 ---------------------------------------------------------------------
                    Distance matrix (angstroms):
                    1          2          3          4          5
     1  Si   0.000000
     2  H    1.526305   0.000000
     3  H    1.526305   2.266781   0.000000
     4  H    2.040472   2.592495   2.592495   0.000000
     5  H    2.189407   2.411232   2.411232   0.753845   0.000000
 Symmetry turned off by external request.
 Stoichiometry    H4Si
 Framework group  CS[SG(H2Si),X(H2)]
 Deg. of freedom     6
 Full point group                 CS      NOp   2
 Rotational constants (GHZ):    105.1599322     48.6790999     46.9921640
 Standard basis: 3-21G (6D, 7F)
 Integral buffers will be    262144 words long.
 Raffenetti 1 integral format.
 Two-electron integral symmetry is turned off.
    21 basis functions,    39 primitive gaussians,    21 cartesian basis functions
     9 alpha electrons        9 beta electrons
       nuclear repulsion energy        18.5048666513 Hartrees.
 NAtoms=    5 NActive=    5 NUniq=    5 SFac= 7.50D-01 NAtFMM=   80 NAOKFM=F Big=F
 One-electron integrals computed using PRISM.
 NBasis=    21 RedAO= T  NBF=    21
 NBsUse=    21 1.00D-06 NBFU=    21
 Initial guess read from the read-write file.
 B after Tr=     0.000000    0.000000    0.000000
         Rot=    1.000000    0.000000    0.000000    0.000000 Ang=   0.00 deg.
 Harris functional with IExCor=  205 diagonalized for initial guess.
 ExpMin= 9.33D-02 ExpMax= 9.11D+02 ExpMxC= 9.11D+02 IAcc=2 IRadAn=         0 AccDes= 0.00D+00
 HarFok:  IExCor=  205 AccDes= 0.00D+00 IRadAn=         0 IDoV= 1
 ScaDFX=  1.000000  1.000000  1.000000  1.000000
 FoFCou: FMM=F IPFlag=           0 FMFlag=      100000 FMFlg1=           0
         NFxFlg=           0 DoJE=T BraDBF=F KetDBF=T FulRan=T
         Omega=  0.000000  0.000000  1.000000  0.000000  0.000000 ICntrl=     500 IOpCl=  0
         NMat0=    1 NMatS0=    1 NMatT0=    0 NMatD0=    1 NMtDS0=    0 NMtDT0=    0
         I1Cent=           4 NGrid=           0.
 Symmetry not used in FoFCou.
 Requested convergence on RMS density matrix=1.00D-08 within 128 cycles.
 Requested convergence on MAX density matrix=1.00D-06.
 Requested convergence on             energy=1.00D-06.
 No special actions if energy rises.
 Keep R1 ints in memory in canonical form, NReq=846515.
 SCF Done:  E(RHF) =  -289.602722527     A.U. after    9 cycles
             Convg  =    0.1520D-08             -V/T =  2.0007
 Range of M.O.s used for correlation:     1    21
 NBasis=    21 NAE=     9 NBE=     9 NFC=     0 NFV=     0
 NROrb=     21 NOA=     9 NOB=     9 NVA=    12 NVB=    12
 Symmetrizing basis deriv contribution to polar:
 IMax=3 JMax=2 DiffMx= 0.00D+00
 Calling FoFJK, ICntrl=      2147 FMM=F ISym2X=0 I1Cent= 0 IOpClX= 0 NMat=1 NMatS=1 NMatT=0.
 -------------------------------------------------------------------
 Center     Atomic                   Forces (Hartrees/Bohr)
 Number     Number              X              Y              Z
 -------------------------------------------------------------------
      1       14          -0.003701918    0.000000000   -0.015067484
      2        1           0.000562867   -0.000710209    0.001732753
      3        1           0.000562867    0.000710209    0.001732753
      4        1           0.003368737    0.000000000    0.006487323
      5        1          -0.000792553    0.000000000    0.005114655
 -------------------------------------------------------------------
 Cartesian Forces:  Max     0.015067484 RMS     0.004680471
 IRC-IRC-IRC-IRC-IRC-IRC-IRC-IRC-IRC-IRC-IRC-IRC-IRC-IRC-IRC-IRC-IRC-IRC
 Pt 39 Step number   1 out of a maximum of  50
 CORRECTOR INTEGRATION CONVERGENCE:
   Recorrection delta-x convergence threshold:    0.010000
   Delta-x Convergence Met
 Point Number:  19          Path Number:   2
   CHANGE IN THE REACTION COORDINATE =    0.10238
   NET REACTION COORDINATE UP TO THIS POINT =    1.94304
  # OF POINTS ALONG THE PATH =  39
  # OF STEPS =   1

 Calculating another point on the path.
 IRC-IRC-IRC-IRC-IRC-IRC-IRC-IRC-IRC-IRC-IRC-IRC-IRC-IRC-IRC-IRC-IRC-IRC
                          Input orientation:                          
 ---------------------------------------------------------------------
 Center     Atomic      Atomic             Coordinates (Angstroms)
 Number     Number       Type             X           Y           Z
 ---------------------------------------------------------------------
      1         14           0       -0.076749    0.000000   -0.135761
      2          1           0        0.947820    1.130116   -0.085976
      3          1           0        0.947820   -1.130116   -0.085976
      4          1           0       -0.250521    0.000000    1.935868
      5          1           0        0.489786    0.000000    2.014737
 ---------------------------------------------------------------------
                    Distance matrix (angstroms):
                    1          2          3          4          5
     1  Si   0.000000
     2  H    1.526231   0.000000
     3  H    1.526231   2.260233   0.000000
     4  H    2.078904   2.607880   2.607880   0.000000
     5  H    2.223871   2.428982   2.428982   0.744496   0.000000
 Symmetry turned off by external request.
 Stoichiometry    H4Si
 Framework group  CS[SG(H2Si),X(H2)]
 Deg. of freedom     6
 Full point group                 CS      NOp   2
 Rotational constants (GHZ):    105.5048029     47.3246702     45.7874551
 Standard basis: 3-21G (6D, 7F)
 Integral buffers will be    262144 words long.
 Raffenetti 1 integral format.
 Two-electron integral symmetry is turned off.
    21 basis functions,    39 primitive gaussians,    21 cartesian basis functions
     9 alpha electrons        9 beta electrons
       nuclear repulsion energy        18.3896518660 Hartrees.
 NAtoms=    5 NActive=    5 NUniq=    5 SFac= 7.50D-01 NAtFMM=   80 NAOKFM=F Big=F
 One-electron integrals computed using PRISM.
 NBasis=    21 RedAO= T  NBF=    21
 NBsUse=    21 1.00D-06 NBFU=    21
 Initial guess read from the read-write file.
 B after Tr=     0.000000    0.000000    0.000000
         Rot=    1.000000    0.000000    0.000000    0.000000 Ang=   0.00 deg.
 Harris functional with IExCor=  205 diagonalized for initial guess.
 ExpMin= 9.33D-02 ExpMax= 9.11D+02 ExpMxC= 9.11D+02 IAcc=2 IRadAn=         0 AccDes= 0.00D+00
 HarFok:  IExCor=  205 AccDes= 0.00D+00 IRadAn=         0 IDoV= 1
 ScaDFX=  1.000000  1.000000  1.000000  1.000000
 FoFCou: FMM=F IPFlag=           0 FMFlag=      100000 FMFlg1=           0
         NFxFlg=           0 DoJE=T BraDBF=F KetDBF=T FulRan=T
         Omega=  0.000000  0.000000  1.000000  0.000000  0.000000 ICntrl=     500 IOpCl=  0
         NMat0=    1 NMatS0=    1 NMatT0=    0 NMatD0=    1 NMtDS0=    0 NMtDT0=    0
         I1Cent=           4 NGrid=           0.
 Symmetry not used in FoFCou.
 Requested convergence on RMS density matrix=1.00D-08 within 128 cycles.
 Requested convergence on MAX density matrix=1.00D-06.
 Requested convergence on             energy=1.00D-06.
 No special actions if energy rises.
 Keep R1 ints in memory in canonical form, NReq=846515.
 SCF Done:  E(RHF) =  -289.603618077     A.U. after    9 cycles
             Convg  =    0.2252D-08             -V/T =  2.0007
 Range of M.O.s used for correlation:     1    21
 NBasis=    21 NAE=     9 NBE=     9 NFC=     0 NFV=     0
 NROrb=     21 NOA=     9 NOB=     9 NVA=    12 NVB=    12
 Symmetrizing basis deriv contribution to polar:
 IMax=3 JMax=2 DiffMx= 0.00D+00
 Calling FoFJK, ICntrl=      2147 FMM=F ISym2X=0 I1Cent= 0 IOpClX= 0 NMat=1 NMatS=1 NMatT=0.
 -------------------------------------------------------------------
 Center     Atomic                   Forces (Hartrees/Bohr)
 Number     Number              X              Y              Z
 -------------------------------------------------------------------
      1       14          -0.003341760    0.000000000   -0.013421884
      2        1           0.000583359   -0.000388126    0.001420111
      3        1           0.000583359    0.000388126    0.001420111
      4        1          -0.002214658    0.000000000    0.005396021
      5        1           0.004389700    0.000000000    0.005185642
 -------------------------------------------------------------------
 Cartesian Forces:  Max     0.013421884 RMS     0.004293497
 IRC-IRC-IRC-IRC-IRC-IRC-IRC-IRC-IRC-IRC-IRC-IRC-IRC-IRC-IRC-IRC-IRC-IRC
 Pt 40 Step number   1 out of a maximum of  50
 CORRECTOR INTEGRATION CONVERGENCE:
   Recorrection delta-x convergence threshold:    0.010000
   Delta-x Convergence Met
 Point Number:  20          Path Number:   2
   CHANGE IN THE REACTION COORDINATE =    0.10223
   NET REACTION COORDINATE UP TO THIS POINT =    2.04527
  # OF POINTS ALONG THE PATH =  40
  # OF STEPS =   1

 Maximum number of steps reached.
 Calculation of REVERSE path complete.
 Reaction path calculation complete.
 
 Energies reported relative to the TS energy of        -289.565026
 --------------------------------------------------------------------------
    Summary of reaction path following
 --------------------------------------------------------------------------
                        Energy   Rx Coord
   1                   -0.03862  -2.04527
   2                   -0.03771  -1.94304
   3                   -0.03669  -1.84066
   4                   -0.03556  -1.73920
   5                   -0.03427  -1.63691
   6                   -0.03285  -1.53510
   7                   -0.03128  -1.43342
   8                   -0.02955  -1.33155
   9                   -0.02766  -1.22914
  10                   -0.02560  -1.12667
  11                   -0.02339  -1.02418
  12                   -0.02103  -0.92169
  13                   -0.01854  -0.81921
  14                   -0.01592  -0.71675
  15                   -0.01320  -0.61432
  16                   -0.01038  -0.51198
  17                   -0.00748  -0.40973
  18                   -0.00465  -0.30739
  19                   -0.00222  -0.20496
  20                   -0.00058  -0.10251
  21                    0.00000   0.00000
  22                   -0.00058   0.10251
  23                   -0.00228   0.20498
  24                   -0.00499   0.30746
  25                   -0.00856   0.40994
  26                   -0.01282   0.51242
  27                   -0.01762   0.61490
  28                   -0.02282   0.71738
  29                   -0.02830   0.81986
  30                   -0.03397   0.92234
  31                   -0.03974   1.02482
  32                   -0.04554   1.12729
  33                   -0.05131   1.22977
  34                   -0.05702   1.33225
  35                   -0.06262   1.43473
  36                   -0.06807   1.53721
  37                   -0.07336   1.63969
  38                   -0.07846   1.74217
  39                   -0.08334   1.84466
  40                   -0.08800   1.94714
  41                   -0.09240   2.04962
 --------------------------------------------------------------------------
 
 Total number of points:                   40
 Total number of gradient calculations:    45
 Total number of Hessian calculations:      1
 IRC-IRC-IRC-IRC-IRC-IRC-IRC-IRC-IRC-IRC-IRC-IRC-IRC-IRC-IRC-IRC-IRC-IRC
                          Input orientation:                          
 ---------------------------------------------------------------------
 Center     Atomic      Atomic             Coordinates (Angstroms)
 Number     Number       Type             X           Y           Z
 ---------------------------------------------------------------------
      1         14           0       -0.076749    0.000000   -0.135761
      2          1           0        0.947820    1.130116   -0.085976
      3          1           0        0.947820   -1.130116   -0.085976
      4          1           0       -0.250521    0.000000    1.935868
      5          1           0        0.489786    0.000000    2.014737
 ---------------------------------------------------------------------
                    Distance matrix (angstroms):
                    1          2          3          4          5
     1  Si   0.000000
     2  H    1.526231   0.000000
     3  H    1.526231   2.260233   0.000000
     4  H    2.078904   2.607880   2.607880   0.000000
     5  H    2.223871   2.428982   2.428982   0.744496   0.000000
 Symmetry turned off by external request.
 Stoichiometry    H4Si
 Framework group  CS[SG(H2Si),X(H2)]
 Deg. of freedom     6
 Full point group                 CS      NOp   2
 Rotational constants (GHZ):    105.5048029     47.3246702     45.7874551

 **********************************************************************

            Population analysis using the SCF density.

 **********************************************************************

 Alpha  occ. eigenvalues --  -68.30397  -6.11222  -4.20456  -4.20346  -4.20196
 Alpha  occ. eigenvalues --   -0.74017  -0.61568  -0.45962  -0.32757
 Alpha virt. eigenvalues --    0.04955   0.17213   0.22754   0.27415   0.45620
 Alpha virt. eigenvalues --    0.49246   0.52165   0.57627   0.96484   1.32579
 Alpha virt. eigenvalues --    1.35030   1.47411
          Condensed to atoms (all electrons):
              1          2          3          4          5
     1  Si  13.019466   0.300209   0.300209   0.038170  -0.007698
     2  H    0.300209   0.941954  -0.029310  -0.010271   0.001842
     3  H    0.300209  -0.029310   0.941954  -0.010271   0.001842
     4  H    0.038170  -0.010271  -0.010271   0.614438   0.361893
     5  H   -0.007698   0.001842   0.001842   0.361893   0.588959
 Mulliken atomic charges:
              1
     1  Si   0.349644
     2  H   -0.204424
     3  H   -0.204424
     4  H    0.006040
     5  H    0.053163
 Sum of Mulliken atomic charges =   0.00000
 Mulliken charges with hydrogens summed into heavy atoms:
              1
     1  Si   0.000000
 Sum of Mulliken charges with hydrogens summed into heavy atoms =   0.00000
 APT atomic charges:
              1
     1  Si   0.045331
     2  H   -0.059119
     3  H   -0.059119
     4  H   -0.052883
     5  H    0.125790
 Sum of APT charges=   0.00000
 APT Atomic charges with hydrogens summed into heavy atoms:
              1
     1  Si   0.000000
     2  H    0.000000
     3  H    0.000000
     4  H    0.000000
     5  H    0.000000
 Sum of APT charges=   0.00000
 Electronic spatial extent (au):  <R**2>=             85.8122
 Charge=              0.0000 electrons
 Dipole moment (field-independent basis, Debye):
    X=              0.7042    Y=              0.0000    Z=              0.8032  Tot=              1.0682
 Quadrupole moment (field-independent basis, Debye-Ang):
   XX=            -21.0261   YY=            -19.1181   ZZ=            -13.7196
   XY=              0.0000   XZ=             -0.6594   YZ=              0.0000
 Traceless Quadrupole moment (field-independent basis, Debye-Ang):
   XX=             -3.0715   YY=             -1.1635   ZZ=              4.2350
   XY=              0.0000   XZ=             -0.6594   YZ=              0.0000
 Octapole moment (field-independent basis, Debye-Ang**2):
  XXX=             -1.5288  YYY=              0.0000  ZZZ=             -4.2316  XYY=             -2.9280
  XXY=              0.0000  XXZ=             -0.4208  XZZ=              0.4122  YZZ=              0.0000
  YYZ=             -1.4685  XYZ=              0.0000
 Hexadecapole moment (field-independent basis, Debye-Ang**3):
 XXXX=            -53.6785 YYYY=            -48.0764 ZZZZ=            -61.5469 XXXY=              0.0000
 XXXZ=             -2.6193 YYYX=              0.0000 YYYZ=              0.0000 ZZZX=             -2.0076
 ZZZY=              0.0000 XXYY=            -18.2994 XXZZ=            -18.2279 YYZZ=            -18.4478
 XXYZ=              0.0000 YYXZ=             -0.7348 ZZXY=              0.0000
 N-N= 1.838965186605D+01 E-N=-7.270459870662D+02  KE= 2.893978727686D+02
  Exact polarizability:   0.000   0.000   0.000   0.000   0.000   0.000
 Approx polarizability:  20.907   0.000  23.725   1.359   0.000  21.002
 -------------------------------------------------------------------
 Center     Atomic                   Forces (Hartrees/Bohr)
 Number     Number              X              Y              Z
 -------------------------------------------------------------------
      1       14          -0.003341760    0.000000000   -0.013421884
      2        1           0.000583359   -0.000388126    0.001420111
      3        1           0.000583359    0.000388126    0.001420111
      4        1          -0.002214658    0.000000000    0.005396021
      5        1           0.004389700    0.000000000    0.005185642
 -------------------------------------------------------------------
 Cartesian Forces:  Max     0.013421884 RMS     0.004293497

 This type of calculation cannot be archived.


 BE CAREFUL NOT TO BECOME TOO GOOD OF A SONGBIRD OR 
 THEY'LL THROW YOU INTO A CAGE.

                                    -- SNOOPY TO WOODSTOCK
 Job cpu time:  0 days  0 hours  0 minutes 40.0 seconds.
 File lengths (MBytes):  RWF=      5 Int=      0 D2E=      0 Chk=      1 Scr=      1
 Normal termination of Gaussian 09 at Sun Sep 08 23:27:52 2013.
