 Default is to use a total of   4 processors:
                                4 via shared-memory
                                1 via Linda
 Entering Link 1 = d:\study\G09W\l1.exe PID=      1628.
  
 Copyright (c) 1988,1990,1992,1993,1995,1998,2003,2009, Gaussian, Inc.
                  All Rights Reserved.
  
 This is part of the Gaussian(R) 09 program.  It is based on
 the Gaussian(R) 03 system (copyright 2003, Gaussian, Inc.),
 the Gaussian(R) 98 system (copyright 1998, Gaussian, Inc.),
 the Gaussian(R) 94 system (copyright 1995, Gaussian, Inc.),
 the Gaussian 92(TM) system (copyright 1992, Gaussian, Inc.),
 the Gaussian 90(TM) system (copyright 1990, Gaussian, Inc.),
 the Gaussian 88(TM) system (copyright 1988, Gaussian, Inc.),
 the Gaussian 86(TM) system (copyright 1986, Carnegie Mellon
 University), and the Gaussian 82(TM) system (copyright 1983,
 Carnegie Mellon University). Gaussian is a federally registered
 trademark of Gaussian, Inc.
  
 This software contains proprietary and confidential information,
 including trade secrets, belonging to Gaussian, Inc.
  
 This software is provided under written license and may be
 used, copied, transmitted, or stored only in accord with that
 written license.
  
 The following legend is applicable only to US Government
 contracts under FAR:
  
                    RESTRICTED RIGHTS LEGEND
  
 Use, reproduction and disclosure by the US Government is
 subject to restrictions as set forth in subparagraphs (a)
 and (c) of the Commercial Computer Software - Restricted
 Rights clause in FAR 52.227-19.
  
 Gaussian, Inc.
 340 Quinnipiac St., Bldg. 40, Wallingford CT 06492
  
  
 ---------------------------------------------------------------
 Warning -- This program may not be used in any manner that
 competes with the business of Gaussian, Inc. or will provide
 assistance to any competitor of Gaussian, Inc.  The licensee
 of this program is prohibited from giving any competitor of
 Gaussian, Inc. access to this program.  By using this program,
 the user acknowledges that Gaussian, Inc. is engaged in the
 business of creating and licensing software in the field of
 computational chemistry and represents and warrants to the
 licensee that it is not a competitor of Gaussian, Inc. and that
 it will not use this program in any manner prohibited above.
 ---------------------------------------------------------------
  

 Cite this work as:
 Gaussian 09, Revision A.02,
 M. J. Frisch, G. W. Trucks, H. B. Schlegel, G. E. Scuseria, 
 M. A. Robb, J. R. Cheeseman, G. Scalmani, V. Barone, B. Mennucci, 
 G. A. Petersson, H. Nakatsuji, M. Caricato, X. Li, H. P. Hratchian, 
 A. F. Izmaylov, J. Bloino, G. Zheng, J. L. Sonnenberg, M. Hada, 
 M. Ehara, K. Toyota, R. Fukuda, J. Hasegawa, M. Ishida, T. Nakajima, 
 Y. Honda, O. Kitao, H. Nakai, T. Vreven, J. A. Montgomery, Jr., 
 J. E. Peralta, F. Ogliaro, M. Bearpark, J. J. Heyd, E. Brothers, 
 K. N. Kudin, V. N. Staroverov, R. Kobayashi, J. Normand, 
 K. Raghavachari, A. Rendell, J. C. Burant, S. S. Iyengar, J. Tomasi, 
 M. Cossi, N. Rega, J. M. Millam, M. Klene, J. E. Knox, J. B. Cross, 
 V. Bakken, C. Adamo, J. Jaramillo, R. Gomperts, R. E. Stratmann, 
 O. Yazyev, A. J. Austin, R. Cammi, C. Pomelli, J. W. Ochterski, 
 R. L. Martin, K. Morokuma, V. G. Zakrzewski, G. A. Voth, 
 P. Salvador, J. J. Dannenberg, S. Dapprich, A. D. Daniels, 
 O. Farkas, J. B. Foresman, J. V. Ortiz, J. Cioslowski, 
 and D. J. Fox, Gaussian, Inc., Wallingford CT, 2009.
 
 ******************************************
 Gaussian 09:  IA32W-G09RevA.02 11-Jun-2009
                09-Sep-2013 
 ******************************************
 %chk=C:\gtest\trimerization.chk
 -----------------------------------------------------
 #p b3lyp/6-31g(d,p) IRC(calcfc,cartesian,maxpoint=35)
 -----------------------------------------------------
 1/10=4,14=-1,18=20,26=3,38=1,42=35,44=1/1,23;
 2/9=110,12=2,17=6,18=5,29=1,40=1/2;
 3/5=1,6=6,7=101,11=2,16=1,25=1,30=1,71=2,74=-5/1,2,3;
 4//1;
 5/5=2,38=5/2;
 8/6=4,10=90,11=11/1;
 11/6=1,8=1,9=11,15=111,16=1/1,2,10;
 10/6=1,7=6,13=1/2;
 6/7=2,8=2,9=2,10=2,28=1/1;
 7/10=1,18=20,25=1/1,2,3,16;
 1/10=4,14=-1,18=20,42=35,44=1/23(3);
 2/9=110,29=1/2;
 7/9=1,25=1,44=-1/16;
 99//99;
 2/9=110,29=1/2;
 3/5=1,6=6,7=101,11=2,16=1,25=1,30=1,71=2,74=-5/1,2,3;
 4/5=5,16=3/1;
 5/5=2,38=5/2;
 8/6=4,10=90,11=11/1;
 11/6=1,8=1,9=11,15=111,16=1/1,2,10;
 10/6=1,7=6,13=1/2;
 7/10=1,18=20,25=1/1,2,3,16;
 1/14=-1,18=20,42=35,44=1/23(-8);
 2/9=110,29=1/2;
 6/7=2,8=2,9=2,10=2,19=2,28=1/1;
 7/9=1,25=1,44=-1/16;
 99/9=1/99;
 Leave Link    1 at Mon Sep 09 01:59:36 2013, MaxMem=          0 cpu:       0.0
 (Enter d:\study\G09W\l101.exe)
 -------------------------
 b3lyp/6-31g(d,p) opted TS
 -------------------------
 Symbolic Z-matrix:
 Charge =  0 Multiplicity = 1
 C                     0.61478   1.69894   0. 
 C                     1.77871  -0.31706   0. 
 C                     1.16393  -1.38188   0. 
 C                    -1.16393  -1.38188   0. 
 C                    -1.77871  -0.31706   0. 
 C                    -0.61478   1.69894   0. 
 H                     1.57508   2.1612    0. 
 H                     2.65919   0.28346   0. 
 H                     1.08411  -2.44466   0. 
 H                    -1.08411  -2.44466   0. 
 H                    -2.65919   0.28346   0. 
 H                    -1.57508   2.1612    0. 
 
 NAtoms=     12 NQM=     12 NQMF=      0 NMic=      0 NMicF=      0 NTot=     12.
                    Isotopes and Nuclear Properties:
 (Nuclear quadrupole moments (NQMom) in fm**2, nuclear magnetic moments (NMagM)
  in nuclear magnetons)

  Atom         1           2           3           4           5           6           7           8           9          10
 IAtWgt=          12          12          12          12          12          12           1           1           1           1
 AtmWgt=  12.0000000  12.0000000  12.0000000  12.0000000  12.0000000  12.0000000   1.0078250   1.0078250   1.0078250   1.0078250
 NucSpn=           0           0           0           0           0           0           1           1           1           1
 AtZEff=   0.0000000   0.0000000   0.0000000   0.0000000   0.0000000   0.0000000   0.0000000   0.0000000   0.0000000   0.0000000
 NQMom=    0.0000000   0.0000000   0.0000000   0.0000000   0.0000000   0.0000000   0.0000000   0.0000000   0.0000000   0.0000000
 NMagM=    0.0000000   0.0000000   0.0000000   0.0000000   0.0000000   0.0000000   2.7928460   2.7928460   2.7928460   2.7928460

  Atom        11          12
 IAtWgt=           1           1
 AtmWgt=   1.0078250   1.0078250
 NucSpn=           1           1
 AtZEff=   0.0000000   0.0000000
 NQMom=    0.0000000   0.0000000
 NMagM=    2.7928460   2.7928460
 Leave Link  101 at Mon Sep 09 01:59:36 2013, MaxMem=  196608000 cpu:       0.0
 (Enter d:\study\G09W\l123.exe)
 IRC-IRC-IRC-IRC-IRC-IRC-IRC-IRC-IRC-IRC-IRC-IRC-IRC-IRC-IRC-IRC-IRC-IRC
 ------------------------------------------------------------------------
 INPUT DATA FOR L123
 ------------------------------------------------------------------------
 GENERAL PARAMETERS:
 Follow reaction path in both directions.
 Maximum points per path      =  35
 Step size                    =   0.100 bohr
 Integration scheme           = HPC                                 
    Redo corrector integration= Yes                                 
    Max correction cycles     =  20
 Initial Hessian              = CalcFC
 Hessian eveluation           = All updating
    Hessian updating method   = Bofill                              
 ------------------------------------------------------------------------
 IRC-IRC-IRC-IRC-IRC-IRC-IRC-IRC-IRC-IRC-IRC-IRC-IRC-IRC-IRC-IRC-IRC-IRC
 Leave Link  123 at Mon Sep 09 01:59:36 2013, MaxMem=  196608000 cpu:       0.0
 (Enter d:\study\G09W\l202.exe)
                          Input orientation:                          
 ---------------------------------------------------------------------
 Center     Atomic      Atomic             Coordinates (Angstroms)
 Number     Number       Type             X           Y           Z
 ---------------------------------------------------------------------
      1          6           0        0.614776    1.698935    0.000000
      2          6           0        1.778709   -0.317056    0.000000
      3          6           0        1.163933   -1.381879    0.000000
      4          6           0       -1.163933   -1.381879    0.000000
      5          6           0       -1.778709   -0.317056    0.000000
      6          6           0       -0.614776    1.698935    0.000000
      7          1           0        1.575079    2.161199    0.000000
      8          1           0        2.659192    0.283459    0.000000
      9          1           0        1.084113   -2.444658    0.000000
     10          1           0       -1.084113   -2.444658    0.000000
     11          1           0       -2.659192    0.283459    0.000000
     12          1           0       -1.575079    2.161199    0.000000
 ---------------------------------------------------------------------
                    Distance matrix (angstroms):
                    1          2          3          4          5
     1  C    0.000000
     2  C    2.327866   0.000000
     3  C    3.129375   1.229552   0.000000
     4  C    3.557418   3.129375   2.327866   0.000000
     5  C    3.129375   3.557418   3.129375   1.229552   0.000000
     6  C    1.229552   3.129375   3.557418   3.129375   2.327866
     7  H    1.065772   2.486607   3.566853   4.478347   4.170089
     8  H    2.486606   1.065771   2.238113   4.170088   4.478346
     9  H    4.170089   2.238114   1.065772   2.486606   3.566853
    10  H    4.478346   3.566853   2.486606   1.065772   2.238114
    11  H    3.566853   4.478346   4.170088   2.238113   1.065771
    12  H    2.238114   4.170089   4.478347   3.566853   2.486607
                    6          7          8          9         10
     6  C    0.000000
     7  H    2.238114   0.000000
     8  H    3.566853   2.168227   0.000000
     9  H    4.478346   4.631951   3.150158   0.000000
    10  H    4.170089   5.318385   4.631949   2.168226   0.000000
    11  H    2.486606   4.631950   5.318384   4.631949   3.150158
    12  H    1.065772   3.150158   4.631950   5.318385   4.631951
                   11         12
    11  H    0.000000
    12  H    2.168227   0.000000
 Symmetry turned off by external request.
 Stoichiometry    C6H6
 Framework group  D3H[SGH(C6H6)]
 Deg. of freedom     4
 Full point group                 D3H     NOp  12
 Rotational constants (GHZ):      3.6321955      3.6321951      1.8160977
 Leave Link  202 at Mon Sep 09 01:59:36 2013, MaxMem=  196608000 cpu:       0.0
 (Enter d:\study\G09W\l301.exe)
 Standard basis: 6-31G(d,p) (6D, 7F)
 Ernie: Thresh=  0.10000D-02 Tol=  0.10000D-05 Strict=F.
 Integral buffers will be    262144 words long.
 Raffenetti 2 integral format.
 Two-electron integral symmetry is turned off.
   120 basis functions,   210 primitive gaussians,   120 cartesian basis functions
    21 alpha electrons       21 beta electrons
       nuclear repulsion energy       174.0540822312 Hartrees.
 IExCor=  402 DFT=T Ex+Corr=B3LYP ExCW=0 ScaHFX=  0.200000
 ScaDFX=  0.800000  0.720000  1.000000  0.810000 ScalE2=  1.000000  1.000000
 IRadAn=      0 IRanWt=     -1 IRanGd=            0 ICorTp=0
 NAtoms=   12 NActive=   12 NUniq=   12 SFac= 7.50D-01 NAtFMM=   80 NAOKFM=F Big=F
 Leave Link  301 at Mon Sep 09 01:59:36 2013, MaxMem=  196608000 cpu:       0.0
 (Enter d:\study\G09W\l302.exe)
 NPDir=0 NMtPBC=     1 NCelOv=     1 NCel=       1 NClECP=     1 NCelD=      1
         NCelK=      1 NCelE2=     1 NClLst=     1 CellRange=     0.0.
 One-electron integrals computed using PRISM.
 NBasis=   120 RedAO= T  NBF=   120
 NBsUse=   120 1.00D-06 NBFU=   120
 Precomputing XC quadrature grid using
 IXCGrd= 2 IRadAn=           0 IRanWt=          -1 IRanGd=           0 AccXCQ= 1.00D-10.
 NRdTot=     744 NPtTot=       94656 NUsed=       98136 NTot=       98152
 NSgBfM=   120   120   120   120   120 NAtAll=    12    12.
 Leave Link  302 at Mon Sep 09 01:59:36 2013, MaxMem=  196608000 cpu:       0.0
 (Enter d:\study\G09W\l303.exe)
 DipDrv:  MaxL=1.
 Leave Link  303 at Mon Sep 09 01:59:36 2013, MaxMem=  196608000 cpu:       0.0
 (Enter d:\study\G09W\l401.exe)
 Harris functional with IExCor=  402 diagonalized for initial guess.
 ExpMin= 1.61D-01 ExpMax= 3.05D+03 ExpMxC= 4.57D+02 IAcc=1 IRadAn=         1 AccDes= 0.00D+00
 HarFok:  IExCor=  402 AccDes= 0.00D+00 IRadAn=         1 IDoV= 1
 ScaDFX=  1.000000  1.000000  1.000000  1.000000
 FoFCou: FMM=F IPFlag=           0 FMFlag=      100000 FMFlg1=           0
         NFxFlg=           0 DoJE=T BraDBF=F KetDBF=T FulRan=T
         Omega=  0.000000  0.000000  1.000000  0.000000  0.000000 ICntrl=     500 IOpCl=  0
         NMat0=    1 NMatS0=    1 NMatT0=    0 NMatD0=    1 NMtDS0=    0 NMtDT0=    0
         I1Cent=           4 NGrid=           0.
 Symmetry not used in FoFCou.
 Harris En= -232.061936759594    
 Leave Link  401 at Mon Sep 09 01:59:37 2013, MaxMem=  196608000 cpu:       1.0
 (Enter d:\study\G09W\l502.exe)
 Closed shell SCF:
 Requested convergence on RMS density matrix=1.00D-08 within 128 cycles.
 Requested convergence on MAX density matrix=1.00D-06.
 Requested convergence on             energy=1.00D-06.
 No special actions if energy rises.
 Using DIIS extrapolation, IDIIS=  1040.
 Two-electron integral symmetry not used.
        98028 words used for storage of precomputed grid.
 Keep R1 ints in memory in canonical form, NReq=27456431.
 IEnd=      160756 IEndB=      160756 NGot=   196608000 MDV=   170120947
 LenX=   170120947 LenY=   170106106
 Symmetry not used in FoFDir.
 MinBra= 0 MaxBra= 2 Meth= 1.
 IRaf=       0 NMat=   1 IRICut=       1 DoRegI=T DoRafI=F ISym2E= 0 JSym2E=0.
 Integral accuracy reduced to 1.0D-05 until final iterations.

 Cycle   1  Pass 0  IDiag  1:
 E= -231.712286029971    
 DIIS: error= 4.44D-02 at cycle   1 NSaved=   1.
 NSaved= 1 IEnMin= 1 EnMin= -231.712286029971     IErMin= 1 ErrMin= 4.44D-02
 ErrMax= 4.44D-02 EMaxC= 1.00D-01 BMatC= 1.81D-01 BMatP= 1.81D-01
 IDIUse=3 WtCom= 5.56D-01 WtEn= 4.44D-01
 Coeff-Com:  0.100D+01
 Coeff-En:   0.100D+01
 Coeff:      0.100D+01
 Gap=     0.210 Goal=   None    Shift=    0.000
 GapD=    0.210 DampG=1.000 DampE=0.500 DampFc=0.5000 IDamp=-1.
 Damping current iteration by 5.00D-01
 RMSDP=8.65D-03 MaxDP=9.05D-02              OVMax= 1.93D-01

 Cycle   2  Pass 0  IDiag  1:
 E= -231.817954836611     Delta-E=       -0.105668806640 Rises=F Damp=T
 DIIS: error= 8.53D-03 at cycle   2 NSaved=   2.
 NSaved= 2 IEnMin= 2 EnMin= -231.817954836611     IErMin= 2 ErrMin= 8.53D-03
 ErrMax= 8.53D-03 EMaxC= 1.00D-01 BMatC= 5.04D-03 BMatP= 1.81D-01
 IDIUse=3 WtCom= 9.15D-01 WtEn= 8.53D-02
 Coeff-Com: -0.439D-01 0.104D+01
 Coeff-En:   0.000D+00 0.100D+01
 Coeff:     -0.402D-01 0.104D+01
 Gap=     0.231 Goal=   None    Shift=    0.000
 RMSDP=1.65D-03 MaxDP=1.55D-02 DE=-1.06D-01 OVMax= 9.52D-02

 Cycle   3  Pass 0  IDiag  1:
 E= -231.921320858221     Delta-E=       -0.103366021610 Rises=F Damp=F
 DIIS: error= 2.42D-03 at cycle   3 NSaved=   3.
 NSaved= 3 IEnMin= 3 EnMin= -231.921320858221     IErMin= 3 ErrMin= 2.42D-03
 ErrMax= 2.42D-03 EMaxC= 1.00D-01 BMatC= 4.65D-04 BMatP= 5.04D-03
 IDIUse=3 WtCom= 9.76D-01 WtEn= 2.42D-02
 Coeff-Com: -0.263D-01 0.194D+00 0.832D+00
 Coeff-En:   0.000D+00 0.000D+00 0.100D+01
 Coeff:     -0.257D-01 0.190D+00 0.836D+00
 Gap=     0.223 Goal=   None    Shift=    0.000
 RMSDP=4.22D-04 MaxDP=4.35D-03 DE=-1.03D-01 OVMax= 7.25D-03

 Cycle   4  Pass 0  IDiag  1:
 E= -231.921785063024     Delta-E=       -0.000464204803 Rises=F Damp=F
 DIIS: error= 7.95D-04 at cycle   4 NSaved=   4.
 NSaved= 4 IEnMin= 4 EnMin= -231.921785063024     IErMin= 4 ErrMin= 7.95D-04
 ErrMax= 7.95D-04 EMaxC= 1.00D-01 BMatC= 4.10D-05 BMatP= 4.65D-04
 IDIUse=3 WtCom= 9.92D-01 WtEn= 7.95D-03
 Coeff-Com: -0.530D-02 0.152D-01 0.253D+00 0.737D+00
 Coeff-En:   0.000D+00 0.000D+00 0.000D+00 0.100D+01
 Coeff:     -0.526D-02 0.151D-01 0.251D+00 0.739D+00
 Gap=     0.223 Goal=   None    Shift=    0.000
 RMSDP=9.44D-05 MaxDP=9.51D-04 DE=-4.64D-04 OVMax= 1.55D-03

 Cycle   5  Pass 0  IDiag  1:
 E= -231.921825925865     Delta-E=       -0.000040862841 Rises=F Damp=F
 DIIS: error= 2.62D-05 at cycle   5 NSaved=   5.
 NSaved= 5 IEnMin= 5 EnMin= -231.921825925865     IErMin= 5 ErrMin= 2.62D-05
 ErrMax= 2.62D-05 EMaxC= 1.00D-01 BMatC= 1.14D-07 BMatP= 4.10D-05
 IDIUse=1 WtCom= 1.00D+00 WtEn= 0.00D+00
 Coeff-Com: -0.659D-03 0.923D-03 0.350D-01 0.124D+00 0.841D+00
 Coeff:     -0.659D-03 0.923D-03 0.350D-01 0.124D+00 0.841D+00
 Gap=     0.223 Goal=   None    Shift=    0.000
 RMSDP=5.83D-06 MaxDP=6.96D-05 DE=-4.09D-05 OVMax= 1.65D-04

 Initial convergence to 1.0D-05 achieved.  Increase integral accuracy.
 Cycle   6  Pass 1  IDiag  1:
 E= -231.921819624883     Delta-E=        0.000006300982 Rises=F Damp=F
 DIIS: error= 2.50D-05 at cycle   1 NSaved=   1.
 NSaved= 1 IEnMin= 1 EnMin= -231.921819624883     IErMin= 1 ErrMin= 2.50D-05
 ErrMax= 2.50D-05 EMaxC= 1.00D-01 BMatC= 7.69D-08 BMatP= 7.69D-08
 IDIUse=1 WtCom= 1.00D+00 WtEn= 0.00D+00
 Coeff-Com:  0.100D+01
 Coeff:      0.100D+01
 Gap=     0.223 Goal=   None    Shift=    0.000
 RMSDP=5.83D-06 MaxDP=6.96D-05 DE= 6.30D-06 OVMax= 2.90D-04

 Cycle   7  Pass 1  IDiag  1:
 E= -231.921819215827     Delta-E=        0.000000409055 Rises=F Damp=F
 DIIS: error= 6.83D-05 at cycle   2 NSaved=   2.
 NSaved= 2 IEnMin= 1 EnMin= -231.921819624883     IErMin= 1 ErrMin= 2.50D-05
 ErrMax= 6.83D-05 EMaxC= 1.00D-01 BMatC= 4.59D-07 BMatP= 7.69D-08
 IDIUse=1 WtCom= 1.00D+00 WtEn= 0.00D+00
 Coeff-Com:  0.717D+00 0.283D+00
 Coeff:      0.717D+00 0.283D+00
 Gap=     0.223 Goal=   None    Shift=    0.000
 RMSDP=4.96D-06 MaxDP=1.00D-04 DE= 4.09D-07 OVMax= 2.42D-04

 Cycle   8  Pass 1  IDiag  1:
 E= -231.921819709782     Delta-E=       -0.000000493954 Rises=F Damp=F
 DIIS: error= 4.36D-06 at cycle   3 NSaved=   3.
 NSaved= 3 IEnMin= 3 EnMin= -231.921819709782     IErMin= 3 ErrMin= 4.36D-06
 ErrMax= 4.36D-06 EMaxC= 1.00D-01 BMatC= 1.83D-09 BMatP= 7.69D-08
 IDIUse=1 WtCom= 1.00D+00 WtEn= 0.00D+00
 Coeff-Com: -0.988D-02 0.549D-01 0.955D+00
 Coeff:     -0.988D-02 0.549D-01 0.955D+00
 Gap=     0.223 Goal=   None    Shift=    0.000
 RMSDP=3.84D-07 MaxDP=6.59D-06 DE=-4.94D-07 OVMax= 1.34D-05

 Cycle   9  Pass 1  IDiag  1:
 E= -231.921819711774     Delta-E=       -0.000000001992 Rises=F Damp=F
 DIIS: error= 5.25D-07 at cycle   4 NSaved=   4.
 NSaved= 4 IEnMin= 4 EnMin= -231.921819711774     IErMin= 4 ErrMin= 5.25D-07
 ErrMax= 5.25D-07 EMaxC= 1.00D-01 BMatC= 2.76D-11 BMatP= 1.83D-09
 IDIUse=1 WtCom= 1.00D+00 WtEn= 0.00D+00
 Coeff-Com: -0.120D-01 0.123D-01 0.298D+00 0.701D+00
 Coeff:     -0.120D-01 0.123D-01 0.298D+00 0.701D+00
 Gap=     0.223 Goal=   None    Shift=    0.000
 RMSDP=6.52D-08 MaxDP=1.11D-06 DE=-1.99D-09 OVMax= 2.87D-06

 Cycle  10  Pass 1  IDiag  1:
 E= -231.921819711797     Delta-E=       -0.000000000023 Rises=F Damp=F
 DIIS: error= 3.03D-07 at cycle   5 NSaved=   5.
 NSaved= 5 IEnMin= 5 EnMin= -231.921819711797     IErMin= 5 ErrMin= 3.03D-07
 ErrMax= 3.03D-07 EMaxC= 1.00D-01 BMatC= 8.73D-12 BMatP= 2.76D-11
 IDIUse=1 WtCom= 1.00D+00 WtEn= 0.00D+00
 Coeff-Com: -0.584D-02 0.218D-02 0.952D-01 0.394D+00 0.514D+00
 Coeff:     -0.584D-02 0.218D-02 0.952D-01 0.394D+00 0.514D+00
 Gap=     0.223 Goal=   None    Shift=    0.000
 RMSDP=2.89D-08 MaxDP=5.05D-07 DE=-2.27D-11 OVMax= 1.65D-06

 Cycle  11  Pass 1  IDiag  1:
 E= -231.921819711809     Delta-E=       -0.000000000012 Rises=F Damp=F
 DIIS: error= 1.82D-08 at cycle   6 NSaved=   6.
 NSaved= 6 IEnMin= 6 EnMin= -231.921819711809     IErMin= 6 ErrMin= 1.82D-08
 ErrMax= 1.82D-08 EMaxC= 1.00D-01 BMatC= 4.22D-14 BMatP= 8.73D-12
 IDIUse=1 WtCom= 1.00D+00 WtEn= 0.00D+00
 Coeff-Com: -0.263D-03-0.360D-03 0.548D-03 0.283D-01 0.766D-01 0.895D+00
 Coeff:     -0.263D-03-0.360D-03 0.548D-03 0.283D-01 0.766D-01 0.895D+00
 Gap=     0.223 Goal=   None    Shift=    0.000
 RMSDP=2.87D-09 MaxDP=5.25D-08 DE=-1.24D-11 OVMax= 1.60D-07

 SCF Done:  E(RB3LYP) =  -231.921819712     A.U. after   11 cycles
             Convg  =    0.2870D-08             -V/T =  2.0102
 KE= 2.295880879945D+02 PE=-8.853644319273D+02 EE= 2.498004419899D+02
 Leave Link  502 at Mon Sep 09 01:59:43 2013, MaxMem=  196608000 cpu:       6.0
 (Enter d:\study\G09W\l801.exe)
 Range of M.O.s used for correlation:     1   120
 NBasis=   120 NAE=    21 NBE=    21 NFC=     0 NFV=     0
 NROrb=    120 NOA=    21 NOB=    21 NVA=    99 NVB=    99
 Leave Link  801 at Mon Sep 09 01:59:43 2013, MaxMem=  196608000 cpu:       0.0
 (Enter d:\study\G09W\l1101.exe)
 Using compressed storage, NAtomX=    12.
 Will process  13 centers per pass.
 Leave Link 1101 at Mon Sep 09 01:59:44 2013, MaxMem=  196608000 cpu:       1.0
 (Enter d:\study\G09W\l1102.exe)
 Symmetrizing basis deriv contribution to polar:
 IMax=3 JMax=2 DiffMx= 0.00D+00
 Leave Link 1102 at Mon Sep 09 01:59:44 2013, MaxMem=  196608000 cpu:       0.0
 (Enter d:\study\G09W\l1110.exe)
 Forming Gx(P) for the SCF density, NAtomX=    12.
 Integral derivatives from FoFDir/FoFCou, PRISM(SPDF).
 Do as many integral derivatives as possible in FoFDir.
 G2DrvN: MDV=     196607874.
 G2DrvN: will do    13 centers at a time, making    1 passes doing MaxLOS=2.
 Calling FoFCou, ICntrl=  3107 FMM=F I1Cent=   0 AccDes= 0.00D+00.
 FoFCou: FMM=F IPFlag=           0 FMFlag=      100000 FMFlg1=           0
         NFxFlg=           0 DoJE=F BraDBF=F KetDBF=F FulRan=T
         Omega=  0.000000  0.000000  1.000000  0.000000  0.000000 ICntrl=    3107 IOpCl=  0
         NMat0=    1 NMatS0=    1 NMatT0=    0 NMatD0=    1 NMtDS0=    0 NMtDT0=    0
         I1Cent=           0 NGrid=           0.
 Symmetry not used in FoFCou.
 FoFDir/FoFCou used for L=0 through L=2.
 End of G2Drv Frequency-dependent properties file   721 does not exist.
 End of G2Drv Frequency-dependent properties file   722 does not exist.
 Leave Link 1110 at Mon Sep 09 02:00:02 2013, MaxMem=  196608000 cpu:      18.0
 (Enter d:\study\G09W\l1002.exe)
 Minotr:  Closed shell wavefunction.
          IDoAtm=111111111111
          Direct CPHF calculation.
          Differentiating once with respect to nuclear coordinates.
          Requested convergence is 1.0D-06 RMS, and 1.0D-05 maximum.
          Secondary convergence is 1.0D-12 RMS, and 1.0D-12 maximum.
          NewPWx=T KeepS1=F KeepF1=F KeepIn=T MapXYZ=F SortEE=F KeepMc=T.
          MDV=     196607912 using IRadAn=       2.
 Generate precomputed XC quadrature information.
          Keep R1 ints in memory in canonical form, NReq=27179783.
 Symmetry not used in FoFDir.
 MinBra= 0 MaxBra= 2 Meth= 1.
 IRaf=       0 NMat=   1 IRICut=       1 DoRegI=T DoRafI=F ISym2E= 0 JSym2E=0.
          Solving linear equations simultaneously, MaxMat=       0.
          There are    39 degrees of freedom in the 1st order CPHF.  IDoFFX=5.
     33 vectors produced by pass  0 Test12= 5.33D-11 2.56D-07 XBig12= 1.66D-01 2.19D-01.
 AX will form    33 AO Fock derivatives at one time.
     33 vectors produced by pass  1 Test12= 5.33D-11 2.56D-07 XBig12= 8.42D-02 1.06D-01.
     33 vectors produced by pass  2 Test12= 5.33D-11 2.56D-07 XBig12= 5.94D-04 4.54D-03.
     33 vectors produced by pass  3 Test12= 5.33D-11 2.56D-07 XBig12= 1.25D-06 1.96D-04.
     18 vectors produced by pass  4 Test12= 5.33D-11 2.56D-07 XBig12= 2.75D-09 9.96D-06.
      1 vectors produced by pass  5 Test12= 5.33D-11 2.56D-07 XBig12= 3.19D-12 4.19D-07.
 Inverted reduced A of dimension   151 with in-core refinement.
 End of Minotr Frequency-dependent properties file   721 does not exist.
 End of Minotr Frequency-dependent properties file   722 does not exist.
 Leave Link 1002 at Mon Sep 09 02:00:15 2013, MaxMem=  196608000 cpu:      13.0
 (Enter d:\study\G09W\l601.exe)
 Copying SCF densities to generalized density rwf, IOpCl= 0 IROHF=0.

 **********************************************************************

            Population analysis using the SCF density.

 **********************************************************************

 Alpha  occ. eigenvalues --  -10.18798 -10.18798 -10.18797 -10.18600 -10.18600
 Alpha  occ. eigenvalues --  -10.18599  -0.75373  -0.72919  -0.72919  -0.57236
 Alpha  occ. eigenvalues --   -0.57236  -0.51941  -0.49545  -0.46160  -0.46160
 Alpha  occ. eigenvalues --   -0.33814  -0.29142  -0.26239  -0.26239  -0.23530
 Alpha  occ. eigenvalues --   -0.23530
 Alpha virt. eigenvalues --   -0.01194  -0.01194   0.03563   0.03564   0.09460
 Alpha virt. eigenvalues --    0.10980   0.11691   0.13393   0.13393   0.20547
 Alpha virt. eigenvalues --    0.20547   0.26523   0.39987   0.39987   0.41579
 Alpha virt. eigenvalues --    0.45248   0.47108   0.47108   0.48930   0.57363
 Alpha virt. eigenvalues --    0.57460   0.57463   0.65703   0.66738   0.66740
 Alpha virt. eigenvalues --    0.71461   0.71461   0.74558   0.82384   0.82385
 Alpha virt. eigenvalues --    0.86428   0.86430   0.87914   0.90681   0.93077
 Alpha virt. eigenvalues --    0.93077   0.97889   1.04804   1.04805   1.17340
 Alpha virt. eigenvalues --    1.17341   1.21026   1.26096   1.26098   1.37661
 Alpha virt. eigenvalues --    1.38131   1.38131   1.50026   1.54171   1.57820
 Alpha virt. eigenvalues --    1.57820   1.60956   1.60957   1.71638   1.77764
 Alpha virt. eigenvalues --    1.77764   1.78745   1.78745   1.79091   1.87773
 Alpha virt. eigenvalues --    1.98738   1.98738   2.06192   2.10511   2.11930
 Alpha virt. eigenvalues --    2.11931   2.13112   2.13113   2.17923   2.29591
 Alpha virt. eigenvalues --    2.34674   2.34674   2.38634   2.39120   2.39120
 Alpha virt. eigenvalues --    2.51413   2.59015   2.59015   2.60845   2.60845
 Alpha virt. eigenvalues --    2.64020   2.93708   2.93708   2.94627   3.05014
 Alpha virt. eigenvalues --    3.05014   3.08583   3.32166   3.35131   3.35131
 Alpha virt. eigenvalues --    3.83969   3.83969   3.90055   4.33438   4.39753
 Alpha virt. eigenvalues --    4.39754   4.99750   4.99750   5.04664
          Condensed to atoms (all electrons):
              1          2          3          4          5          6
     1  C    4.897273   0.062805   0.006573  -0.006671   0.006571   0.861705
     2  C    0.062805   4.897263   0.861724   0.006567  -0.006678   0.006571
     3  C    0.006573   0.861724   4.897238   0.062834   0.006567  -0.006671
     4  C   -0.006671   0.006567   0.062834   4.897238   0.861724   0.006573
     5  C    0.006571  -0.006678   0.006567   0.861724   4.897263   0.062805
     6  C    0.861705   0.006571  -0.006671   0.006573   0.062805   4.897273
     7  H    0.375300  -0.020972   0.001080   0.000341   0.000855  -0.046063
     8  H   -0.020974   0.375297  -0.046060   0.000855   0.000341   0.001080
     9  H    0.000855  -0.046058   0.375302  -0.020965   0.001081   0.000341
    10  H    0.000341   0.001081  -0.020965   0.375302  -0.046058   0.000855
    11  H    0.001080   0.000341   0.000855  -0.046060   0.375297  -0.020974
    12  H   -0.046063   0.000855   0.000341   0.001080  -0.020972   0.375300
              7          8          9         10         11         12
     1  C    0.375300  -0.020974   0.000855   0.000341   0.001080  -0.046063
     2  C   -0.020972   0.375297  -0.046058   0.001081   0.000341   0.000855
     3  C    0.001080  -0.046060   0.375302  -0.020965   0.000855   0.000341
     4  C    0.000341   0.000855  -0.020965   0.375302  -0.046060   0.001080
     5  C    0.000855   0.000341   0.001081  -0.046058   0.375297  -0.020972
     6  C   -0.046063   0.001080   0.000341   0.000855  -0.020974   0.375300
     7  H    0.557610  -0.008391  -0.000028   0.000003  -0.000028   0.001491
     8  H   -0.008391   0.557605   0.001491  -0.000028   0.000003  -0.000028
     9  H   -0.000028   0.001491   0.557594  -0.008394  -0.000028   0.000003
    10  H    0.000003  -0.000028  -0.008394   0.557594   0.001491  -0.000028
    11  H   -0.000028   0.000003  -0.000028   0.001491   0.557605  -0.008391
    12  H    0.001491  -0.000028   0.000003  -0.000028  -0.008391   0.557610
 Mulliken atomic charges:
              1
     1  C   -0.138796
     2  C   -0.138797
     3  C   -0.138819
     4  C   -0.138819
     5  C   -0.138797
     6  C   -0.138796
     7  H    0.138801
     8  H    0.138807
     9  H    0.138804
    10  H    0.138804
    11  H    0.138807
    12  H    0.138801
 Sum of Mulliken atomic charges =   0.00000
 Mulliken charges with hydrogens summed into heavy atoms:
              1
     1  C    0.000005
     2  C    0.000011
     3  C   -0.000015
     4  C   -0.000015
     5  C    0.000011
     6  C    0.000005
 Sum of Mulliken charges with hydrogens summed into heavy atoms =   0.00000
 APT atomic charges:
              1
     1  C   -0.566762
     2  C   -0.566816
     3  C   -0.566745
     4  C   -0.566745
     5  C   -0.566816
     6  C   -0.566762
     7  H    0.566764
     8  H    0.566768
     9  H    0.566792
    10  H    0.566792
    11  H    0.566768
    12  H    0.566764
 Sum of APT charges=   0.00000
 APT Atomic charges with hydrogens summed into heavy atoms:
              1
     1  C    0.000001
     2  C   -0.000048
     3  C    0.000047
     4  C    0.000047
     5  C   -0.000048
     6  C    0.000001
     7  H    0.000000
     8  H    0.000000
     9  H    0.000000
    10  H    0.000000
    11  H    0.000000
    12  H    0.000000
 Sum of APT charges=   0.00000
 Electronic spatial extent (au):  <R**2>=            643.5117
 Charge=              0.0000 electrons
 Dipole moment (field-independent basis, Debye):
    X=              0.0000    Y=              0.0000    Z=              0.0000  Tot=              0.0000
 Quadrupole moment (field-independent basis, Debye-Ang):
   XX=            -27.9011   YY=            -27.9011   ZZ=            -39.1852
   XY=              0.0000   XZ=              0.0000   YZ=              0.0000
 Traceless Quadrupole moment (field-independent basis, Debye-Ang):
   XX=              3.7614   YY=              3.7614   ZZ=             -7.5228
   XY=              0.0000   XZ=              0.0000   YZ=              0.0000
 Octapole moment (field-independent basis, Debye-Ang**2):
  XXX=              0.0000  YYY=            -17.0134  ZZZ=              0.0000  XYY=              0.0000
  XXY=             17.0129  XXZ=              0.0000  XZZ=              0.0000  YZZ=              0.0002
  YYZ=              0.0000  XYZ=              0.0000
 Hexadecapole moment (field-independent basis, Debye-Ang**3):
 XXXX=           -370.1141 YYYY=           -370.1120 ZZZZ=            -40.3581 XXXY=              0.0000
 XXXZ=              0.0000 YYYX=              0.0000 YYYZ=              0.0000 ZZZX=              0.0000
 ZZZY=              0.0000 XXYY=           -123.3711 XXZZ=            -84.1789 YYZZ=            -84.1792
 XXYZ=              0.0000 YYXZ=              0.0000 ZZXY=              0.0000
 N-N= 1.740540822312D+02 E-N=-8.853644292454D+02  KE= 2.295880879945D+02
  Exact polarizability:   0.000   0.000   0.000   0.000   0.000   0.000
 Approx polarizability: 157.806   0.000 157.801   0.000   0.000  30.613
 No NMR shielding tensors so no spin-rotation constants.
 Leave Link  601 at Mon Sep 09 02:00:16 2013, MaxMem=  196608000 cpu:       0.0
 (Enter d:\study\G09W\l701.exe)
 Compute integral second derivatives.
 ... and contract with generalized density number  0.
 Leave Link  701 at Mon Sep 09 02:00:16 2013, MaxMem=  196608000 cpu:       0.0
 (Enter d:\study\G09W\l702.exe)
 L702 exits ... SP integral derivatives will be done elsewhere.
 Leave Link  702 at Mon Sep 09 02:00:16 2013, MaxMem=  196608000 cpu:       0.0
 (Enter d:\study\G09W\l703.exe)
 Compute integral second derivatives, UseDBF=F ICtDFT=           0.
 Integral derivatives from FoFDir, PRISM(SPDF).
 Calling FoFJK, ICntrl=    100147 FMM=F ISym2X=0 I1Cent= 0 IOpClX= 0 NMat=1 NMatS=1 NMatT=0.
 FoFCou: FMM=F IPFlag=           0 FMFlag=      100000 FMFlg1=         800
         NFxFlg=           0 DoJE=F BraDBF=F KetDBF=F FulRan=T
         Omega=  0.000000  0.000000  1.000000  0.000000  0.000000 ICntrl=  100147 IOpCl=  0
         NMat0=    1 NMatS0=    1 NMatT0=    0 NMatD0=    1 NMtDS0=    0 NMtDT0=    0
         I1Cent=           0 NGrid=           0.
 Symmetry not used in FoFCou.
 Leave Link  703 at Mon Sep 09 02:00:40 2013, MaxMem=  196608000 cpu:      24.0
 (Enter d:\study\G09W\l716.exe)
 Dipole        =-6.47928387D-13-4.30066775D-06 1.12259833D-15
 Polarizability= 0.00000000D+00 0.00000000D+00 0.00000000D+00
                 0.00000000D+00 0.00000000D+00 0.00000000D+00
 -------------------------------------------------------------------
 Center     Atomic                   Forces (Hartrees/Bohr)
 Number     Number              X              Y              Z
 -------------------------------------------------------------------
      1        6           0.000112329   -0.000028865    0.000000000
      2        6           0.000027672    0.000109779    0.000000000
      3        6          -0.000027334   -0.000080744    0.000000000
      4        6           0.000027334   -0.000080744    0.000000000
      5        6          -0.000027672    0.000109779    0.000000000
      6        6          -0.000112329   -0.000028865    0.000000000
      7        1          -0.000010811    0.000001105    0.000000000
      8        1          -0.000010162   -0.000011413    0.000000000
      9        1           0.000011617    0.000010138    0.000000000
     10        1          -0.000011617    0.000010138    0.000000000
     11        1           0.000010162   -0.000011413    0.000000000
     12        1           0.000010811    0.000001105    0.000000000
 -------------------------------------------------------------------
 Cartesian Forces:  Max     0.000112329 RMS     0.000043541
 Force constants in Cartesian coordinates: 
                1             2             3             4             5 
      1  0.129433D+01
      2  0.201061D+00  0.911073D-01
      3  0.000000D+00  0.000000D+00  0.474812D-01
      4  0.727951D-03 -0.739535D-02  0.000000D+00  0.565760D+00
      5 -0.747626D-01  0.481400D-01  0.000000D+00  0.621441D+00  0.819307D+00
      6  0.000000D+00  0.000000D+00 -0.761551D-02  0.000000D+00  0.000000D+00
      7  0.466621D-01 -0.355602D-01  0.000000D+00 -0.264516D+00 -0.336256D+00
      8  0.305363D-01 -0.302601D-01  0.000000D+00 -0.434993D+00 -0.709887D+00
      9  0.000000D+00  0.000000D+00 -0.854788D-03  0.000000D+00  0.000000D+00
     10 -0.435157D-01  0.253931D-01  0.000000D+00 -0.884501D-02 -0.676531D-01
     11  0.259228D-01 -0.139723D-01  0.000000D+00 -0.158670D-02  0.252150D-01
     12  0.000000D+00  0.000000D+00 -0.687728D-03  0.000000D+00  0.000000D+00
     13 -0.133244D-01  0.981663D-03  0.000000D+00  0.886752D-03  0.260557D-03
     14 -0.651128D-01  0.296140D-01  0.000000D+00 -0.260552D-03 -0.583371D-01
     15  0.000000D+00  0.000000D+00 -0.845360D-03  0.000000D+00  0.000000D+00
     16 -0.932515D+00 -0.493800D-01  0.000000D+00 -0.133244D-01  0.651128D-01
     17  0.493800D-01 -0.420071D-01  0.000000D+00 -0.981662D-03  0.296140D-01
     18  0.000000D+00  0.000000D+00 -0.211842D-01  0.000000D+00  0.000000D+00
     19 -0.341230D+00 -0.148051D+00  0.000000D+00 -0.128860D-02  0.742883D-02
     20 -0.168403D+00 -0.711712D-01  0.000000D+00  0.569717D-03 -0.203659D-01
     21  0.000000D+00  0.000000D+00 -0.211996D-01  0.000000D+00  0.000000D+00
     22 -0.121354D-01  0.682207D-02  0.000000D+00 -0.275515D+00 -0.206072D+00
     23  0.136835D-01 -0.951664D-02  0.000000D+00 -0.185736D+00 -0.136621D+00
     24  0.000000D+00  0.000000D+00  0.112210D-02  0.000000D+00  0.000000D+00
     25 -0.894230D-02  0.747337D-02  0.000000D+00 -0.423651D-02 -0.225363D-01
     26  0.158789D-02 -0.111320D-02  0.000000D+00  0.688727D-02  0.426931D-02
     27  0.000000D+00  0.000000D+00  0.247397D-02  0.000000D+00  0.000000D+00
     28  0.706990D-02 -0.443216D-02  0.000000D+00 -0.349182D-03  0.109417D-01
     29  0.198952D-02 -0.115012D-02  0.000000D+00  0.500371D-03  0.350104D-02
     30  0.000000D+00  0.000000D+00  0.541108D-04  0.000000D+00  0.000000D+00
     31  0.749131D-02 -0.402750D-02  0.000000D+00 -0.152035D-03  0.616155D-02
     32  0.641576D-02 -0.434132D-02  0.000000D+00 -0.263466D-03  0.607310D-02
     33  0.000000D+00  0.000000D+00  0.292587D-03  0.000000D+00  0.000000D+00
     34 -0.462155D-02  0.711435D-02  0.000000D+00  0.852265D-03 -0.406704D-02
     35 -0.222983D-01  0.467063D-02  0.000000D+00  0.181843D-02 -0.109088D-01
     36  0.000000D+00  0.000000D+00  0.963195D-03  0.000000D+00  0.000000D+00
                6             7             8             9            10 
      6  0.474700D-01
      7  0.000000D+00  0.217628D+00
      8  0.000000D+00  0.420421D+00  0.116759D+01
      9 -0.211801D-01  0.000000D+00  0.000000D+00  0.475644D-01
     10  0.000000D+00  0.718513D-01  0.336514D-01  0.000000D+00  0.217628D+00
     11  0.000000D+00 -0.336514D-01 -0.230555D-01  0.000000D+00 -0.420421D+00
     12 -0.838131D-03  0.000000D+00  0.000000D+00 -0.770726D-02  0.000000D+00
     13  0.000000D+00 -0.884502D-02  0.158669D-02  0.000000D+00 -0.264516D+00
     14  0.000000D+00  0.676531D-01  0.252150D-01  0.000000D+00  0.336256D+00
     15 -0.694147D-03  0.000000D+00  0.000000D+00 -0.838131D-03  0.000000D+00
     16  0.000000D+00 -0.435158D-01 -0.259229D-01  0.000000D+00  0.466621D-01
     17  0.000000D+00 -0.253931D-01 -0.139723D-01  0.000000D+00  0.355602D-01
     18 -0.845360D-03  0.000000D+00  0.000000D+00 -0.687728D-03  0.000000D+00
     19  0.000000D+00 -0.241461D-02 -0.691384D-03  0.000000D+00  0.195991D-02
     20  0.000000D+00  0.975310D-02  0.556786D-02  0.000000D+00 -0.738668D-02
     21  0.111567D-02  0.000000D+00  0.000000D+00  0.294043D-03  0.000000D+00
     22  0.000000D+00  0.893643D-02  0.144754D-01  0.000000D+00 -0.700134D-02
     23  0.000000D+00 -0.149273D-01 -0.887619D-02  0.000000D+00  0.859912D-02
     24 -0.212025D-01  0.000000D+00  0.000000D+00  0.966839D-03  0.000000D+00
     25  0.000000D+00 -0.167715D-02 -0.276187D-01  0.000000D+00 -0.190680D-01
     26  0.000000D+00 -0.479951D-01 -0.410624D+00  0.000000D+00  0.283183D-02
     27  0.968764D-03  0.000000D+00  0.000000D+00 -0.212063D-01  0.000000D+00
     28  0.000000D+00 -0.190680D-01 -0.968625D-02  0.000000D+00 -0.167715D-02
     29  0.000000D+00 -0.283184D-02 -0.259785D-02  0.000000D+00  0.479951D-01
     30  0.292641D-03  0.000000D+00  0.000000D+00  0.112008D-02  0.000000D+00
     31  0.000000D+00 -0.700133D-02 -0.271470D-02  0.000000D+00  0.893644D-02
     32  0.000000D+00 -0.859912D-02 -0.306076D-02  0.000000D+00  0.149273D-01
     33  0.544279D-04  0.000000D+00  0.000000D+00  0.247408D-02  0.000000D+00
     34  0.000000D+00  0.195990D-02  0.956290D-03  0.000000D+00 -0.241462D-02
     35  0.000000D+00  0.738668D-02  0.395907D-02  0.000000D+00 -0.975310D-02
     36  0.247426D-02  0.000000D+00  0.000000D+00  0.548641D-04  0.000000D+00
               11            12            13            14            15 
     11  0.116759D+01
     12  0.000000D+00  0.475644D-01
     13  0.434993D+00  0.000000D+00  0.565760D+00
     14 -0.709887D+00  0.000000D+00 -0.621441D+00  0.819307D+00
     15  0.000000D+00 -0.211801D-01  0.000000D+00  0.000000D+00  0.474700D-01
     16 -0.305363D-01  0.000000D+00  0.727961D-03  0.747626D-01  0.000000D+00
     17 -0.302601D-01  0.000000D+00  0.739535D-02  0.481400D-01  0.000000D+00
     18  0.000000D+00 -0.854788D-03  0.000000D+00  0.000000D+00 -0.761551D-02
     19 -0.956292D-03  0.000000D+00  0.852254D-03  0.406705D-02  0.000000D+00
     20  0.395907D-02  0.000000D+00 -0.181844D-02 -0.109088D-01  0.000000D+00
     21  0.000000D+00  0.548641D-04  0.000000D+00  0.000000D+00  0.247426D-02
     22  0.271471D-02  0.000000D+00 -0.152026D-03 -0.616156D-02  0.000000D+00
     23 -0.306076D-02  0.000000D+00  0.263473D-03  0.607310D-02  0.000000D+00
     24  0.000000D+00  0.247408D-02  0.000000D+00  0.000000D+00  0.544278D-04
     25  0.968624D-02  0.000000D+00 -0.349182D-03 -0.109417D-01  0.000000D+00
     26 -0.259784D-02  0.000000D+00 -0.500362D-03  0.350104D-02  0.000000D+00
     27  0.000000D+00  0.112008D-02  0.000000D+00  0.000000D+00  0.292641D-03
     28  0.276187D-01  0.000000D+00 -0.423651D-02  0.225363D-01  0.000000D+00
     29 -0.410624D+00  0.000000D+00 -0.688726D-02  0.426931D-02  0.000000D+00
     30  0.000000D+00 -0.212063D-01  0.000000D+00  0.000000D+00  0.968764D-03
     31 -0.144754D-01  0.000000D+00 -0.275515D+00  0.206072D+00  0.000000D+00
     32 -0.887618D-02  0.000000D+00  0.185736D+00 -0.136621D+00  0.000000D+00
     33  0.000000D+00  0.966839D-03  0.000000D+00  0.000000D+00 -0.212025D-01
     34  0.691397D-03  0.000000D+00 -0.128860D-02 -0.742884D-02  0.000000D+00
     35  0.556785D-02  0.000000D+00 -0.569718D-03 -0.203659D-01  0.000000D+00
     36  0.000000D+00  0.294043D-03  0.000000D+00  0.000000D+00  0.111567D-02
               16            17            18            19            20 
     16  0.129433D+01
     17 -0.201061D+00  0.911073D-01
     18  0.000000D+00  0.000000D+00  0.474812D-01
     19 -0.462155D-02 -0.711435D-02  0.000000D+00  0.346759D+00
     20  0.222983D-01  0.467063D-02  0.000000D+00  0.143663D+00  0.860958D-01
     21  0.000000D+00  0.000000D+00  0.963195D-03  0.000000D+00  0.000000D+00
     22  0.749131D-02  0.402750D-02  0.000000D+00  0.953338D-03  0.584994D-04
     23 -0.641576D-02 -0.434132D-02  0.000000D+00  0.364109D-02 -0.118671D-02
     24  0.000000D+00  0.000000D+00  0.292586D-03  0.000000D+00  0.000000D+00
     25  0.706990D-02  0.443217D-02  0.000000D+00  0.742767D-03 -0.191464D-02
     26 -0.198951D-02 -0.115012D-02  0.000000D+00 -0.697973D-04  0.120925D-03
     27  0.000000D+00  0.000000D+00  0.541108D-04  0.000000D+00  0.000000D+00
     28 -0.894230D-02 -0.747337D-02  0.000000D+00 -0.168283D-03  0.918753D-03
     29 -0.158789D-02 -0.111320D-02  0.000000D+00 -0.108832D-03  0.299261D-03
     30  0.000000D+00  0.000000D+00  0.247397D-02  0.000000D+00  0.000000D+00
     31 -0.121354D-01 -0.682207D-02  0.000000D+00 -0.583160D-03  0.114958D-02
     32 -0.136835D-01 -0.951665D-02  0.000000D+00 -0.695762D-03  0.144693D-02
     33  0.000000D+00  0.000000D+00  0.112210D-02  0.000000D+00  0.000000D+00
     34 -0.341230D+00  0.148051D+00  0.000000D+00 -0.960129D-03  0.111253D-02
     35  0.168403D+00 -0.711712D-01  0.000000D+00 -0.111253D-02  0.147203D-02
     36  0.000000D+00  0.000000D+00 -0.211996D-01  0.000000D+00  0.000000D+00
               21            22            23            24            25 
     21  0.120056D-01
     22  0.000000D+00  0.275476D+00
     23  0.000000D+00  0.184553D+00  0.157111D+00
     24  0.942305D-03  0.000000D+00  0.000000D+00  0.119998D-01
     25  0.000000D+00  0.860916D-03 -0.215442D-02  0.000000D+00  0.268893D-01
     26  0.000000D+00  0.606998D-04 -0.353997D-03  0.000000D+00  0.410198D-01
     27 -0.991699D-04  0.000000D+00  0.000000D+00  0.396476D-02  0.000000D+00
     28  0.000000D+00  0.113580D-02 -0.168829D-02  0.000000D+00 -0.225732D-02
     29  0.000000D+00  0.156950D-03 -0.272101D-03  0.000000D+00  0.178458D-02
     30 -0.415513D-03  0.000000D+00  0.000000D+00 -0.992935D-04  0.000000D+00
     31  0.000000D+00  0.533244D-03 -0.514090D-03  0.000000D+00  0.113580D-02
     32  0.000000D+00  0.514088D-03 -0.402265D-03  0.000000D+00  0.168829D-02
     33 -0.994712D-04  0.000000D+00  0.000000D+00 -0.415625D-03  0.000000D+00
     34  0.000000D+00 -0.583163D-03  0.695761D-03  0.000000D+00 -0.168281D-03
     35  0.000000D+00 -0.114957D-02  0.144693D-02  0.000000D+00 -0.918753D-03
     36  0.396374D-02  0.000000D+00  0.000000D+00 -0.994712D-04  0.000000D+00
               26            27            28            29            30 
     26  0.405895D+00
     27  0.000000D+00  0.120146D-01
     28 -0.178458D-02  0.000000D+00  0.268893D-01
     29  0.202580D-02  0.000000D+00 -0.410198D-01  0.405895D+00
     30  0.000000D+00  0.931308D-03  0.000000D+00  0.000000D+00  0.120146D-01
     31 -0.156953D-03  0.000000D+00  0.860915D-03 -0.606984D-04  0.000000D+00
     32 -0.272100D-03  0.000000D+00  0.215442D-02 -0.353999D-03  0.000000D+00
     33  0.000000D+00 -0.992935D-04  0.000000D+00  0.000000D+00  0.396476D-02
     34  0.108832D-03  0.000000D+00  0.742767D-03  0.697934D-04  0.000000D+00
     35  0.299262D-03  0.000000D+00  0.191464D-02  0.120926D-03  0.000000D+00
     36  0.000000D+00 -0.415513D-03  0.000000D+00  0.000000D+00 -0.991699D-04
               31            32            33            34            35 
     31  0.275476D+00
     32 -0.184553D+00  0.157111D+00
     33  0.000000D+00  0.000000D+00  0.119998D-01
     34  0.953340D-03 -0.364109D-02  0.000000D+00  0.346759D+00
     35 -0.585001D-04 -0.118671D-02  0.000000D+00 -0.143663D+00  0.860958D-01
     36  0.000000D+00  0.000000D+00  0.942305D-03  0.000000D+00  0.000000D+00
               36 
     36  0.120056D-01
 Force constants in internal coordinates: 
                1             2             3             4             5 
      1  0.600572D-03
      2  0.139955D-01  0.924848D+00
      3 -0.951057D-02 -0.176079D-01  0.409906D+00
      4 -0.285329D-02 -0.246655D-01  0.433276D-02  0.211453D-01
      5 -0.183121D-02  0.206626D-02  0.391710D-03  0.291008D-01  0.942495D+00
      6 -0.764589D-02  0.235363D-01 -0.444504D-02 -0.422006D-02 -0.519542D-02
      7 -0.133547D-01  0.981561D-02 -0.190646D-03  0.144889D-02 -0.205049D-01
      8 -0.184272D-01  0.514218D-01  0.542398D-02  0.475294D-02  0.981131D-02
      9 -0.333999D-02 -0.156135D-01 -0.333266D-02 -0.329325D-02 -0.305870D-02
     10 -0.167456D-02 -0.457631D-03 -0.629825D-03 -0.761839D-03  0.107422D-02
     11  0.720037D-01  0.206628D-02  0.127858D-01 -0.160158D-01 -0.138173D-01
     12 -0.229345D-03 -0.457631D-03  0.127270D-02  0.448276D-03 -0.496352D-03
     13  0.996261D-02 -0.156135D-01 -0.749402D-03 -0.921891D-02  0.645567D-02
     14 -0.204206D-01  0.139955D-01 -0.937095D-02 -0.107655D-02  0.720037D-01
     15  0.759392D-02  0.981560D-02  0.107313D-02 -0.346221D-03  0.709994D-02
     16  0.714550D-02  0.235363D-01  0.107692D-01  0.530635D-03 -0.275722D-01
     17 -0.107655D-02 -0.246655D-01 -0.185975D-02  0.775436D-03 -0.160158D-01
     18 -0.937095D-02 -0.176079D-01 -0.687540D-02 -0.185975D-02  0.127858D-01
     19 -0.161580D-01  0.864340D-01  0.290819D-01 -0.124951D-01  0.128570D-02
     20 -0.809632D-02 -0.348238D-01  0.135504D-01  0.547168D-02  0.961103D-01
     21 -0.750513D-02  0.390361D-01  0.668344D-03  0.323177D-02 -0.322404D-01
     22 -0.187037D-02 -0.170438D-01  0.627391D-03 -0.181270D-02  0.366389D-01
     23 -0.478256D-02  0.346363D-01  0.456375D-03  0.111131D-02 -0.310240D-01
     24  0.665293D-02 -0.175925D-01 -0.108377D-02  0.701387D-03 -0.561487D-02
     25 -0.170901D-02  0.390361D-01  0.537375D-02  0.241881D-02 -0.818256D-02
     26 -0.213705D-02  0.346363D-01  0.441742D-02  0.155028D-02 -0.900677D-02
     27 -0.436139D-02 -0.170438D-01 -0.257356D-02 -0.148596D-02  0.135598D-01
     28  0.649844D-02 -0.175925D-01 -0.184385D-02 -0.643200D-04 -0.455307D-02
     29 -0.112228D-01 -0.348238D-01 -0.428989D-02 -0.219787D-03 -0.189501D-01
     30  0.485995D-02  0.864340D-01  0.218775D-01  0.996060D-04 -0.409594D-01
     31  0.000000D+00  0.000000D+00  0.000000D+00  0.000000D+00  0.000000D+00
     32  0.000000D+00  0.000000D+00  0.000000D+00  0.000000D+00  0.000000D+00
     33  0.000000D+00  0.000000D+00  0.000000D+00  0.000000D+00  0.000000D+00
     34  0.000000D+00  0.000000D+00  0.000000D+00  0.000000D+00  0.000000D+00
     35  0.000000D+00  0.000000D+00  0.000000D+00  0.000000D+00  0.000000D+00
     36  0.000000D+00  0.000000D+00  0.000000D+00  0.000000D+00  0.000000D+00
     37  0.000000D+00  0.000000D+00  0.000000D+00  0.000000D+00  0.000000D+00
     38  0.000000D+00  0.000000D+00  0.000000D+00  0.000000D+00  0.000000D+00
                6             7             8             9            10 
      6  0.256115D-01
      7  0.410168D-02  0.405956D+00
      8 -0.921773D-03 -0.740637D-02  0.641269D-02
      9  0.501515D-02  0.193730D-02 -0.307997D-01  0.354275D+00
     10  0.144190D-02 -0.299661D-03 -0.536048D-02  0.263411D-01  0.143540D-01
     11 -0.275722D-01  0.709992D-02  0.981131D-02  0.645568D-02 -0.496350D-03
     12 -0.335453D-03  0.173058D-02 -0.536048D-02  0.205569D-01  0.266745D-02
     13  0.793475D-03  0.628437D-02 -0.307997D-01 -0.344618D-01  0.205569D-01
     14  0.714550D-02  0.759392D-02 -0.184272D-01  0.996261D-02 -0.229346D-03
     15 -0.126527D-02  0.137752D-03 -0.740637D-02  0.628437D-02  0.173058D-02
     16 -0.512235D-02 -0.126527D-02 -0.921774D-03  0.793475D-03 -0.335453D-03
     17  0.530634D-03 -0.346222D-03  0.475294D-02 -0.921891D-02  0.448277D-03
     18  0.107692D-01  0.107313D-02  0.542398D-02 -0.749401D-03  0.127270D-02
     19  0.126245D-01  0.129557D-01 -0.106258D-01  0.961745D-02  0.917455D-03
     20 -0.129622D-01  0.397262D-01  0.884221D-03 -0.376127D-02 -0.152548D-02
     21  0.177224D-02 -0.130571D-01  0.103954D-01  0.171565D-01  0.135482D-02
     22 -0.108081D-02  0.894470D-02 -0.103334D-01  0.246501D-01 -0.328606D-03
     23  0.185103D-02 -0.114735D-01  0.370275D-02  0.767370D-02  0.495951D-02
     24 -0.770221D-03  0.252883D-02  0.663065D-02 -0.323238D-01 -0.463090D-02
     25 -0.272068D-02 -0.550567D-02  0.103954D-01 -0.348057D-01 -0.353799D-02
     26 -0.153426D-02 -0.507902D-02  0.370275D-02  0.448018D-01  0.234034D-02
     27  0.166184D-02  0.330199D-02 -0.103334D-01 -0.585239D-03 -0.275443D-02
     28 -0.127580D-03  0.177703D-02  0.663065D-02 -0.442165D-01  0.414088D-03
     29  0.312042D-02  0.456816D-03  0.884221D-03 -0.162125D-01 -0.324791D-02
     30 -0.114010D-01 -0.173764D-02 -0.106258D-01  0.343087D-02 -0.184496D-03
     31  0.000000D+00  0.000000D+00  0.000000D+00  0.000000D+00  0.000000D+00
     32  0.000000D+00  0.000000D+00  0.000000D+00  0.000000D+00  0.000000D+00
     33  0.000000D+00  0.000000D+00  0.000000D+00  0.000000D+00  0.000000D+00
     34  0.000000D+00  0.000000D+00  0.000000D+00  0.000000D+00  0.000000D+00
     35  0.000000D+00  0.000000D+00  0.000000D+00  0.000000D+00  0.000000D+00
     36  0.000000D+00  0.000000D+00  0.000000D+00  0.000000D+00  0.000000D+00
     37  0.000000D+00  0.000000D+00  0.000000D+00  0.000000D+00  0.000000D+00
     38  0.000000D+00  0.000000D+00  0.000000D+00  0.000000D+00  0.000000D+00
               11            12            13            14            15 
     11  0.942495D+00
     12  0.107422D-02  0.143540D-01
     13 -0.305869D-02  0.263411D-01  0.354275D+00
     14 -0.183120D-02 -0.167456D-02 -0.333999D-02  0.600571D-03
     15 -0.205049D-01 -0.299661D-03  0.193730D-02 -0.133547D-01  0.405956D+00
     16 -0.519542D-02  0.144190D-02  0.501515D-02 -0.764589D-02  0.410168D-02
     17  0.291008D-01 -0.761839D-03 -0.329325D-02 -0.285329D-02  0.144889D-02
     18  0.391723D-03 -0.629825D-03 -0.333267D-02 -0.951057D-02 -0.190643D-03
     19 -0.409594D-01 -0.184496D-03  0.343087D-02  0.485995D-02 -0.173765D-02
     20 -0.189501D-01 -0.324791D-02 -0.162125D-01 -0.112228D-01  0.456820D-03
     21 -0.818255D-02 -0.353799D-02 -0.348057D-01 -0.170901D-02 -0.550567D-02
     22  0.135598D-01 -0.275443D-02 -0.585238D-03 -0.436139D-02  0.330199D-02
     23 -0.900677D-02  0.234034D-02  0.448018D-01 -0.213705D-02 -0.507902D-02
     24 -0.455308D-02  0.414088D-03 -0.442165D-01  0.649844D-02  0.177703D-02
     25 -0.322404D-01  0.135482D-02  0.171565D-01 -0.750513D-02 -0.130571D-01
     26 -0.310240D-01  0.495951D-02  0.767370D-02 -0.478256D-02 -0.114735D-01
     27  0.366389D-01 -0.328606D-03  0.246501D-01 -0.187037D-02  0.894470D-02
     28 -0.561487D-02 -0.463090D-02 -0.323238D-01  0.665293D-02  0.252883D-02
     29  0.961103D-01 -0.152548D-02 -0.376127D-02 -0.809632D-02  0.397262D-01
     30  0.128571D-02  0.917455D-03  0.961745D-02 -0.161580D-01  0.129557D-01
     31  0.000000D+00  0.000000D+00  0.000000D+00  0.000000D+00  0.000000D+00
     32  0.000000D+00  0.000000D+00  0.000000D+00  0.000000D+00  0.000000D+00
     33  0.000000D+00  0.000000D+00  0.000000D+00  0.000000D+00  0.000000D+00
     34  0.000000D+00  0.000000D+00  0.000000D+00  0.000000D+00  0.000000D+00
     35  0.000000D+00  0.000000D+00  0.000000D+00  0.000000D+00  0.000000D+00
     36  0.000000D+00  0.000000D+00  0.000000D+00  0.000000D+00  0.000000D+00
     37  0.000000D+00  0.000000D+00  0.000000D+00  0.000000D+00  0.000000D+00
     38  0.000000D+00  0.000000D+00  0.000000D+00  0.000000D+00  0.000000D+00
               16            17            18            19            20 
     16  0.256115D-01
     17 -0.422006D-02  0.211453D-01
     18 -0.444503D-02  0.433276D-02  0.409906D+00
     19 -0.114010D-01  0.996064D-04  0.218775D-01  0.495846D-01
     20  0.312041D-02 -0.219787D-03 -0.428989D-02 -0.248939D-01  0.385626D-01
     21 -0.272068D-02  0.241881D-02  0.537375D-02  0.231816D-02  0.265116D-02
     22  0.166184D-02 -0.148596D-02 -0.257356D-02 -0.549563D-02 -0.121568D-02
     23 -0.153426D-02  0.155028D-02  0.441741D-02  0.320671D-02 -0.935131D-03
     24 -0.127580D-03 -0.643199D-04 -0.184385D-02  0.228892D-02  0.215081D-02
     25  0.177224D-02  0.323177D-02  0.668344D-03 -0.437297D-02  0.628066D-02
     26  0.185103D-02  0.111131D-02  0.456375D-03 -0.198405D-02  0.567356D-02
     27 -0.108081D-02 -0.181270D-02  0.627391D-03 -0.570215D-03 -0.813540D-02
     28 -0.770221D-03  0.701387D-03 -0.108377D-02  0.255426D-02  0.246184D-02
     29 -0.129622D-01  0.547168D-02  0.135504D-01 -0.414843D-02 -0.729883D-02
     30  0.126245D-01 -0.124951D-01  0.290819D-01 -0.156647D-01 -0.414843D-02
     31  0.000000D+00  0.000000D+00  0.000000D+00  0.000000D+00  0.000000D+00
     32  0.000000D+00  0.000000D+00  0.000000D+00  0.000000D+00  0.000000D+00
     33  0.000000D+00  0.000000D+00  0.000000D+00  0.000000D+00  0.000000D+00
     34  0.000000D+00  0.000000D+00  0.000000D+00  0.000000D+00  0.000000D+00
     35  0.000000D+00  0.000000D+00  0.000000D+00  0.000000D+00  0.000000D+00
     36  0.000000D+00  0.000000D+00  0.000000D+00  0.000000D+00  0.000000D+00
     37  0.000000D+00  0.000000D+00  0.000000D+00  0.000000D+00  0.000000D+00
     38  0.000000D+00  0.000000D+00  0.000000D+00  0.000000D+00  0.000000D+00
               21            22            23            24            25 
     21  0.203485D-01
     22 -0.101969D-01  0.113932D-01
     23  0.121259D-01 -0.101270D-01  0.218705D-01
     24 -0.192898D-02 -0.126619D-02 -0.117435D-01  0.130097D-01
     25  0.277941D-03 -0.263643D-02  0.430065D-02 -0.166422D-02  0.203485D-01
     26  0.430065D-02  0.338441D-02  0.579550D-02 -0.917991D-02  0.121259D-01
     27 -0.263643D-02 -0.226915D-02  0.338441D-02 -0.111527D-02 -0.101969D-01
     28 -0.166422D-02 -0.111527D-02 -0.917991D-02  0.102952D-01 -0.192898D-02
     29  0.628066D-02 -0.813540D-02  0.567356D-02  0.246184D-02  0.265116D-02
     30 -0.437297D-02 -0.570214D-03 -0.198405D-02  0.255426D-02  0.231816D-02
     31  0.000000D+00  0.000000D+00  0.000000D+00  0.000000D+00  0.000000D+00
     32  0.000000D+00  0.000000D+00  0.000000D+00  0.000000D+00  0.000000D+00
     33  0.000000D+00  0.000000D+00  0.000000D+00  0.000000D+00  0.000000D+00
     34  0.000000D+00  0.000000D+00  0.000000D+00  0.000000D+00  0.000000D+00
     35  0.000000D+00  0.000000D+00  0.000000D+00  0.000000D+00  0.000000D+00
     36  0.000000D+00  0.000000D+00  0.000000D+00  0.000000D+00  0.000000D+00
     37  0.000000D+00  0.000000D+00  0.000000D+00  0.000000D+00  0.000000D+00
     38  0.000000D+00  0.000000D+00  0.000000D+00  0.000000D+00  0.000000D+00
               26            27            28            29            30 
     26  0.218705D-01
     27 -0.101270D-01  0.113932D-01
     28 -0.117435D-01 -0.126619D-02  0.130097D-01
     29 -0.935131D-03 -0.121568D-02  0.215081D-02  0.385626D-01
     30  0.320671D-02 -0.549563D-02  0.228892D-02 -0.248939D-01  0.495846D-01
     31  0.000000D+00  0.000000D+00  0.000000D+00  0.000000D+00  0.000000D+00
     32  0.000000D+00  0.000000D+00  0.000000D+00  0.000000D+00  0.000000D+00
     33  0.000000D+00  0.000000D+00  0.000000D+00  0.000000D+00  0.000000D+00
     34  0.000000D+00  0.000000D+00  0.000000D+00  0.000000D+00  0.000000D+00
     35  0.000000D+00  0.000000D+00  0.000000D+00  0.000000D+00  0.000000D+00
     36  0.000000D+00  0.000000D+00  0.000000D+00  0.000000D+00  0.000000D+00
     37  0.000000D+00  0.000000D+00  0.000000D+00  0.000000D+00  0.000000D+00
     38  0.000000D+00  0.000000D+00  0.000000D+00  0.000000D+00  0.000000D+00
               31            32            33            34            35 
     31  0.382300D-02
     32  0.843166D-03  0.144947D-01
     33 -0.286587D-03 -0.682617D-02  0.700052D-02
     34 -0.292519D-03  0.209729D-02 -0.215853D-02  0.403851D-02
     35  0.102118D-02  0.920897D-02 -0.306478D-02 -0.887162D-03  0.810810D-02
     36  0.843166D-03  0.115471D-01 -0.524233D-02 -0.233016D-02  0.920897D-02
     37 -0.292519D-03 -0.233016D-02  0.157430D-02 -0.305391D-02 -0.887162D-03
     38 -0.286587D-03 -0.524233D-02  0.200408D-02  0.157430D-02 -0.306478D-02
               36            37            38 
     36  0.144947D-01
     37  0.209729D-02  0.403851D-02
     38 -0.682617D-02 -0.215853D-02  0.700052D-02
 Leave Link  716 at Mon Sep 09 02:00:40 2013, MaxMem=  196608000 cpu:       0.0
 (Enter d:\study\G09W\l123.exe)
 IRC-IRC-IRC-IRC-IRC-IRC-IRC-IRC-IRC-IRC-IRC-IRC-IRC-IRC-IRC-IRC-IRC-IRC
          ******** Start new reaction path calculation ********
 Current Structure is TS -> diagonalize the Hessian.
 Supplied step size of   0.1000 bohr.
    Integration on MW PES will use step size of   0.1000 sqrt(amu)*bohr.
 Point Number:   0          Path Number:   1
 Calculating another point on the path.
 Point Number  1 in FORWARD path direction.
 Using LQA Reaction Path Following.
 IRC-IRC-IRC-IRC-IRC-IRC-IRC-IRC-IRC-IRC-IRC-IRC-IRC-IRC-IRC-IRC-IRC-IRC
 Leave Link  123 at Mon Sep 09 02:00:40 2013, MaxMem=  196608000 cpu:       0.0
 (Enter d:\study\G09W\l202.exe)
                          Input orientation:                          
 ---------------------------------------------------------------------
 Center     Atomic      Atomic             Coordinates (Angstroms)
 Number     Number       Type             X           Y           Z
 ---------------------------------------------------------------------
      1          6           0        0.617871    1.678768    0.000000
      2          6           0        1.762790   -0.304294    0.000000
      3          6           0        1.144917   -1.374477    0.000000
      4          6           0       -1.144917   -1.374477    0.000000
      5          6           0       -1.762790   -0.304294    0.000000
      6          6           0       -0.617871    1.678768    0.000000
      7          1           0        1.569068    2.164980    0.000000
      8          1           0        2.659458    0.276366    0.000000
      9          1           0        1.090389   -2.441344    0.000000
     10          1           0       -1.090389   -2.441344    0.000000
     11          1           0       -2.659458    0.276366    0.000000
     12          1           0       -1.569068    2.164980    0.000000
 ---------------------------------------------------------------------
                    Distance matrix (angstroms):
                    1          2          3          4          5
     1  C    0.000000
     2  C    2.289841   0.000000
     3  C    3.098401   1.235742   0.000000
     4  C    3.525583   3.098395   2.289834   0.000000
     5  C    3.098400   3.525579   3.098395   1.235742   0.000000
     6  C    1.235743   3.098400   3.525583   3.098401   2.289841
     7  H    1.068259   2.476861   3.564781   4.460210   4.147118
     8  H    2.476855   1.068260   2.240339   4.147114   4.460207
     9  H    4.147119   2.240336   1.068259   2.476852   3.564774
    10  H    4.460210   3.564774   2.476852   1.068259   2.240336
    11  H    3.564775   4.460207   4.147114   2.240339   1.068260
    12  H    2.240336   4.147118   4.460210   3.564781   2.476861
                    6          7          8          9         10
     6  C    0.000000
     7  H    2.240336   0.000000
     8  H    3.564775   2.180783   0.000000
     9  H    4.460210   4.631129   3.138140   0.000000
    10  H    4.147119   5.318922   4.631123   2.180778   0.000000
    11  H    2.476855   4.631123   5.318916   4.631123   3.138140
    12  H    1.068259   3.138136   4.631123   5.318922   4.631129
                   11         12
    11  H    0.000000
    12  H    2.180783   0.000000
 Symmetry turned off by external request.
 Stoichiometry    C6H6
 Framework group  CS[SG(C6H6)]
 Deg. of freedom    21
 Full point group                 CS      NOp   2
 Rotational constants (GHZ):      3.6938649      3.6938516      1.8469291
 Leave Link  202 at Mon Sep 09 02:00:40 2013, MaxMem=  196608000 cpu:       0.0
 (Enter d:\study\G09W\l301.exe)
 Standard basis: 6-31G(d,p) (6D, 7F)
 Ernie: Thresh=  0.10000D-02 Tol=  0.10000D-05 Strict=F.
 Integral buffers will be    262144 words long.
 Raffenetti 2 integral format.
 Two-electron integral symmetry is turned off.
   120 basis functions,   210 primitive gaussians,   120 cartesian basis functions
    21 alpha electrons       21 beta electrons
       nuclear repulsion energy       174.7627885226 Hartrees.
 IExCor=  402 DFT=T Ex+Corr=B3LYP ExCW=0 ScaHFX=  0.200000
 ScaDFX=  0.800000  0.720000  1.000000  0.810000 ScalE2=  1.000000  1.000000
 IRadAn=      0 IRanWt=     -1 IRanGd=            0 ICorTp=0
 NAtoms=   12 NActive=   12 NUniq=   12 SFac= 7.50D-01 NAtFMM=   80 NAOKFM=F Big=F
 Leave Link  301 at Mon Sep 09 02:00:40 2013, MaxMem=  196608000 cpu:       0.0
 (Enter d:\study\G09W\l302.exe)
 NPDir=0 NMtPBC=     1 NCelOv=     1 NCel=       1 NClECP=     1 NCelD=      1
         NCelK=      1 NCelE2=     1 NClLst=     1 CellRange=     0.0.
 One-electron integrals computed using PRISM.
 NBasis=   120 RedAO= T  NBF=   120
 NBsUse=   120 1.00D-06 NBFU=   120
 Precomputing XC quadrature grid using
 IXCGrd= 2 IRadAn=           0 IRanWt=          -1 IRanGd=           0 AccXCQ= 1.00D-10.
 NRdTot=     744 NPtTot=       94656 NUsed=       98136 NTot=       98152
 NSgBfM=   120   120   120   120   120 NAtAll=    12    12.
 Leave Link  302 at Mon Sep 09 02:00:40 2013, MaxMem=  196608000 cpu:       0.0
 (Enter d:\study\G09W\l303.exe)
 DipDrv:  MaxL=1.
 Leave Link  303 at Mon Sep 09 02:00:40 2013, MaxMem=  196608000 cpu:       0.0
 (Enter d:\study\G09W\l401.exe)
 Initial guess read from the read-write file.
 B after Tr=     0.000000    0.000000    0.000000
         Rot=    1.000000    0.000000    0.000000    0.000000 Ang=   0.00 deg.
 Guess basis will be translated and rotated to current coordinates.
 Generating alternative initial guess.
 Harris functional with IExCor=  402 diagonalized for initial guess.
 ExpMin= 1.61D-01 ExpMax= 3.05D+03 ExpMxC= 4.57D+02 IAcc=1 IRadAn=         1 AccDes= 0.00D+00
 HarFok:  IExCor=  402 AccDes= 0.00D+00 IRadAn=         1 IDoV= 1
 ScaDFX=  1.000000  1.000000  1.000000  1.000000
 FoFCou: FMM=F IPFlag=           0 FMFlag=      100000 FMFlg1=           0
         NFxFlg=           0 DoJE=T BraDBF=F KetDBF=T FulRan=T
         Omega=  0.000000  0.000000  1.000000  0.000000  0.000000 ICntrl=     500 IOpCl=  0
         NMat0=    1 NMatS0=    1 NMatT0=    0 NMatD0=    1 NMtDS0=    0 NMtDT0=    0
         I1Cent=           4 NGrid=           0.
 Symmetry not used in FoFCou.
 Harris En= -232.055035484114    
 Leave Link  401 at Mon Sep 09 02:00:41 2013, MaxMem=  196608000 cpu:       1.0
 (Enter d:\study\G09W\l502.exe)
 Closed shell SCF:
 Requested convergence on RMS density matrix=1.00D-08 within 128 cycles.
 Requested convergence on MAX density matrix=1.00D-06.
 Requested convergence on             energy=1.00D-06.
 No special actions if energy rises.
 Using DIIS extrapolation, IDIIS=  1040.
 Two-electron integral symmetry not used.
        98028 words used for storage of precomputed grid.
 Keep R1 ints in memory in canonical form, NReq=27456431.
 IEnd=      160756 IEndB=      160756 NGot=   196608000 MDV=   170120947
 LenX=   170120947 LenY=   170106106
 Symmetry not used in FoFDir.
 MinBra= 0 MaxBra= 2 Meth= 1.
 IRaf=       0 NMat=   1 IRICut=       1 DoRegI=T DoRafI=F ISym2E= 0 JSym2E=0.
 Integral accuracy reduced to 1.0D-05 until final iterations.

 Cycle   1  Pass 0  IDiag  1:
 E= -231.921307876264    
 DIIS: error= 2.41D-03 at cycle   1 NSaved=   1.
 NSaved= 1 IEnMin= 1 EnMin= -231.921307876264     IErMin= 1 ErrMin= 2.41D-03
 ErrMax= 2.41D-03 EMaxC= 1.00D-01 BMatC= 2.91D-04 BMatP= 2.91D-04
 IDIUse=3 WtCom= 9.76D-01 WtEn= 2.41D-02
 Coeff-Com:  0.100D+01
 Coeff-En:   0.100D+01
 Coeff:      0.100D+01
 Gap=     0.223 Goal=   None    Shift=    0.000
 GapD=    0.223 DampG=1.000 DampE=1.000 DampFc=1.0000 IDamp=-1.
 RMSDP=4.37D-04 MaxDP=7.04D-03              OVMax= 2.74D-02

 Cycle   2  Pass 0  IDiag  1:
 E= -231.922424180424     Delta-E=       -0.001116304161 Rises=F Damp=F
 DIIS: error= 5.89D-04 at cycle   2 NSaved=   2.
 NSaved= 2 IEnMin= 2 EnMin= -231.922424180424     IErMin= 2 ErrMin= 5.89D-04
 ErrMax= 5.89D-04 EMaxC= 1.00D-01 BMatC= 4.75D-05 BMatP= 2.91D-04
 IDIUse=3 WtCom= 9.94D-01 WtEn= 5.89D-03
 Coeff-Com:  0.105D+00 0.895D+00
 Coeff-En:   0.000D+00 0.100D+01
 Coeff:      0.105D+00 0.895D+00
 Gap=     0.222 Goal=   None    Shift=    0.000
 RMSDP=1.23D-04 MaxDP=1.30D-03 DE=-1.12D-03 OVMax= 4.12D-03

 Cycle   3  Pass 0  IDiag  1:
 E= -231.922489058082     Delta-E=       -0.000064877657 Rises=F Damp=F
 DIIS: error= 3.43D-04 at cycle   3 NSaved=   3.
 NSaved= 3 IEnMin= 3 EnMin= -231.922489058082     IErMin= 3 ErrMin= 3.43D-04
 ErrMax= 3.43D-04 EMaxC= 1.00D-01 BMatC= 1.38D-05 BMatP= 4.75D-05
 IDIUse=3 WtCom= 9.97D-01 WtEn= 3.43D-03
 Coeff-Com: -0.620D-01 0.350D+00 0.712D+00
 Coeff-En:   0.000D+00 0.000D+00 0.100D+01
 Coeff:     -0.618D-01 0.349D+00 0.713D+00
 Gap=     0.222 Goal=   None    Shift=    0.000
 RMSDP=6.07D-05 MaxDP=6.88D-04 DE=-6.49D-05 OVMax= 2.80D-03

 Cycle   4  Pass 0  IDiag  1:
 E= -231.922510310895     Delta-E=       -0.000021252814 Rises=F Damp=F
 DIIS: error= 6.58D-05 at cycle   4 NSaved=   4.
 NSaved= 4 IEnMin= 4 EnMin= -231.922510310895     IErMin= 4 ErrMin= 6.58D-05
 ErrMax= 6.58D-05 EMaxC= 1.00D-01 BMatC= 4.60D-07 BMatP= 1.38D-05
 IDIUse=1 WtCom= 1.00D+00 WtEn= 0.00D+00
 Coeff-Com: -0.115D-01 0.858D-02 0.158D+00 0.845D+00
 Coeff:     -0.115D-01 0.858D-02 0.158D+00 0.845D+00
 Gap=     0.222 Goal=   None    Shift=    0.000
 RMSDP=1.30D-05 MaxDP=1.58D-04 DE=-2.13D-05 OVMax= 5.32D-04

 Cycle   5  Pass 0  IDiag  1:
 E= -231.922511081830     Delta-E=       -0.000000770935 Rises=F Damp=F
 DIIS: error= 2.16D-05 at cycle   5 NSaved=   5.
 NSaved= 5 IEnMin= 5 EnMin= -231.922511081830     IErMin= 5 ErrMin= 2.16D-05
 ErrMax= 2.16D-05 EMaxC= 1.00D-01 BMatC= 2.82D-08 BMatP= 4.60D-07
 IDIUse=1 WtCom= 1.00D+00 WtEn= 0.00D+00
 Coeff-Com:  0.200D-02-0.348D-01-0.182D-01 0.211D+00 0.840D+00
 Coeff:      0.200D-02-0.348D-01-0.182D-01 0.211D+00 0.840D+00
 Gap=     0.222 Goal=   None    Shift=    0.000
 RMSDP=3.28D-06 MaxDP=3.30D-05 DE=-7.71D-07 OVMax= 1.68D-04

 Initial convergence to 1.0D-05 achieved.  Increase integral accuracy.
 Cycle   6  Pass 1  IDiag  1:
 E= -231.922519123498     Delta-E=       -0.000008041668 Rises=F Damp=F
 DIIS: error= 1.76D-05 at cycle   1 NSaved=   1.
 NSaved= 1 IEnMin= 1 EnMin= -231.922519123498     IErMin= 1 ErrMin= 1.76D-05
 ErrMax= 1.76D-05 EMaxC= 1.00D-01 BMatC= 1.32D-08 BMatP= 1.32D-08
 IDIUse=1 WtCom= 1.00D+00 WtEn= 0.00D+00
 Coeff-Com:  0.100D+01
 Coeff:      0.100D+01
 Gap=     0.222 Goal=   None    Shift=    0.000
 RMSDP=3.28D-06 MaxDP=3.30D-05 DE=-8.04D-06 OVMax= 8.56D-05

 Cycle   7  Pass 1  IDiag  1:
 E= -231.922519140559     Delta-E=       -0.000000017061 Rises=F Damp=F
 DIIS: error= 6.56D-06 at cycle   2 NSaved=   2.
 NSaved= 2 IEnMin= 2 EnMin= -231.922519140559     IErMin= 2 ErrMin= 6.56D-06
 ErrMax= 6.56D-06 EMaxC= 1.00D-01 BMatC= 4.26D-09 BMatP= 1.32D-08
 IDIUse=1 WtCom= 1.00D+00 WtEn= 0.00D+00
 Coeff-Com:  0.286D+00 0.714D+00
 Coeff:      0.286D+00 0.714D+00
 Gap=     0.222 Goal=   None    Shift=    0.000
 RMSDP=1.29D-06 MaxDP=2.17D-05 DE=-1.71D-08 OVMax= 7.10D-05

 Cycle   8  Pass 1  IDiag  1:
 E= -231.922519135338     Delta-E=        0.000000005221 Rises=F Damp=F
 DIIS: error= 8.49D-06 at cycle   3 NSaved=   3.
 NSaved= 3 IEnMin= 2 EnMin= -231.922519140559     IErMin= 2 ErrMin= 6.56D-06
 ErrMax= 8.49D-06 EMaxC= 1.00D-01 BMatC= 8.86D-09 BMatP= 4.26D-09
 IDIUse=1 WtCom= 1.00D+00 WtEn= 0.00D+00
 Coeff-Com: -0.107D-01 0.598D+00 0.413D+00
 Coeff:     -0.107D-01 0.598D+00 0.413D+00
 Gap=     0.222 Goal=   None    Shift=    0.000
 RMSDP=7.74D-07 MaxDP=1.45D-05 DE= 5.22D-09 OVMax= 3.91D-05

 Cycle   9  Pass 1  IDiag  1:
 E= -231.922519145417     Delta-E=       -0.000000010079 Rises=F Damp=F
 DIIS: error= 2.17D-06 at cycle   4 NSaved=   4.
 NSaved= 4 IEnMin= 4 EnMin= -231.922519145417     IErMin= 4 ErrMin= 2.17D-06
 ErrMax= 2.17D-06 EMaxC= 1.00D-01 BMatC= 4.92D-10 BMatP= 4.26D-09
 IDIUse=1 WtCom= 1.00D+00 WtEn= 0.00D+00
 Coeff-Com: -0.252D-01 0.350D+00 0.277D+00 0.398D+00
 Coeff:     -0.252D-01 0.350D+00 0.277D+00 0.398D+00
 Gap=     0.222 Goal=   None    Shift=    0.000
 RMSDP=1.55D-07 MaxDP=3.43D-06 DE=-1.01D-08 OVMax= 7.28D-06

 Cycle  10  Pass 1  IDiag  1:
 E= -231.922519145946     Delta-E=       -0.000000000529 Rises=F Damp=F
 DIIS: error= 1.90D-07 at cycle   5 NSaved=   5.
 NSaved= 5 IEnMin= 5 EnMin= -231.922519145946     IErMin= 5 ErrMin= 1.90D-07
 ErrMax= 1.90D-07 EMaxC= 1.00D-01 BMatC= 2.54D-12 BMatP= 4.92D-10
 IDIUse=1 WtCom= 1.00D+00 WtEn= 0.00D+00
 Coeff-Com: -0.450D-02 0.462D-01 0.505D-01 0.747D-01 0.833D+00
 Coeff:     -0.450D-02 0.462D-01 0.505D-01 0.747D-01 0.833D+00
 Gap=     0.222 Goal=   None    Shift=    0.000
 RMSDP=2.04D-08 MaxDP=2.47D-07 DE=-5.29D-10 OVMax= 9.41D-07

 Cycle  11  Pass 1  IDiag  1:
 E= -231.922519145945     Delta-E=        0.000000000001 Rises=F Damp=F
 DIIS: error= 2.38D-08 at cycle   6 NSaved=   6.
 NSaved= 6 IEnMin= 5 EnMin= -231.922519145946     IErMin= 6 ErrMin= 2.38D-08
 ErrMax= 2.38D-08 EMaxC= 1.00D-01 BMatC= 7.40D-14 BMatP= 2.54D-12
 IDIUse=1 WtCom= 1.00D+00 WtEn= 0.00D+00
 Coeff-Com: -0.438D-03 0.115D-02 0.519D-02 0.743D-02 0.237D+00 0.750D+00
 Coeff:     -0.438D-03 0.115D-02 0.519D-02 0.743D-02 0.237D+00 0.750D+00
 Gap=     0.222 Goal=   None    Shift=    0.000
 RMSDP=4.81D-09 MaxDP=4.73D-08 DE= 1.02D-12 OVMax= 1.34D-07

 SCF Done:  E(RB3LYP) =  -231.922519146     A.U. after   11 cycles
             Convg  =    0.4806D-08             -V/T =  2.0106
 KE= 2.295001177628D+02 PE=-8.866822671634D+02 EE= 2.504968417321D+02
 Leave Link  502 at Mon Sep 09 02:00:48 2013, MaxMem=  196608000 cpu:       7.0
 (Enter d:\study\G09W\l801.exe)
 Range of M.O.s used for correlation:     1   120
 NBasis=   120 NAE=    21 NBE=    21 NFC=     0 NFV=     0
 NROrb=    120 NOA=    21 NOB=    21 NVA=    99 NVB=    99
 Leave Link  801 at Mon Sep 09 02:00:48 2013, MaxMem=  196608000 cpu:       0.0
 (Enter d:\study\G09W\l1101.exe)
 Leave Link 1101 at Mon Sep 09 02:00:48 2013, MaxMem=  196608000 cpu:       0.0
 (Enter d:\study\G09W\l1102.exe)
 Symmetrizing basis deriv contribution to polar:
 IMax=3 JMax=2 DiffMx= 0.00D+00
 Leave Link 1102 at Mon Sep 09 02:00:48 2013, MaxMem=  196608000 cpu:       0.0
 (Enter d:\study\G09W\l1110.exe)
 Leave Link 1110 at Mon Sep 09 02:00:48 2013, MaxMem=  196608000 cpu:       0.0
 (Enter d:\study\G09W\l1002.exe)
 Minotr:  Closed shell wavefunction.
 Leave Link 1002 at Mon Sep 09 02:00:48 2013, MaxMem=  196608000 cpu:       0.0
 (Enter d:\study\G09W\l701.exe)
 Compute integral first derivatives.
 ... and contract with generalized density number  0.
 Leave Link  701 at Mon Sep 09 02:00:49 2013, MaxMem=  196608000 cpu:       1.0
 (Enter d:\study\G09W\l702.exe)
 L702 exits ... SP integral derivatives will be done elsewhere.
 Leave Link  702 at Mon Sep 09 02:00:49 2013, MaxMem=  196608000 cpu:       0.0
 (Enter d:\study\G09W\l703.exe)
 Compute integral first derivatives, UseDBF=F ICtDFT=           0.
 Integral derivatives from FoFDir, PRISM(SPDF).
 Calling FoFJK, ICntrl=      2147 FMM=F ISym2X=0 I1Cent= 0 IOpClX= 0 NMat=1 NMatS=1 NMatT=0.
 FoFCou: FMM=F IPFlag=           0 FMFlag=      100000 FMFlg1=         800
         NFxFlg=           0 DoJE=F BraDBF=F KetDBF=F FulRan=T
         Omega=  0.000000  0.000000  1.000000  0.000000  0.000000 ICntrl=    2147 IOpCl=  0
         NMat0=    1 NMatS0=    1 NMatT0=    0 NMatD0=    1 NMtDS0=    0 NMtDT0=    0
         I1Cent=           0 NGrid=           0.
 Symmetry not used in FoFCou.
 Leave Link  703 at Mon Sep 09 02:00:51 2013, MaxMem=  196608000 cpu:       2.0
 (Enter d:\study\G09W\l716.exe)
 Dipole        = 3.09094972D-11 7.36452646D-06 7.39725973D-13
 Polarizability= 0.00000000D+00 0.00000000D+00 0.00000000D+00
                 0.00000000D+00 0.00000000D+00 0.00000000D+00
 -------------------------------------------------------------------
 Center     Atomic                   Forces (Hartrees/Bohr)
 Number     Number              X              Y              Z
 -------------------------------------------------------------------
      1        6           0.002028103   -0.005315921    0.000000000
      2        6          -0.003592776    0.004413257    0.000000000
      3        6          -0.005565363    0.000901653    0.000000000
      4        6           0.005565363    0.000901653    0.000000000
      5        6           0.003592776    0.004413256    0.000000000
      6        6          -0.002028103   -0.005315921    0.000000000
      7        1          -0.001701733    0.000917602    0.000000000
      8        1          -0.000061789   -0.001932750    0.000000000
      9        1           0.001649738    0.001016159    0.000000000
     10        1          -0.001649738    0.001016159    0.000000000
     11        1           0.000061789   -0.001932749    0.000000000
     12        1           0.001701733    0.000917602    0.000000000
 -------------------------------------------------------------------
 Cartesian Forces:  Max     0.005565363 RMS     0.002446934
 Leave Link  716 at Mon Sep 09 02:00:51 2013, MaxMem=  196608000 cpu:       0.0
 (Enter d:\study\G09W\l123.exe)
 IRC-IRC-IRC-IRC-IRC-IRC-IRC-IRC-IRC-IRC-IRC-IRC-IRC-IRC-IRC-IRC-IRC-IRC
 Pt  1 Step number   1 out of a maximum of  20
 Using modified Bulirsch-Stoer corrector interation.
   Using distance weighted interpolants to fit PES.
    Cycle     1 NS=     2
    Cycle     2 NS=     4 Truncation Error =  0.004229849
    Cycle     3 NS=     6 Truncation Error =  0.001810114
    Cycle     4 NS=     8 Truncation Error =  0.001776240
    Cycle     5 NS=    12 Truncation Error =  0.000696321
    Cycle     6 NS=    16 Truncation Error =  0.000141592
    Cycle     7 NS=    24 Truncation Error =  0.000026294
    Cycle     8 NS=    32 Truncation Error =  0.000009211
    Cycle     9 NS=    48 Truncation Error =  0.000001649
    Cycle    10 NS=    64 Truncation Error =  0.000000197
 BS completed in   10 cycles and     216 integration steps.
 SUMMARY OF CORRECTOR INTEGRATION:
   Original End Point Energy  =  -231.922519
   Corrected End Point Energy =  -231.922521
   Old End-Start Dist.        =     0.100000
   New End-Start Dist.        =     0.099980
   New End-Old End Dist.      =     0.001472
 CORRECTOR INTEGRATION CONVERGENCE:
   Recorrection delta-x convergence threshold:    0.010000
   Delta-x Convergence Met
 Point Number:   1          Path Number:   1
                    CURRENT STRUCTURE
                Cartesian Coordinates (Ang):                
 ---------------------------------------------------------------------
 Center     Atomic                     Coordinates (Angstroms)
 Number     Number                        X           Y           Z
 ---------------------------------------------------------------------
      1          6                    0.618172    1.678755    0.000000
      2          6                    1.762935   -0.304008    0.000000
      3          6                    1.144865   -1.374754    0.000000
      4          6                   -1.144865   -1.374754    0.000000
      5          6                   -1.762935   -0.304008    0.000000
      6          6                   -0.618172    1.678755    0.000000
      7          1                    1.569166    2.164970    0.000000
      8          1                    2.659497    0.276465    0.000000
      9          1                    1.090342   -2.441428    0.000000
     10          1                   -1.090342   -2.441428    0.000000
     11          1                   -2.659497    0.276465    0.000000
     12          1                   -1.569166    2.164970    0.000000
 ---------------------------------------------------------------------
   CHANGE IN THE REACTION COORDINATE =    0.09998
   NET REACTION COORDINATE UP TO THIS POINT =    0.09998
  # OF POINTS ALONG THE PATH =   1
  # OF STEPS =   1

 Calculating another point on the path.
 Point Number  2 in FORWARD path direction.
 Using LQA Reaction Path Following.
   LQA: T_Est iteration completed in    3 iterations.
 IRC-IRC-IRC-IRC-IRC-IRC-IRC-IRC-IRC-IRC-IRC-IRC-IRC-IRC-IRC-IRC-IRC-IRC
 Leave Link  123 at Mon Sep 09 02:00:51 2013, MaxMem=  196608000 cpu:       0.0
 (Enter d:\study\G09W\l202.exe)
                          Input orientation:                          
 ---------------------------------------------------------------------
 Center     Atomic      Atomic             Coordinates (Angstroms)
 Number     Number       Type             X           Y           Z
 ---------------------------------------------------------------------
      1          6           0        0.621557    1.658563    0.000000
      2          6           0        1.747152   -0.290966    0.000000
      3          6           0        1.125771   -1.367613    0.000000
      4          6           0       -1.125771   -1.367613    0.000000
      5          6           0       -1.747152   -0.290966    0.000000
      6          6           0       -0.621557    1.658563    0.000000
      7          1           0        1.563295    2.168718    0.000000
      8          1           0        2.659814    0.269530    0.000000
      9          1           0        1.096528   -2.438231    0.000000
     10          1           0       -1.096528   -2.438231    0.000000
     11          1           0       -2.659814    0.269530    0.000000
     12          1           0       -1.563295    2.168718    0.000000
 ---------------------------------------------------------------------
                    Distance matrix (angstroms):
                    1          2          3          4          5
     1  C    0.000000
     2  C    2.251139   0.000000
     3  C    3.067893   1.243094   0.000000
     4  C    3.494408   3.068037   2.251541   0.000000
     5  C    3.067808   3.494304   3.068037   1.243094   0.000000
     6  C    1.243113   3.067808   3.494408   3.067893   2.251139
     7  H    1.071042   2.466546   3.563294   4.442602   4.124210
     8  H    2.466557   1.071031   2.243552   4.124426   4.442466
     9  H    4.124235   2.243671   1.071017   2.466745   3.563322
    10  H    4.442469   3.563322   2.466745   1.071017   2.243671
    11  H    3.563257   4.442466   4.124426   2.243552   1.071031
    12  H    2.243621   4.124210   4.442602   3.563294   2.466546
                    6          7          8          9         10
     6  C    0.000000
     7  H    2.243621   0.000000
     8  H    3.563257   2.193004   0.000000
     9  H    4.442469   4.630535   3.126633   0.000000
    10  H    4.124235   5.319646   4.630559   2.193055   0.000000
    11  H    2.466557   4.630504   5.319628   4.630559   3.126633
    12  H    1.071042   3.126591   4.630504   5.319646   4.630535
                   11         12
    11  H    0.000000
    12  H    2.193004   0.000000
 Symmetry turned off by external request.
 Stoichiometry    C6H6
 Framework group  CS[SG(C6H6)]
 Deg. of freedom    21
 Full point group                 CS      NOp   2
 Rotational constants (GHZ):      3.7560617      3.7558140      1.8779689
[...]
      1        6           0.000737704    0.002245881    0.000000000
      2        6           0.002020981   -0.000827002    0.000000000
      3        6           0.002785550   -0.000165807    0.000000000
      4        6          -0.002796320   -0.000154760    0.000000000
      5        6          -0.002025928   -0.000810654    0.000000000
      6        6          -0.000723911    0.002249214    0.000000000
      7        1          -0.000319494    0.002209555    0.000000000
      8        1           0.001659885   -0.001506291    0.000000000
      9        1           0.001233329   -0.001957368    0.000000000
     10        1          -0.001224674   -0.001969923    0.000000000
     11        1          -0.001652783   -0.001521279    0.000000000
     12        1           0.000305662    0.002208433    0.000000000
 -------------------------------------------------------------------
 Cartesian Forces:  Max     0.002796320 RMS     0.001365130
 Leave Link  716 at Mon Sep 09 02:19:22 2013, MaxMem=  196608000 cpu:       0.0
 (Enter d:\study\G09W\l123.exe)
 IRC-IRC-IRC-IRC-IRC-IRC-IRC-IRC-IRC-IRC-IRC-IRC-IRC-IRC-IRC-IRC-IRC-IRC
 Error in corrector energy =          -0.0000117088
 Magnitude of corrector gradient =     0.0080012807
 Magnitude of analytic gradient =      0.0081907823
 Magnitude of difference =             0.0028207674
 Angle between gradients (degrees)=   20.0206
 Pt 59 Step number   3 out of a maximum of  20
 Using modified Bulirsch-Stoer corrector interation.
   Using distance weighted interpolants to fit PES.
    Cycle     1 NS=     2
    Cycle     2 NS=     4 Truncation Error =  0.004730929
    Cycle     3 NS=     6 Truncation Error =  0.003461023
    Cycle     4 NS=     8 Truncation Error =  0.005603236
    Cycle     5 NS=    12 Truncation Error =  0.000709147
    Cycle     6 NS=    16 Truncation Error =  0.004133019
    Cycle     7 NS=    24 Truncation Error =  0.003040068
    Cycle     8 NS=    32 Truncation Error =  0.001117290
    Cycle     9 NS=    48 Truncation Error =  0.000208294
    Cycle    10 NS=    64 Truncation Error =  0.000022108
    Cycle    11 NS=    96 Truncation Error =  0.000000892
 BS completed in   11 cycles and     312 integration steps.
 SUMMARY OF CORRECTOR INTEGRATION:
   Original End Point Energy  =  -231.977796
   Corrected End Point Energy =  -231.977796
   Old End-Start Dist.        =     0.098021
   New End-Start Dist.        =     0.097266
   New End-Old End Dist.      =     0.003404
 CORRECTOR INTEGRATION CONVERGENCE:
   Recorrection delta-x convergence threshold:    0.010000
   Delta-x Convergence Met
 Point Number:  25          Path Number:   2
                    CURRENT STRUCTURE
                Cartesian Coordinates (Ang):                
 ---------------------------------------------------------------------
 Center     Atomic                     Coordinates (Angstroms)
 Number     Number                        X           Y           Z
 ---------------------------------------------------------------------
      1          6                    0.601883    2.202269    0.000000
      2          6                    2.208237   -0.579889    0.000000
      3          6                    1.605234   -1.621509    0.000000
      4          6                   -1.605216   -1.621499    0.000000
      5          6                   -2.208255   -0.579899    0.000000
      6          6                   -0.601883    2.202251    0.000000
      7          1                    1.664233    2.202133    0.000000
      8          1                    2.739168    0.339992    0.000000
      9          1                    1.077103   -2.543008    0.000000
     10          1                   -1.077138   -2.543022    0.000000
     11          1                   -2.739140    0.340016    0.000000
     12          1                   -1.664227    2.202166    0.000000
 ---------------------------------------------------------------------
   CHANGE IN THE REACTION COORDINATE =    0.09727
   NET REACTION COORDINATE UP TO THIS POINT =    2.49599
  # OF POINTS ALONG THE PATH =  59
  # OF STEPS =   3

 Calculating another point on the path.
 Point Number 26 in REVERSE path direction.
 Using LQA Reaction Path Following.
   LQA: T_Est iteration completed in    2 iterations.
 PES minimum detected within a second-order step.
 Calculation of REVERSE path complete.
 Reaction path calculation complete.
 
 Energies reported relative to the TS energy of        -231.921820
 --------------------------------------------------------------------------
    Summary of reaction path following
 --------------------------------------------------------------------------
                        Energy   Rx Coord
   1                   -0.05598  -2.49599
   2                   -0.05520  -2.39872
   3                   -0.05432  -2.29904
   4                   -0.05335  -2.19912
   5                   -0.05229  -2.09918
   6                   -0.05110  -1.99926
   7                   -0.04978  -1.89933
   8                   -0.04829  -1.79940
   9                   -0.04660  -1.69947
  10                   -0.04470  -1.59953
  11                   -0.04257  -1.49957
  12                   -0.04019  -1.39961
  13                   -0.03757  -1.29965
  14                   -0.03472  -1.19968
  15                   -0.03164  -1.09970
  16                   -0.02836  -0.99973
  17                   -0.02492  -0.89975
  18                   -0.02136  -0.79977
  19                   -0.01775  -0.69980
  20                   -0.01415  -0.59982
  21                   -0.01066  -0.49985
  22                   -0.00741  -0.39987
  23                   -0.00452  -0.29990
  24                   -0.00218  -0.19994
  25                   -0.00059  -0.09998
  26                    0.00000   0.00000
  27                   -0.00070   0.09998
  28                   -0.00299   0.19993
  29                   -0.00716   0.29989
  30                   -0.01344   0.39986
  31                   -0.02194   0.49983
  32                   -0.03264   0.59981
  33                   -0.04539   0.69978
  34                   -0.05992   0.79976
  35                   -0.07592   0.89973
  36                   -0.09307   0.99971
  37                   -0.11105   1.09968
  38                   -0.12957   1.19965
  39                   -0.14839   1.29963
  40                   -0.16728   1.39960
  41                   -0.18604   1.49957
  42                   -0.20448   1.59954
  43                   -0.22239   1.69951
  44                   -0.23959   1.79947
  45                   -0.25585   1.89944
  46                   -0.27092   1.99940
  47                   -0.28454   2.09934
  48                   -0.29645   2.19926
  49                   -0.30650   2.29913
  50                   -0.31471   2.39895
  51                   -0.32129   2.49877
  52                   -0.32647   2.59863
  53                   -0.33037   2.69847
  54                   -0.33310   2.79815
  55                   -0.33484   2.89744
  56                   -0.33583   2.99090
  57                   -0.33631   3.07727
  58                   -0.33638   3.11400
  59                   -0.33639   3.13057
  60                   -0.33639   3.13555
 --------------------------------------------------------------------------
 
 Total number of points:                   59
 Total number of gradient calculations:    98
 Total number of Hessian calculations:      1
 IRC-IRC-IRC-IRC-IRC-IRC-IRC-IRC-IRC-IRC-IRC-IRC-IRC-IRC-IRC-IRC-IRC-IRC
 Leave Link  123 at Mon Sep 09 02:19:22 2013, MaxMem=  196608000 cpu:       0.0
 (Enter d:\study\G09W\l202.exe)
                          Input orientation:                          
 ---------------------------------------------------------------------
 Center     Atomic      Atomic             Coordinates (Angstroms)
 Number     Number       Type             X           Y           Z
 ---------------------------------------------------------------------
      1          6           0        0.601727    2.202514    0.000000
      2          6           0        2.208449   -0.580449    0.000000
      3          6           0        1.604687   -1.621845    0.000000
      4          6           0       -1.604661   -1.621839    0.000000
      5          6           0       -2.208467   -0.580467    0.000000
      6          6           0       -0.601733    2.202492    0.000000
      7          1           0        1.664377    2.202074    0.000000
      8          1           0        2.739197    0.340400    0.000000
      9          1           0        1.077788   -2.542704    0.000000
     10          1           0       -1.077826   -2.542712    0.000000
     11          1           0       -2.739172    0.340430    0.000000
     12          1           0       -1.664365    2.202107    0.000000
 ---------------------------------------------------------------------
                    Distance matrix (angstroms):
                    1          2          3          4          5
     1  C    0.000000
     2  C    3.213477   0.000000
     3  C    3.953688   1.203759   0.000000
     4  C    4.415181   3.952759   3.209348   0.000000
     5  C    3.955019   4.416916   3.952798   1.203759   0.000000
     6  C    1.203460   3.954982   4.415183   3.953653   3.213481
     7  H    1.062650   2.835216   3.824385   5.030797   4.768800
     8  H    2.834827   1.062853   2.266610   4.766496   5.032632
     9  H    4.769038   2.264694   1.060944   2.836111   3.827511
    10  H    5.033693   3.827543   2.836172   1.060926   2.264675
    11  H    3.824782   5.032591   4.766511   2.266630   1.062873
    12  H    2.266092   4.768785   5.030836   3.824412   2.835272
                    6          7          8          9         10
     6  C    0.000000
     7  H    2.266110   0.000000
     8  H    3.824814   2.149667   0.000000
     9  H    5.033654   4.780900   3.327547   0.000000
    10  H    4.769028   5.480208   4.783514   2.155614   0.000000
    11  H    2.834770   4.780895   5.478369   4.783475   3.327548
    12  H    1.062632   3.328742   4.780933   5.480203   4.780935
                   11         12
    11  H    0.000000
    12  H    2.149663   0.000000
 Symmetry turned off by external request.
 Stoichiometry    C6H6
 Framework group  CS[SG(C6H6)]
 Deg. of freedom    21
 Full point group                 CS      NOp   2
 Rotational constants (GHZ):      2.3997891      2.3988048      1.1996484
 Leave Link  202 at Mon Sep 09 02:19:22 2013, MaxMem=  196608000 cpu:       0.0
 (Enter d:\study\G09W\l601.exe)
 Copying SCF densities to generalized density rwf, IOpCl= 0 IROHF=0.

 **********************************************************************

            Population analysis using the SCF density.

 **********************************************************************

 Alpha  occ. eigenvalues --  -10.19094 -10.19094 -10.19093 -10.18850 -10.18850
 Alpha  occ. eigenvalues --  -10.18849  -0.74626  -0.74097  -0.74094  -0.57592
 Alpha  occ. eigenvalues --   -0.57577  -0.55315  -0.50635  -0.48548  -0.48525
 Alpha  occ. eigenvalues --   -0.29762  -0.28580  -0.27990  -0.27986  -0.27207
 Alpha  occ. eigenvalues --   -0.27195
 Alpha virt. eigenvalues --    0.03689   0.03699   0.04450   0.04462   0.06393
 Alpha virt. eigenvalues --    0.06774   0.06801   0.08628   0.10080   0.19041
 Alpha virt. eigenvalues --    0.22647   0.22663   0.39791   0.42334   0.42349
 Alpha virt. eigenvalues --    0.47594   0.48362   0.48413   0.50227   0.50469
 Alpha virt. eigenvalues --    0.54395   0.54401   0.57575   0.57612   0.64484
 Alpha virt. eigenvalues --    0.64506   0.70573   0.70601   0.70607   0.75692
 Alpha virt. eigenvalues --    0.76114   0.76181   0.80601   0.94156   0.94178
 Alpha virt. eigenvalues --    0.96730   0.99535   1.08398   1.08467   1.21380
 Alpha virt. eigenvalues --    1.21473   1.28398   1.35436   1.36002   1.37580
 Alpha virt. eigenvalues --    1.37594   1.37760   1.38854   1.47147   1.47486
 Alpha virt. eigenvalues --    1.54983   1.55008   1.55017   1.55173   1.55760
 Alpha virt. eigenvalues --    1.55785   1.61353   1.92793   1.92821   1.93064
 Alpha virt. eigenvalues --    1.93162   1.94416   1.94464   1.94602   1.94610
 Alpha virt. eigenvalues --    1.95079   1.95719   1.95819   1.99461   2.25334
 Alpha virt. eigenvalues --    2.27738   2.27784   2.37951   2.38216   2.38298
 Alpha virt. eigenvalues --    2.38324   2.40923   2.40946   2.75372   2.75464
 Alpha virt. eigenvalues --    2.75578   3.03576   3.03644   3.03733   3.03780
 Alpha virt. eigenvalues --    3.03810   3.06217   3.35342   3.38111   3.38193
 Alpha virt. eigenvalues --    3.82975   3.83000   3.89961   4.57427   4.59683
 Alpha virt. eigenvalues --    4.59688   5.35002   5.35192   5.37744
          Condensed to atoms (all electrons):
              1          2          3          4          5          6
     1  C    4.797675   0.001474  -0.000533  -0.000625  -0.000518   0.999934
     2  C    0.001474   4.798923   0.999321  -0.000506  -0.000630  -0.000519
     3  C   -0.000533   0.999321   4.797176   0.001518  -0.000505  -0.000625
     4  C   -0.000625  -0.000506   0.001518   4.797166   0.999321  -0.000534
     5  C   -0.000518  -0.000630  -0.000505   0.999321   4.798935   0.001474
     6  C    0.999934  -0.000519  -0.000625  -0.000534   0.001474   4.797666
     7  H    0.362839   0.001051   0.000523   0.000005  -0.000011  -0.029704
     8  H    0.001085   0.362859  -0.029611  -0.000010   0.000005   0.000532
     9  H   -0.000011  -0.030009   0.363182   0.001096   0.000546   0.000005
    10  H    0.000005   0.000546   0.001094   0.363184  -0.030012  -0.000011
    11  H    0.000532   0.000005  -0.000010  -0.029608   0.362856   0.001087
    12  H   -0.029707  -0.000011   0.000005   0.000523   0.001049   0.362841
              7          8          9         10         11         12
     1  C    0.362839   0.001085  -0.000011   0.000005   0.000532  -0.029707
     2  C    0.001051   0.362859  -0.030009   0.000546   0.000005  -0.000011
     3  C    0.000523  -0.029611   0.363182   0.001094  -0.000010   0.000005
     4  C    0.000005  -0.000010   0.001096   0.363184  -0.029608   0.000523
     5  C   -0.000011   0.000005   0.000546  -0.030012   0.362856   0.001049
     6  C   -0.029704   0.000532   0.000005  -0.000011   0.001087   0.362841
     7  H    0.533248  -0.002592  -0.000006   0.000000  -0.000006   0.002516
     8  H   -0.002592   0.533083   0.002519  -0.000005   0.000000  -0.000006
     9  H   -0.000006   0.002519   0.533448  -0.002672  -0.000005   0.000000
    10  H    0.000000  -0.000005  -0.002672   0.533450   0.002518  -0.000006
    11  H   -0.000006   0.000000  -0.000005   0.002518   0.533080  -0.002592
    12  H    0.002516  -0.000006   0.000000  -0.000006  -0.002592   0.533250
 Mulliken atomic charges:
              1
     1  C   -0.132150
     2  C   -0.132504
     3  C   -0.131535
     4  C   -0.131529
     5  C   -0.132511
     6  C   -0.132145
     7  H    0.132136
     8  H    0.132142
     9  H    0.131908
    10  H    0.131909
    11  H    0.132142
    12  H    0.132136
 Sum of Mulliken atomic charges =   0.00000
 Mulliken charges with hydrogens summed into heavy atoms:
              1
     1  C   -0.000014
     2  C   -0.000362
     3  C    0.000374
     4  C    0.000380
     5  C   -0.000369
     6  C   -0.000008
 Sum of Mulliken charges with hydrogens summed into heavy atoms =   0.00000
 APT atomic charges:
              1
     1  C   -0.430234
     2  C   -0.421320
     3  C   -0.441447
     4  C   -0.441708
     5  C   -0.421061
     6  C   -0.430461
     7  H    0.430316
     8  H    0.431249
     9  H    0.431551
    10  H    0.431552
    11  H    0.431249
    12  H    0.430316
 Sum of APT charges=   0.00000
 APT Atomic charges with hydrogens summed into heavy atoms:
              1
     1  C    0.000081
     2  C    0.009929
     3  C   -0.009897
     4  C   -0.010156
     5  C    0.010188
     6  C   -0.000145
     7  H    0.000000
     8  H    0.000000
     9  H    0.000000
    10  H    0.000000
    11  H    0.000000
    12  H    0.000000
 Sum of APT charges=   0.00000
 Electronic spatial extent (au):  <R**2>=            907.2382
 Charge=              0.0000 electrons
 Dipole moment (field-independent basis, Debye):
    X=              0.0000    Y=             -0.0032    Z=              0.0000  Tot=              0.0032
 Quadrupole moment (field-independent basis, Debye-Ang):
   XX=            -30.3339   YY=            -30.3388   ZZ=            -38.8968
   XY=              0.0000   XZ=              0.0000   YZ=              0.0000
 Traceless Quadrupole moment (field-independent basis, Debye-Ang):
   XX=              2.8560   YY=              2.8510   ZZ=             -5.7070
   XY=              0.0000   XZ=              0.0000   YZ=              0.0000
 Octapole moment (field-independent basis, Debye-Ang**2):
  XXX=              0.0006  YYY=            -29.4041  ZZZ=              0.0000  XYY=             -0.0006
  XXY=             29.2817  XXZ=              0.0000  XZZ=              0.0000  YZZ=             -0.0096
  YYZ=              0.0000  XYZ=              0.0000
 Hexadecapole moment (field-independent basis, Debye-Ang**3):
 XXXX=           -589.6001 YYYY=           -589.6416 ZZZZ=            -39.7216 XXXY=              0.0000
 XXXZ=              0.0000 YYYX=              0.0002 YYYZ=              0.0000 ZZZX=              0.0000
 ZZZY=              0.0000 XXYY=           -196.4478 XXZZ=           -118.5462 YYZZ=           -118.5629
 XXYZ=              0.0000 YYXZ=              0.0000 ZZXY=              0.0000
 N-N= 1.551170637372D+02 E-N=-8.473470175171D+02  KE= 2.297353489873D+02
  Exact polarizability:   0.000   0.000   0.000   0.000   0.000   0.000
 Approx polarizability:  98.079   0.000  97.725   0.000   0.000  29.813
 No NMR shielding tensors so no spin-rotation constants.
 Leave Link  601 at Mon Sep 09 02:19:22 2013, MaxMem=  196608000 cpu:       0.0
 (Enter d:\study\G09W\l716.exe)
 Dipole        =-7.20888386D-07-1.24922388D-03-6.68685521D-13
 Polarizability= 0.00000000D+00 0.00000000D+00 0.00000000D+00
                 0.00000000D+00 0.00000000D+00 0.00000000D+00
 -------------------------------------------------------------------
 Center     Atomic                   Forces (Hartrees/Bohr)
 Number     Number              X              Y              Z
 -------------------------------------------------------------------
      1        6           0.000737704    0.002245881    0.000000000
      2        6           0.002020981   -0.000827002    0.000000000
      3        6           0.002785550   -0.000165807    0.000000000
      4        6          -0.002796320   -0.000154760    0.000000000
      5        6          -0.002025928   -0.000810654    0.000000000
      6        6          -0.000723911    0.002249214    0.000000000
      7        1          -0.000319494    0.002209555    0.000000000
      8        1           0.001659885   -0.001506291    0.000000000
      9        1           0.001233329   -0.001957368    0.000000000
     10        1          -0.001224674   -0.001969923    0.000000000
     11        1          -0.001652783   -0.001521279    0.000000000
     12        1           0.000305662    0.002208433    0.000000000
 -------------------------------------------------------------------
 Cartesian Forces:  Max     0.002796320 RMS     0.001365130
 Leave Link  716 at Mon Sep 09 02:19:22 2013, MaxMem=  196608000 cpu:       0.0
 (Enter d:\study\G09W\l9999.exe)

 This type of calculation cannot be archived.


 "WHERE SHALL I START, PLEASE YOUR MAJESTY?" HE ASKED.
 "BEGIN AT THE BEGINNING," THE KING SAID GRAVELY,
 "AND GO ON TILL YOU COME TO THE END: THEN STOP." 

                                      -- LEWIS CARROLL
 Job cpu time:  0 days  0 hours 19 minutes 46.0 seconds.
 File lengths (MBytes):  RWF=     23 Int=      0 D2E=      0 Chk=      3 Scr=      1
 Normal termination of Gaussian 09 at Mon Sep 09 02:19:22 2013.
