 Entering Gaussian System, Link 0=g16
 Input=Pt_ircb.gjf
 Output=Pt_ircb.log
 Initial command:
 /usr/g16/l1.exe "/scratch/wsr/gaussian/Gau-357534.inp" -scrdir="/scratch/wsr/gaussian/"
 Entering Link 1 = /usr/g16/l1.exe PID=    357535.
  
 Copyright (c) 1988,1990,1992,1993,1995,1998,2003,2009,2016,
            Gaussian, Inc.  All Rights Reserved.
  
 This is part of the Gaussian(R) 16 program.  It is based on
 the Gaussian(R) 09 system (copyright 2009, Gaussian, Inc.),
 the Gaussian(R) 03 system (copyright 2003, Gaussian, Inc.),
 the Gaussian(R) 98 system (copyright 1998, Gaussian, Inc.),
 the Gaussian(R) 94 system (copyright 1995, Gaussian, Inc.),
 the Gaussian 92(TM) system (copyright 1992, Gaussian, Inc.),
 the Gaussian 90(TM) system (copyright 1990, Gaussian, Inc.),
 the Gaussian 88(TM) system (copyright 1988, Gaussian, Inc.),
 the Gaussian 86(TM) system (copyright 1986, Carnegie Mellon
 University), and the Gaussian 82(TM) system (copyright 1983,
 Carnegie Mellon University). Gaussian is a federally registered
 trademark of Gaussian, Inc.
  
 This software contains proprietary and confidential information,
 including trade secrets, belonging to Gaussian, Inc.
  
 This software is provided under written license and may be
 used, copied, transmitted, or stored only in accord with that
 written license.
  
 The following legend is applicable only to US Government
 contracts under FAR:
  
                    RESTRICTED RIGHTS LEGEND
  
 Use, reproduction and disclosure by the US Government is
 subject to restrictions as set forth in subparagraphs (a)
 and (c) of the Commercial Computer Software - Restricted
 Rights clause in FAR 52.227-19.
  
 Gaussian, Inc.
 340 Quinnipiac St., Bldg. 40, Wallingford CT 06492
  
  
 ---------------------------------------------------------------
 Warning -- This program may not be used in any manner that
 competes with the business of Gaussian, Inc. or will provide
 assistance to any competitor of Gaussian, Inc.  The licensee
 of this program is prohibited from giving any competitor of
 Gaussian, Inc. access to this program.  By using this program,
 the user acknowledges that Gaussian, Inc. is engaged in the
 business of creating and licensing software in the field of
 computational chemistry and represents and warrants to the
 licensee that it is not a competitor of Gaussian, Inc. and that
 it will not use this program in any manner prohibited above.
 ---------------------------------------------------------------
  

 Cite this work as:
 Gaussian 16, Revision A.03,
 M. J. Frisch, G. W. Trucks, H. B. Schlegel, G. E. Scuseria, 
 M. A. Robb, J. R. Cheeseman, G. Scalmani, V. Barone, 
 G. A. Petersson, H. Nakatsuji, X. Li, M. Caricato, A. V. Marenich, 
 J. Bloino, B. G. Janesko, R. Gomperts, B. Mennucci, H. P. Hratchian, 
 J. V. Ortiz, A. F. Izmaylov, J. L. Sonnenberg, D. Williams-Young, 
 F. Ding, F. Lipparini, F. Egidi, J. Goings, B. Peng, A. Petrone, 
 T. Henderson, D. Ranasinghe, V. G. Zakrzewski, J. Gao, N. Rega, 
 G. Zheng, W. Liang, M. Hada, M. Ehara, K. Toyota, R. Fukuda, 
 J. Hasegawa, M. Ishida, T. Nakajima, Y. Honda, O. Kitao, H. Nakai, 
 T. Vreven, K. Throssell, J. A. Montgomery, Jr., J. E. Peralta, 
 F. Ogliaro, M. J. Bearpark, J. J. Heyd, E. N. Brothers, K. N. Kudin, 
 V. N. Staroverov, T. A. Keith, R. Kobayashi, J. Normand, 
 K. Raghavachari, A. P. Rendell, J. C. Burant, S. S. Iyengar, 
 J. Tomasi, M. Cossi, J. M. Millam, M. Klene, C. Adamo, R. Cammi, 
 J. W. Ochterski, R. L. Martin, K. Morokuma, O. Farkas, 
 J. B. Foresman, and D. J. Fox, Gaussian, Inc., Wallingford CT, 2016.
 
 ******************************************
 Gaussian 16:  ES64L-G16RevA.03 25-Dec-2016
                 7-Nov-2019 
 ******************************************
 %chk=Pt_tsb.chk
 %nprocshared=20
 Will use up to   20 processors via shared memory.
 ----------------------------------------------------------------------
 #p irc=(calcfc,lqa,maxpoint=30) M062X/genecp geom=allcheck scrf=(smd,s
 olvent=benzene)
 ----------------------------------------------------------------------
 1/10=4,18=10,26=3,29=7,38=1,42=30,44=3,45=2,172=1/1,23;
 2/12=2,29=1,40=1/2;
 3/5=7,11=2,14=-4,16=1,17=8,25=1,30=1,70=32201,71=2,72=12,74=-55,140=1/1,2,3;
 4//1;
 5/5=2,38=5,53=12/2;
 8/6=4,10=90,11=11/1;
 11/6=1,8=1,9=11,15=111,16=1/1,2,10;
 10/6=1,13=1/2;
 6/7=2,8=2,9=2,10=2,28=1/1;
 7/10=1,18=20,25=1/1,2,3,16;
 1/10=4,18=10,26=3,42=30,44=3,45=2/23(2);
 2/29=1/2;
 99/5=20/99;
 2/29=1/2;
 3/5=7,6=1,11=2,14=-2,16=1,17=8,25=1,30=1,70=32205,71=2,72=12,74=-55,82=7,140=1/1,2,3;
 4/5=5,16=3,69=1/1;
 5/5=2,38=5,53=12/2;
 8/6=4,10=90,11=11/1;
 11/6=1,8=1,9=11,15=111,16=1/1,2,10;
 10/6=1,13=1/2;
 7/10=1,18=20,25=1/1,2,3,16;
 1/18=10,26=3,42=30,44=3,45=2/23(-8);
 2/29=1/2;
 6/7=2,8=2,9=2,10=2,19=2,28=1/1;
 99/5=20,9=1/99;
 Leave Link    1 at Thu Nov  7 00:43:16 2019, MaxMem=           0 cpu:               1.1 elap:               0.1
 (Enter /usr/g16/l101.exe)
 Structure from the checkpoint file:  "Pt_tsb.chk"
 -------------------
 Title Card Required
 -------------------
 Charge =  0 Multiplicity = 1
 No Z-Matrix found in chk file; cartesian coordinates used.
  Pt                                               -0.040228891530     -0.267547570058      0.525796098032
  P                                                 2.006604603981      0.249045379617     -0.281847031467
  P                                                -1.933542522529      0.201235881316     -0.616587135736
  C                                                 2.215225807701      2.002299208439     -0.801703824061
  H                                                 2.075113385897      2.657439583424      0.063528982280
  H                                                 3.206721584200      2.182724543946     -1.232441303904
  H                                                 1.448093956006      2.250855248154     -1.541632958735
  C                                                 3.556492205428      0.008208764195      0.688913915366
  H                                                 3.645080839033     -1.046754412850      0.966580193051
  H                                                 4.448267578144      0.309389092910      0.126965361859
  H                                                 3.497843301853      0.595085021759      1.610969159238
  C                                                 2.444368440260     -0.636862040936     -1.833874672170
  H                                                 1.665473880849     -0.458453803638     -2.581353475690
  H                                                 3.411575092740     -0.306075072496     -2.229113048965
  H                                                 2.485199518609     -1.712744699548     -1.638762134531
  C                                                -2.519351129172      1.937222663535     -0.448412816082
  H                                                -1.712136483815      2.619191792885     -0.732365079345
  H                                                -3.394878726152      2.129024005650     -1.078985533788
  H                                                -2.777849193245      2.135003594603      0.596080233712
  C                                                -3.503627745364     -0.720308680917     -0.325247150896
  H                                                -4.314473794016     -0.368447859727     -0.973578590607
  H                                                -3.335296364890     -1.786225870833     -0.508386626132
  H                                                -3.799870729519     -0.601012518657      0.721493045790
  C                                                -1.803492649071      0.053581856587     -2.447165854475
  H                                                -1.515738018904     -0.969088316441     -2.710051920046
  H                                                -2.747858884802      0.300925826142     -2.945594229038
  H                                                -1.020484769915      0.729764748770     -2.804489988830
  H                                                -0.597824952179     -1.115743112406      2.101014148376
  H                                                 0.234802617736     -1.091993455960      2.185325836478
 Recover connectivity data from disk.
 ITRead=  0  0  0  0  0  0  0  0  0  0  0  0  0  0  0  0  0  0  0  0
 ITRead=  0  0  0  0  0  0  0  0  0
 MicOpt= -1 -1 -1 -1 -1 -1 -1 -1 -1 -1 -1 -1 -1 -1 -1 -1 -1 -1 -1 -1
 MicOpt= -1 -1 -1 -1 -1 -1 -1 -1 -1
 NAtoms=     29 NQM=       29 NQMF=       0 NMMI=      0 NMMIF=      0
                NMic=       0 NMicF=      0.
                    Isotopes and Nuclear Properties:
 (Nuclear quadrupole moments (NQMom) in fm**2, nuclear magnetic moments (NMagM)
  in nuclear magnetons)

  Atom         1           2           3           4           5           6           7           8           9          10
 IAtWgt=         195          31          31          12           1           1           1          12           1           1
 AtmWgt= 194.9648000  30.9737634  30.9737634  12.0000000   1.0078250   1.0078250   1.0078250  12.0000000   1.0078250   1.0078250
 NucSpn=           1           1           1           0           1           1           1           0           1           1
 AtZEff=1176.2400000  12.9400000  12.9400000   3.6000000   1.0000000   1.0000000   1.0000000   3.6000000   1.0000000   1.0000000
 NQMom=    0.0000000   0.0000000   0.0000000   0.0000000   0.0000000   0.0000000   0.0000000   0.0000000   0.0000000   0.0000000
 NMagM=    0.6095000   1.1316000   1.1316000   0.0000000   2.7928460   2.7928460   2.7928460   0.0000000   2.7928460   2.7928460
 AtZNuc=  78.0000000  15.0000000  15.0000000   6.0000000   1.0000000   1.0000000   1.0000000   6.0000000   1.0000000   1.0000000

  Atom        11          12          13          14          15          16          17          18          19          20
 IAtWgt=           1          12           1           1           1          12           1           1           1          12
 AtmWgt=   1.0078250  12.0000000   1.0078250   1.0078250   1.0078250  12.0000000   1.0078250   1.0078250   1.0078250  12.0000000
 NucSpn=           1           0           1           1           1           0           1           1           1           0
 AtZEff=   1.0000000   3.6000000   1.0000000   1.0000000   1.0000000   3.6000000   1.0000000   1.0000000   1.0000000   3.6000000
 NQMom=    0.0000000   0.0000000   0.0000000   0.0000000   0.0000000   0.0000000   0.0000000   0.0000000   0.0000000   0.0000000
 NMagM=    2.7928460   0.0000000   2.7928460   2.7928460   2.7928460   0.0000000   2.7928460   2.7928460   2.7928460   0.0000000
 AtZNuc=   1.0000000   6.0000000   1.0000000   1.0000000   1.0000000   6.0000000   1.0000000   1.0000000   1.0000000   6.0000000

  Atom        21          22          23          24          25          26          27          28          29
 IAtWgt=           1           1           1          12           1           1           1           1           1
 AtmWgt=   1.0078250   1.0078250   1.0078250  12.0000000   1.0078250   1.0078250   1.0078250   1.0078250   1.0078250
 NucSpn=           1           1           1           0           1           1           1           1           1
 AtZEff=   1.0000000   1.0000000   1.0000000   3.6000000   1.0000000   1.0000000   1.0000000   1.0000000   1.0000000
 NQMom=    0.0000000   0.0000000   0.0000000   0.0000000   0.0000000   0.0000000   0.0000000   0.0000000   0.0000000
 NMagM=    2.7928460   2.7928460   2.7928460   0.0000000   2.7928460   2.7928460   2.7928460   2.7928460   2.7928460
 AtZNuc=   1.0000000   1.0000000   1.0000000   6.0000000   1.0000000   1.0000000   1.0000000   1.0000000   1.0000000
 Leave Link  101 at Thu Nov  7 00:43:16 2019, MaxMem=   140000000 cpu:               2.4 elap:               0.2
 (Enter /usr/g16/l123.exe)
 IRC-IRC-IRC-IRC-IRC-IRC-IRC-IRC-IRC-IRC-IRC-IRC-IRC-IRC-IRC-IRC-IRC-IRC
 ------------------------------------------------------------------------
 INPUT DATA FOR L123
 ------------------------------------------------------------------------
 GENERAL PARAMETERS:
 Follow reaction path in both directions.
 Maximum points per path      =  30
 Step size                    =   0.100 bohr
 Integration scheme           = LQA                                 
 Initial Hessian              = CalcFC
 Hessian evaluation           = All updating
 Hessian updating method      = Bofill                              
 ------------------------------------------------------------------------
 IRC-IRC-IRC-IRC-IRC-IRC-IRC-IRC-IRC-IRC-IRC-IRC-IRC-IRC-IRC-IRC-IRC-IRC
 Leave Link  123 at Thu Nov  7 00:43:16 2019, MaxMem=   140000000 cpu:               0.1 elap:               0.0
 (Enter /usr/g16/l202.exe)
                          Input orientation:                          
 ---------------------------------------------------------------------
 Center     Atomic      Atomic             Coordinates (Angstroms)
 Number     Number       Type             X           Y           Z
 ---------------------------------------------------------------------
      1         78           0       -0.040229   -0.267548    0.525796
      2         15           0        2.006605    0.249045   -0.281847
      3         15           0       -1.933543    0.201236   -0.616587
      4          6           0        2.215226    2.002299   -0.801704
      5          1           0        2.075113    2.657440    0.063529
      6          1           0        3.206722    2.182725   -1.232441
      7          1           0        1.448094    2.250855   -1.541633
      8          6           0        3.556492    0.008209    0.688914
      9          1           0        3.645081   -1.046754    0.966580
     10          1           0        4.448268    0.309389    0.126965
     11          1           0        3.497843    0.595085    1.610969
     12          6           0        2.444368   -0.636862   -1.833875
     13          1           0        1.665474   -0.458454   -2.581353
     14          1           0        3.411575   -0.306075   -2.229113
     15          1           0        2.485200   -1.712745   -1.638762
     16          6           0       -2.519351    1.937223   -0.448413
     17          1           0       -1.712136    2.619192   -0.732365
     18          1           0       -3.394879    2.129024   -1.078986
     19          1           0       -2.777849    2.135004    0.596080
     20          6           0       -3.503628   -0.720309   -0.325247
     21          1           0       -4.314474   -0.368448   -0.973579
     22          1           0       -3.335296   -1.786226   -0.508387
     23          1           0       -3.799871   -0.601013    0.721493
     24          6           0       -1.803493    0.053582   -2.447166
     25          1           0       -1.515738   -0.969088   -2.710052
     26          1           0       -2.747859    0.300926   -2.945594
     27          1           0       -1.020485    0.729765   -2.804490
     28          1           0       -0.597825   -1.115743    2.101014
     29          1           0        0.234803   -1.091993    2.185326
 ---------------------------------------------------------------------
                    Distance matrix (angstroms):
                    1          2          3          4          5
     1  Pt   0.000000
     2  P    2.260240   0.000000
     3  P    2.260406   3.954630   0.000000
     4  C    3.464323   1.840563   4.526630   0.000000
     5  H    3.639219   2.433997   4.750244   1.094289   0.000000
     6  H    4.431469   2.466379   5.543274   1.095971   1.784777
     7  H    3.582139   2.430275   4.061048   1.094425   1.770596
     8  C    3.610963   1.844595   5.646421   2.827956   3.099034
     9  H    3.792488   2.433572   5.931689   3.803688   4.123270
    10  H    4.542964   2.476386   6.425890   2.952092   3.339046
    11  H    3.799959   2.434397   5.883628   3.073492   2.944832
    12  C    3.446399   1.839907   4.620639   2.843071   3.819544
    13  H    3.549682   2.429950   4.153121   3.086209   4.107554
    14  H    4.416555   2.464538   5.606058   2.966031   3.978034
    15  H    3.626527   2.432877   4.922748   3.817735   4.707916
    16  C    3.457765   4.833421   1.839865   4.748186   4.678664
    17  H    3.565320   4.432786   2.430830   3.976121   3.870164
    18  H    4.424088   5.774580   2.462861   5.618382   5.612965
    19  H    3.643042   5.217144   2.433695   5.186734   4.909969
    20  C    3.595052   5.595015   1.843717   6.351763   6.533199
    21  H    4.530726   6.388726   2.474028   6.948882   7.145517
    22  H    3.772716   5.720975   2.434466   6.726608   7.024655
    23  H    3.779471   5.953524   2.432538   6.728948   6.750249
    24  C    3.471416   4.386759   1.841123   4.759742   5.303513
    25  H    3.624914   4.448250   2.434505   5.137220   5.808500
    26  H    4.439028   5.450061   2.469276   5.667729   6.153783
    27  H    3.611972   3.969646   2.428978   4.012520   4.639417
    28  H    1.873943   3.784670   3.302110   5.105019   5.053004
    29  H    1.873337   3.320333   3.771588   4.734878   4.684764
                    6          7          8          9         10
     6  H    0.000000
     7  H    1.786900   0.000000
     8  C    2.922749   3.801335   0.000000
     9  H    3.931589   4.689575   1.094483   0.000000
    10  H    2.626558   3.943926   1.096248   1.785830   0.000000
    11  H    3.269608   4.108765   1.094554   1.769902   1.785272
    12  C    2.982109   3.068693   2.831501   3.074454   2.959036
    13  H    3.342279   2.910091   3.806360   4.105213   3.958347
    14  H    2.688762   3.296328   2.938479   3.288706   2.646627
    15  H    3.982508   4.098188   3.086653   2.928596   3.325726
    16  C    5.784711   4.127241   6.475375   6.993322   7.178343
    17  H    4.963441   3.282932   6.049439   6.710093   6.635075
    18  H    6.603602   4.866546   7.479631   7.989427   8.141273
    19  H    6.257864   4.737281   6.682496   7.177387   7.467911
    20  C    7.367455   5.901437   7.169697   7.271824   8.031028
    21  H    7.946312   6.355362   8.053438   8.220634   8.857556
    22  H    7.686015   6.344009   7.221515   7.172727   8.085737
    23  H    7.788414   6.387176   7.381618   7.462309   8.319500
    24  C    5.577728   4.027507   6.210193   6.523140   6.765803
    25  H    5.866761   4.529629   6.183494   6.337011   6.727000
    26  H    6.475576   4.835220   7.282869   7.615184   7.824636
    27  H    4.738323   3.162658   5.802864   6.256556   6.219116
    28  H    6.038741   5.365505   4.529420   4.392488   5.602760
    29  H    5.589026   5.151401   3.805695   3.621793   4.894283
                   11         12         13         14         15
    11  H    0.000000
    12  C    3.807158   0.000000
    13  H    4.695007   1.094180   0.000000
    14  H    3.945347   1.095957   1.787781   0.000000
    15  H    4.112454   1.094194   1.770219   1.784770   0.000000
    16  C    6.499924   5.760549   5.272709   6.586286   6.307513
    17  H    6.060702   5.393676   4.929393   6.086860   6.099579
    18  H    7.556351   6.505136   5.878717   7.319858   7.046124
    19  H    6.541075   6.392142   6.046919   7.228385   6.891979
    20  C    7.382397   6.136903   5.646078   7.184450   6.210982
    21  H    8.284961   6.818659   6.192965   7.827649   6.963129
    22  H    7.540166   6.040073   5.573856   7.118428   5.929698
    23  H    7.448386   6.746978   6.387418   7.797308   6.805061
    24  C    6.698197   4.347087   3.509119   5.232001   4.708111
    25  H    6.801019   4.069460   3.224503   4.994928   4.208110
    26  H    7.736769   5.392086   4.492976   6.230604   5.757393
    27  H    6.318996   3.849022   2.945510   4.587720   4.428837
    28  H    4.465599   4.996761   5.242053   5.956581   4.883378
    29  H    3.718004   4.609045   5.016914   5.495163   4.480320
                   16         17         18         19         20
    16  C    0.000000
    17  H    1.094215   0.000000
    18  H    1.095882   1.786626   0.000000
    19  H    1.094031   1.770579   1.785107   0.000000
    20  C    2.836625   3.811489   2.949346   3.086812   0.000000
    21  H    2.968902   3.969425   2.663481   3.330512   1.096180
    22  H    3.812274   4.700268   3.957059   4.111768   1.094557
    23  H    3.074256   4.103907   3.295276   2.923361   1.094375
    24  C    2.838234   3.087271   2.951591   3.813533   2.826996
    25  H    3.816922   4.101899   3.973644   4.707316   3.114625
    26  H    2.994261   3.368302   2.691618   3.988508   2.912100
    27  H    3.042311   2.888255   3.251621   4.077610   3.796756
    28  H    4.417289   4.818658   5.335206   4.193410   3.806153
    29  H    4.868069   5.106504   5.848527   4.692045   4.518516
                   21         22         23         24         25
    21  H    0.000000
    22  H    1.784737   0.000000
    23  H    1.786665   1.770075   0.000000
    24  C    2.941869   3.080614   3.801897   0.000000
    25  H    3.347989   2.970831   4.138628   1.094425   0.000000
    26  H    2.605991   3.262095   3.920172   1.096101   1.785088
    27  H    3.925388   4.118331   4.682789   1.094534   1.772088
    28  H    4.881091   3.840868   3.524361   4.848391   4.900044
    29  H    5.585527   4.525887   4.320007   5.189120   5.200406
                   26         27         28         29
    26  H    0.000000
    27  H    1.785395   0.000000
    28  H    5.665497   5.258185   0.000000
    29  H    6.096133   5.458279   0.837222   0.000000
 Symmetry turned off by external request.
 Stoichiometry    C6H20P2Pt
 Framework group  C1[X(C6H20P2Pt)]
 Deg. of freedom    81
 Full point group                 C1      NOp   1
 Rotational constants (GHZ):           1.2072081           0.4635264           0.4099925
 Leave Link  202 at Thu Nov  7 00:43:16 2019, MaxMem=   140000000 cpu:               0.1 elap:               0.0
 (Enter /usr/g16/l301.exe)
 General basis read from cards:  (5D, 7F)
 Centers:       1
 SDD
 ****
 Centers:       2      3      4      8     12     16     20     24      5      6
 Centers:       7      9     10     11     13     14     15     17     18     19
 Centers:      21     22     23     25     26     27     28     29
 6-31g*
 ****
 ======================================================================================================
                                       Pseudopotential Parameters
 ======================================================================================================
  Center     Atomic      Valence      Angular      Power
  Number     Number     Electrons     Momentum     of R      Exponent        Coefficient   SO-Coeffient
 ======================================================================================================
    1         78           18
                                      H and up 
                                                     2        1.0000000        0.00000000    0.00000000
                                      S - H
                                                     2       13.4286510      579.22386100    0.00000000
                                                     2        6.7143260       29.66949100    0.00000000
                                      P - H
                                                     2       10.3659440      280.86077400    0.00000000
                                                     2        5.1829720       26.74538200    0.00000000
                                      D - H
                                                     2        7.6004790      120.39644400    0.00000000
                                                     2        3.8002400       15.81092100    0.00000000
                                      F - H
                                                     2        3.3095690       24.31437600    0.00000000
                                      G - H
                                                     2        5.2772890      -24.21867500    0.00000000
    2         15
                                   No pseudopotential on this center.
    3         15
                                   No pseudopotential on this center.
    4          6
                                   No pseudopotential on this center.
    5          1
                                   No pseudopotential on this center.
    6          1
                                   No pseudopotential on this center.
    7          1
                                   No pseudopotential on this center.
    8          6
                                   No pseudopotential on this center.
    9          1
                                   No pseudopotential on this center.
   10          1
                                   No pseudopotential on this center.
   11          1
                                   No pseudopotential on this center.
   12          6
                                   No pseudopotential on this center.
   13          1
                                   No pseudopotential on this center.
   14          1
                                   No pseudopotential on this center.
   15          1
                                   No pseudopotential on this center.
   16          6
                                   No pseudopotential on this center.
   17          1
                                   No pseudopotential on this center.
   18          1
                                   No pseudopotential on this center.
   19          1
                                   No pseudopotential on this center.
   20          6
                                   No pseudopotential on this center.
   21          1
                                   No pseudopotential on this center.
   22          1
                                   No pseudopotential on this center.
   23          1
                                   No pseudopotential on this center.
   24          6
                                   No pseudopotential on this center.
   25          1
                                   No pseudopotential on this center.
   26          1
                                   No pseudopotential on this center.
   27          1
                                   No pseudopotential on this center.
   28          1
                                   No pseudopotential on this center.
   29          1
                                   No pseudopotential on this center.
 ======================================================================================================
 Ernie: Thresh=  0.10000D-02 Tol=  0.10000D-05 Strict=F.
   196 basis functions,   417 primitive gaussians,   207 cartesian basis functions
    52 alpha electrons       52 beta electrons
       nuclear repulsion energy       838.6476379156 Hartrees.
 IExCor= 4336 DFT=T Ex+Corr=M062X ExCW=0 ScaHFX=  0.540000
 ScaDFX=  1.000000  1.000000  1.000000  1.000000 ScalE2=  1.000000  1.000000
 IRadAn=      5 IRanWt=     -1 IRanGd=            0 ICorTp=0 IEmpDi=  4
 NAtoms=   29 NActive=   29 NUniq=   29 SFac= 1.00D+00 NAtFMM=   60 NAOKFM=F Big=F
 Integral buffers will be    131072 words long.
 Raffenetti 2 integral format.
 Two-electron integral symmetry is turned off.
 Force inversion solution in PCM.
 ------------------------------------------------------------------------------
 Polarizable Continuum Model (PCM)
 =================================
 Model                : PCM.
 Atomic radii         : SMD-Coulomb.
 Polarization charges : Total charges.
 Charge compensation  : None.
 Solution method      : Matrix inversion.
 Cavity type          : VdW (van der Waals Surface) (Alpha=1.000).
 Cavity algorithm     : GePol (No added spheres)
                        Default sphere list used, NSphG=   29.
                        Lebedev-Laikov grids with approx.  5.0 points / Ang**2.
                        Smoothing algorithm: York/Karplus (Gamma=1.0000).
                        Polarization charges: spherical gaussians, with
                                              point-specific exponents (IZeta= 3).
                        Self-potential: point-specific (ISelfS= 7).
                        Self-field    : sphere-specific E.n sum rule (ISelfD= 2).
 1st derivatives      : Analytical E(r).r(x)/FMM algorithm (CHGder, D1EAlg=3).
                        Cavity 1st derivative terms included.
 2nd derivatives      : Analytical E(r).r(xy)/FMM algorithm (CHGder, D2EAlg=3).
                        Cavity 2nd derivative terms included.
 Solvent              : Benzene, Eps=   2.270600 Eps(inf)=   2.253301
 ------------------------------------------------------------------------------
 GePol: Number of generator spheres                  =      29
 GePol: Total number of spheres                      =      29
 GePol: Number of exposed spheres                    =      29 (100.00%)
 GePol: Number of points                             =    2156
 GePol: Average weight of points                     =       0.12
 GePol: Minimum weight of points                     =   0.11D-08
 GePol: Maximum weight of points                     =    0.22001
 GePol: Number of points with low weight             =     114
 GePol: Fraction of low-weight points (<1% of avg)   =       5.29%
 GePol: Cavity surface area                          =    253.609 Ang**2
 GePol: Cavity volume                                =    207.868 Ang**3
 ------------------------------------------------------------------------------
 Atomic radii for non-electrostatic terms: SMD-CDS.
 ------------------------------------------------------------------------------
 PCM non-electrostatic energy =         0.0004016278 Hartrees.
 Nuclear repulsion after PCM non-electrostatic terms =      838.6480395434 Hartrees.
 Leave Link  301 at Thu Nov  7 00:43:16 2019, MaxMem=   140000000 cpu:               2.5 elap:               0.1
 (Enter /usr/g16/l302.exe)
 NPDir=0 NMtPBC=     1 NCelOv=     1 NCel=       1 NClECP=     1 NCelD=      1
         NCelK=      1 NCelE2=     1 NClLst=     1 CellRange=     0.0.
 One-electron integrals computed using PRISM.
   1 Symmetry operations used in ECPInt.
 ECPInt:  NShTT=    3916 NPrTT=   20546 LenC2=    3772 LenP2D=   13430.
 LDataN:  DoStor=T MaxTD1= 7 Len=  274
 NBasis=   196 RedAO= T EigKep=  2.27D-03  NBF=   196
 NBsUse=   196 1.00D-06 EigRej= -1.00D+00 NBFU=   196
 Precomputing XC quadrature grid using
 IXCGrd= 4 IRadAn=           5 IRanWt=          -1 IRanGd=           0 AccXCQ= 0.00D+00.
 Defaulting to unpruned grid for atomic number  78.
 Generated NRdTot=       0 NPtTot=           0 NUsed=           0 NTot=          32
 NSgBfM=   207   207   207   207   207 MxSgAt=    29 MxSgA2=    29.
 Leave Link  302 at Thu Nov  7 00:43:17 2019, MaxMem=   140000000 cpu:              11.2 elap:               0.6
 (Enter /usr/g16/l303.exe)
 DipDrv:  MaxL=1.
 Leave Link  303 at Thu Nov  7 00:43:17 2019, MaxMem=   140000000 cpu:               1.7 elap:               0.1
 (Enter /usr/g16/l401.exe)
 ExpMin= 1.50D-02 ExpMax= 1.94D+04 ExpMxC= 2.91D+03 IAcc=3 IRadAn=         5 AccDes= 0.00D+00
 Harris functional with IExCor= 1009 and IRadAn=       5 diagonalized for initial guess.
 HarFok:  IExCor= 1009 AccDes= 0.00D+00 IRadAn=         5 IDoV= 1 UseB2=F ITyADJ=14
 ICtDFT=  3500011 ScaDFX=  1.000000  1.000000  1.000000  1.000000
 Defaulting to unpruned grid for atomic number  78.
 FoFCou: FMM=F IPFlag=           0 FMFlag=      100000 FMFlg1=           0
         NFxFlg=           0 DoJE=T BraDBF=F KetDBF=T FulRan=T
         wScrn=  0.000000 ICntrl=       500 IOpCl=  0 I1Cent=   200000004 NGrid=           0
         NMat0=    1 NMatS0=      1 NMatT0=    0 NMatD0=    1 NMtDS0=    0 NMtDT0=    0
 Symmetry not used in FoFCou.
 Harris En= -1042.23707670121    
 JPrj=0 DoOrth=F DoCkMO=F.
 Leave Link  401 at Thu Nov  7 00:43:19 2019, MaxMem=   140000000 cpu:              34.7 elap:               1.8
 (Enter /usr/g16/l502.exe)
 Two-electron integral symmetry not used.
 Closed shell SCF:
 Using DIIS extrapolation, IDIIS=  1040.
 NGot=   140000000 LenX=   139908056 LenY=   139864766
 Requested convergence on RMS density matrix=1.00D-08 within 128 cycles.
 Requested convergence on MAX density matrix=1.00D-06.
 Requested convergence on             energy=1.00D-06.
 No special actions if energy rises.
 Fock matrices will be formed incrementally for  20 cycles.

 Cycle   1  Pass 1  IDiag  1:
 FoFJK:  IHMeth= 1 ICntrl=       0 DoSepK=F KAlg= 0 I1Cent=           0 FoldK=F
 IRaf= 930000000 NMat=       1 IRICut=       1 DoRegI=T DoRafI=F ISym2E= 0 IDoP0=0 IntGTp=1.
 FoFCou: FMM=F IPFlag=           0 FMFlag=      100000 FMFlg1=           0
         NFxFlg=           0 DoJE=F BraDBF=F KetDBF=F FulRan=T
         wScrn=  0.000000 ICntrl=         0 IOpCl=  0 I1Cent=           0 NGrid=           0
         NMat0=    1 NMatS0=      1 NMatT0=    0 NMatD0=    1 NMtDS0=    0 NMtDT0=    0
 Symmetry not used in FoFCou.
 Defaulting to unpruned grid for atomic number  78.
 Defaulting to unpruned grid for atomic number  78.
 Defaulting to unpruned grid for atomic number  78.
 Defaulting to unpruned grid for atomic number  78.
 Defaulting to unpruned grid for atomic number  78.
 Defaulting to unpruned grid for atomic number  78.
 Defaulting to unpruned grid for atomic number  78.
 Defaulting to unpruned grid for atomic number  78.
 Defaulting to unpruned grid for atomic number  78.
 Defaulting to unpruned grid for atomic number  78.
 Defaulting to unpruned grid for atomic number  78.
 Defaulting to unpruned grid for atomic number  78.
 Defaulting to unpruned grid for atomic number  78.
 Defaulting to unpruned grid for atomic number  78.
 Defaulting to unpruned grid for atomic number  78.
 Defaulting to unpruned grid for atomic number  78.
 Defaulting to unpruned grid for atomic number  78.
 Defaulting to unpruned grid for atomic number  78.
 Defaulting to unpruned grid for atomic number  78.
 Defaulting to unpruned grid for atomic number  78.
 Inv3:  Mode=1 IEnd=    13945008.
 Iteration    1 A*A^-1 deviation from unit magnitude is 7.11D-15 for    494.
 Iteration    1 A*A^-1 deviation from orthogonality  is 4.76D-15 for   1664    477.
 Iteration    1 A^-1*A deviation from unit magnitude is 6.66D-15 for    494.
 Iteration    1 A^-1*A deviation from orthogonality  is 1.47D-15 for   1930    231.
 E= -1041.72090837168    
 DIIS: error= 5.15D-02 at cycle   1 NSaved=   1.
 NSaved= 1 IEnMin= 1 EnMin= -1041.72090837168     IErMin= 1 ErrMin= 5.15D-02
 ErrMax= 5.15D-02  0.00D+00 EMaxC= 1.00D-01 BMatC= 7.54D-01 BMatP= 7.54D-01
 IDIUse=3 WtCom= 4.85D-01 WtEn= 5.15D-01
 Coeff-Com:  0.100D+01
 Coeff-En:   0.100D+01
 Coeff:      0.100D+01
 Gap=     0.488 Goal=   None    Shift=    0.000
 GapD=    0.488 DampG=2.000 DampE=0.250 DampFc=0.5000 IDamp=-1.
 Damping current iteration by 5.00D-01
 RMSDP=9.02D-03 MaxDP=3.07D-01              OVMax= 2.39D-01

 Cycle   2  Pass 1  IDiag  1:
 RMSU=  4.49D-03    CP:  9.87D-01
 E= -1042.04083857406     Delta-E=       -0.319930202372 Rises=F Damp=T
 DIIS: error= 9.69D-03 at cycle   2 NSaved=   2.
 NSaved= 2 IEnMin= 2 EnMin= -1042.04083857406     IErMin= 2 ErrMin= 9.69D-03
 ErrMax= 9.69D-03  0.00D+00 EMaxC= 1.00D-01 BMatC= 3.72D-02 BMatP= 7.54D-01
 IDIUse=3 WtCom= 9.03D-01 WtEn= 9.69D-02
 Coeff-Com:  0.858D-01 0.914D+00
 Coeff-En:   0.130D+00 0.870D+00
 Coeff:      0.901D-01 0.910D+00
 Gap=     0.322 Goal=   None    Shift=    0.000
 RMSDP=2.78D-03 MaxDP=2.15D-01 DE=-3.20D-01 OVMax= 1.94D-01

 Cycle   3  Pass 1  IDiag  1:
 RMSU=  2.48D-03    CP:  9.81D-01  7.21D-01
 E= -1042.40350064763     Delta-E=       -0.362662073578 Rises=F Damp=F
 DIIS: error= 1.10D-02 at cycle   3 NSaved=   3.
 NSaved= 3 IEnMin= 3 EnMin= -1042.40350064763     IErMin= 2 ErrMin= 9.69D-03
 ErrMax= 1.10D-02  0.00D+00 EMaxC= 1.00D-01 BMatC= 2.43D-02 BMatP= 3.72D-02
 IDIUse=3 WtCom= 8.90D-01 WtEn= 1.10D-01
 Coeff-Com:  0.827D-02 0.439D+00 0.552D+00
 Coeff-En:   0.000D+00 0.000D+00 0.100D+01
 Coeff:      0.736D-02 0.391D+00 0.602D+00
 Gap=     0.241 Goal=   None    Shift=    0.000
 RMSDP=1.13D-03 MaxDP=4.67D-02 DE=-3.63D-01 OVMax= 4.57D-02

 Cycle   4  Pass 1  IDiag  1:
 RMSU=  7.82D-04    CP:  9.82D-01  8.52D-01  7.76D-01
 E= -1042.42154685904     Delta-E=       -0.018046211406 Rises=F Damp=F
 DIIS: error= 4.49D-03 at cycle   4 NSaved=   4.
 NSaved= 4 IEnMin= 4 EnMin= -1042.42154685904     IErMin= 4 ErrMin= 4.49D-03
 ErrMax= 4.49D-03  0.00D+00 EMaxC= 1.00D-01 BMatC= 4.56D-03 BMatP= 2.43D-02
 IDIUse=3 WtCom= 9.55D-01 WtEn= 4.49D-02
 Coeff-Com:  0.867D-02-0.185D-01 0.280D+00 0.730D+00
 Coeff-En:   0.000D+00 0.000D+00 0.135D+00 0.865D+00
 Coeff:      0.828D-02-0.177D-01 0.273D+00 0.736D+00
 Gap=     0.234 Goal=   None    Shift=    0.000
 RMSDP=4.06D-04 MaxDP=2.44D-02 DE=-1.80D-02 OVMax= 1.26D-02

 Cycle   5  Pass 1  IDiag  1:
 RMSU=  2.08D-04    CP:  9.80D-01  8.09D-01  8.88D-01  9.07D-01
 E= -1042.42532767742     Delta-E=       -0.003780818374 Rises=F Damp=F
 DIIS: error= 3.96D-04 at cycle   5 NSaved=   5.
 NSaved= 5 IEnMin= 5 EnMin= -1042.42532767742     IErMin= 5 ErrMin= 3.96D-04
 ErrMax= 3.96D-04  0.00D+00 EMaxC= 1.00D-01 BMatC= 3.27D-05 BMatP= 4.56D-03
 IDIUse=3 WtCom= 9.96D-01 WtEn= 3.96D-03
 Coeff-Com:  0.263D-02-0.215D-01 0.339D-01 0.149D+00 0.836D+00
 Coeff-En:   0.000D+00 0.000D+00 0.000D+00 0.000D+00 0.100D+01
 Coeff:      0.262D-02-0.214D-01 0.337D-01 0.149D+00 0.836D+00
 Gap=     0.234 Goal=   None    Shift=    0.000
 RMSDP=8.59D-05 MaxDP=4.61D-03 DE=-3.78D-03 OVMax= 2.82D-03

 Cycle   6  Pass 1  IDiag  1:
 RMSU=  5.97D-05    CP:  9.80D-01  8.04D-01  9.07D-01  9.52D-01  9.71D-01
 E= -1042.42538722345     Delta-E=       -0.000059546035 Rises=F Damp=F
 DIIS: error= 7.24D-05 at cycle   6 NSaved=   6.
 NSaved= 6 IEnMin= 6 EnMin= -1042.42538722345     IErMin= 6 ErrMin= 7.24D-05
 ErrMax= 7.24D-05  0.00D+00 EMaxC= 1.00D-01 BMatC= 1.84D-06 BMatP= 3.27D-05
 IDIUse=1 WtCom= 1.00D+00 WtEn= 0.00D+00
 Coeff-Com: -0.308D-03 0.105D-02-0.170D-01-0.522D-01-0.991D-02 0.108D+01
 Coeff:     -0.308D-03 0.105D-02-0.170D-01-0.522D-01-0.991D-02 0.108D+01
 Gap=     0.234 Goal=   None    Shift=    0.000
 RMSDP=3.36D-05 MaxDP=1.93D-03 DE=-5.95D-05 OVMax= 1.31D-03

 Cycle   7  Pass 1  IDiag  1:
 RMSU=  1.01D-05    CP:  9.80D-01  8.03D-01  9.13D-01  9.71D-01  1.06D+00
                    CP:  1.24D+00
 E= -1042.42539273307     Delta-E=       -0.000005509620 Rises=F Damp=F
 DIIS: error= 2.80D-05 at cycle   7 NSaved=   7.
 NSaved= 7 IEnMin= 7 EnMin= -1042.42539273307     IErMin= 7 ErrMin= 2.80D-05
 ErrMax= 2.80D-05  0.00D+00 EMaxC= 1.00D-01 BMatC= 1.35D-07 BMatP= 1.84D-06
 IDIUse=1 WtCom= 1.00D+00 WtEn= 0.00D+00
 Coeff-Com:  0.115D-04 0.602D-03-0.277D-03-0.584D-02-0.246D-01-0.621D-01
 Coeff-Com:  0.109D+01
 Coeff:      0.115D-04 0.602D-03-0.277D-03-0.584D-02-0.246D-01-0.621D-01
 Coeff:      0.109D+01
 Gap=     0.234 Goal=   None    Shift=    0.000
 RMSDP=8.40D-06 MaxDP=3.79D-04 DE=-5.51D-06 OVMax= 4.76D-04

 Cycle   8  Pass 1  IDiag  1:
 RMSU=  2.93D-06    CP:  9.80D-01  8.03D-01  9.15D-01  9.74D-01  1.07D+00
                    CP:  1.31D+00  1.33D+00
 E= -1042.42539311202     Delta-E=       -0.000000378955 Rises=F Damp=F
 DIIS: error= 8.17D-06 at cycle   8 NSaved=   8.
 NSaved= 8 IEnMin= 8 EnMin= -1042.42539311202     IErMin= 8 ErrMin= 8.17D-06
 ErrMax= 8.17D-06  0.00D+00 EMaxC= 1.00D-01 BMatC= 1.37D-08 BMatP= 1.35D-07
 IDIUse=1 WtCom= 1.00D+00 WtEn= 0.00D+00
 Coeff-Com:  0.409D-04-0.301D-04 0.137D-02 0.292D-02-0.355D-02-0.102D+00
 Coeff-Com:  0.266D+00 0.836D+00
 Coeff:      0.409D-04-0.301D-04 0.137D-02 0.292D-02-0.355D-02-0.102D+00
 Coeff:      0.266D+00 0.836D+00
 Gap=     0.234 Goal=   None    Shift=    0.000
 RMSDP=1.88D-06 MaxDP=8.82D-05 DE=-3.79D-07 OVMax= 1.36D-04

 Cycle   9  Pass 1  IDiag  1:
 RMSU=  9.81D-07    CP:  9.80D-01  8.03D-01  9.15D-01  9.74D-01  1.07D+00
                    CP:  1.32D+00  1.45D+00  1.00D+00
 E= -1042.42539314777     Delta-E=       -0.000000035742 Rises=F Damp=F
 DIIS: error= 4.32D-06 at cycle   9 NSaved=   9.
 NSaved= 9 IEnMin= 9 EnMin= -1042.42539314777     IErMin= 9 ErrMin= 4.32D-06
 ErrMax= 4.32D-06  0.00D+00 EMaxC= 1.00D-01 BMatC= 1.74D-09 BMatP= 1.37D-08
 IDIUse=1 WtCom= 1.00D+00 WtEn= 0.00D+00
 Coeff-Com:  0.431D-05-0.445D-04 0.337D-03 0.145D-02 0.179D-02-0.154D-01
 Coeff-Com: -0.773D-01 0.177D+00 0.912D+00
 Coeff:      0.431D-05-0.445D-04 0.337D-03 0.145D-02 0.179D-02-0.154D-01
 Coeff:     -0.773D-01 0.177D+00 0.912D+00
 Gap=     0.234 Goal=   None    Shift=    0.000
 RMSDP=6.75D-07 MaxDP=2.72D-05 DE=-3.57D-08 OVMax= 6.92D-05

 Cycle  10  Pass 1  IDiag  1:
 RMSU=  3.58D-07    CP:  9.80D-01  8.03D-01  9.15D-01  9.74D-01  1.07D+00
                    CP:  1.33D+00  1.49D+00  1.11D+00  1.12D+00
 E= -1042.42539315307     Delta-E=       -0.000000005300 Rises=F Damp=F
 DIIS: error= 1.33D-06 at cycle  10 NSaved=  10.
 NSaved=10 IEnMin=10 EnMin= -1042.42539315307     IErMin=10 ErrMin= 1.33D-06
 ErrMax= 1.33D-06  0.00D+00 EMaxC= 1.00D-01 BMatC= 2.46D-10 BMatP= 1.74D-09
 IDIUse=1 WtCom= 1.00D+00 WtEn= 0.00D+00
 Coeff-Com: -0.629D-05-0.306D-05-0.771D-04 0.724D-04 0.725D-03 0.741D-02
 Coeff-Com: -0.457D-01-0.541D-01 0.228D+00 0.863D+00
 Coeff:     -0.629D-05-0.306D-05-0.771D-04 0.724D-04 0.725D-03 0.741D-02
 Coeff:     -0.457D-01-0.541D-01 0.228D+00 0.863D+00
 Gap=     0.234 Goal=   None    Shift=    0.000
 RMSDP=2.02D-07 MaxDP=9.90D-06 DE=-5.30D-09 OVMax= 2.31D-05

 Cycle  11  Pass 1  IDiag  1:
 RMSU=  1.13D-07    CP:  9.80D-01  8.03D-01  9.15D-01  9.74D-01  1.07D+00
                    CP:  1.33D+00  1.49D+00  1.14D+00  1.24D+00  1.13D+00
 E= -1042.42539315367     Delta-E=       -0.000000000603 Rises=F Damp=F
 DIIS: error= 3.50D-07 at cycle  11 NSaved=  11.
 NSaved=11 IEnMin=11 EnMin= -1042.42539315367     IErMin=11 ErrMin= 3.50D-07
 ErrMax= 3.50D-07  0.00D+00 EMaxC= 1.00D-01 BMatC= 2.69D-11 BMatP= 2.46D-10
 IDIUse=1 WtCom= 1.00D+00 WtEn= 0.00D+00
 Coeff-Com: -0.282D-05 0.436D-05-0.688D-04-0.167D-03-0.958D-05 0.409D-02
 Coeff-Com: -0.341D-02-0.385D-01-0.445D-01 0.236D+00 0.847D+00
 Coeff:     -0.282D-05 0.436D-05-0.688D-04-0.167D-03-0.958D-05 0.409D-02
 Coeff:     -0.341D-02-0.385D-01-0.445D-01 0.236D+00 0.847D+00
 Gap=     0.234 Goal=   None    Shift=    0.000
 RMSDP=8.30D-08 MaxDP=3.32D-06 DE=-6.03D-10 OVMax= 7.18D-06

 Cycle  12  Pass 1  IDiag  1:
 RMSU=  4.37D-08    CP:  9.80D-01  8.03D-01  9.15D-01  9.74D-01  1.07D+00
                    CP:  1.33D+00  1.49D+00  1.14D+00  1.29D+00  1.25D+00
                    CP:  1.18D+00
 E= -1042.42539315375     Delta-E=       -0.000000000085 Rises=F Damp=F
 DIIS: error= 1.34D-07 at cycle  12 NSaved=  12.
 NSaved=12 IEnMin=12 EnMin= -1042.42539315375     IErMin=12 ErrMin= 1.34D-07
 ErrMax= 1.34D-07  0.00D+00 EMaxC= 1.00D-01 BMatC= 3.44D-12 BMatP= 2.69D-11
 IDIUse=1 WtCom= 1.00D+00 WtEn= 0.00D+00
 Coeff-Com:  0.212D-06 0.283D-05-0.106D-04-0.718D-04-0.112D-03 0.150D-03
 Coeff-Com:  0.529D-02-0.306D-02-0.423D-01-0.591D-01 0.215D+00 0.884D+00
 Coeff:      0.212D-06 0.283D-05-0.106D-04-0.718D-04-0.112D-03 0.150D-03
 Coeff:      0.529D-02-0.306D-02-0.423D-01-0.591D-01 0.215D+00 0.884D+00
 Gap=     0.234 Goal=   None    Shift=    0.000
 RMSDP=3.20D-08 MaxDP=1.29D-06 DE=-8.55D-11 OVMax= 2.53D-06

 Cycle  13  Pass 1  IDiag  1:
 RMSU=  1.25D-08    CP:  9.80D-01  8.03D-01  9.15D-01  9.74D-01  1.07D+00
                    CP:  1.33D+00  1.49D+00  1.14D+00  1.29D+00  1.30D+00
                    CP:  1.35D+00  1.09D+00
 E= -1042.42539315373     Delta-E=        0.000000000020 Rises=F Damp=F
 DIIS: error= 4.65D-08 at cycle  13 NSaved=  13.
 NSaved=13 IEnMin=12 EnMin= -1042.42539315375     IErMin=13 ErrMin= 4.65D-08
 ErrMax= 4.65D-08  0.00D+00 EMaxC= 1.00D-01 BMatC= 1.81D-13 BMatP= 3.44D-12
 IDIUse=1 WtCom= 1.00D+00 WtEn= 0.00D+00
 Coeff-Com:  0.330D-06-0.423D-06 0.509D-05 0.746D-05-0.447D-05-0.349D-03
 Coeff-Com:  0.825D-03 0.334D-02 0.617D-03-0.271D-01-0.659D-01 0.732D-01
 Coeff-Com:  0.102D+01
 Coeff:      0.330D-06-0.423D-06 0.509D-05 0.746D-05-0.447D-05-0.349D-03
 Coeff:      0.825D-03 0.334D-02 0.617D-03-0.271D-01-0.659D-01 0.732D-01
 Coeff:      0.102D+01
 Gap=     0.234 Goal=   None    Shift=    0.000
 RMSDP=1.09D-08 MaxDP=4.85D-07 DE= 2.00D-11 OVMax= 6.29D-07

 Cycle  14  Pass 1  IDiag  1:
 RMSU=  3.44D-09    CP:  9.80D-01  8.03D-01  9.15D-01  9.74D-01  1.07D+00
                    CP:  1.33D+00  1.49D+00  1.14D+00  1.29D+00  1.31D+00
                    CP:  1.41D+00  1.21D+00  1.23D+00
 E= -1042.42539315373     Delta-E=        0.000000000005 Rises=F Damp=F
 DIIS: error= 8.20D-09 at cycle  14 NSaved=  14.
 NSaved=14 IEnMin=12 EnMin= -1042.42539315375     IErMin=14 ErrMin= 8.20D-09
 ErrMax= 8.20D-09  0.00D+00 EMaxC= 1.00D-01 BMatC= 1.44D-14 BMatP= 1.81D-13
 IDIUse=1 WtCom= 1.00D+00 WtEn= 0.00D+00
 Coeff-Com: -0.708D-07-0.640D-07 0.254D-06 0.502D-05 0.659D-05 0.160D-04
 Coeff-Com: -0.397D-03-0.717D-04 0.257D-02 0.631D-02-0.782D-02-0.636D-01
 Coeff-Com: -0.783D-01 0.114D+01
 Coeff:     -0.708D-07-0.640D-07 0.254D-06 0.502D-05 0.659D-05 0.160D-04
 Coeff:     -0.397D-03-0.717D-04 0.257D-02 0.631D-02-0.782D-02-0.636D-01
 Coeff:     -0.783D-01 0.114D+01
 Gap=     0.234 Goal=   None    Shift=    0.000
 RMSDP=2.78D-09 MaxDP=1.25D-07 DE= 5.46D-12 OVMax= 1.54D-07

 Error on total polarization charges =  0.04152
 SCF Done:  E(RM062X) =  -1042.42539315     A.U. after   14 cycles
            NFock= 14  Conv=0.28D-08     -V/T= 2.0849
 KE= 9.608236437564D+02 PE=-4.106095272220D+03 EE= 1.264198195766D+03
 SMD-CDS (non-electrostatic) energy       (kcal/mol) =       0.25
 (included in total energy above)
 Leave Link  502 at Thu Nov  7 00:45:01 2019, MaxMem=   140000000 cpu:            2008.7 elap:             102.4
 (Enter /usr/g16/l801.exe)
 DoSCS=F DFT=T ScalE2(SS,OS)=  1.000000  1.000000
 Range of M.O.s used for correlation:     1   196
 NBasis=   196 NAE=    52 NBE=    52 NFC=     0 NFV=     0
 NROrb=    196 NOA=    52 NOB=    52 NVA=   144 NVB=   144
 Leave Link  801 at Thu Nov  7 00:45:01 2019, MaxMem=   140000000 cpu:               1.5 elap:               0.1
 (Enter /usr/g16/l1101.exe)
 Using compressed storage, NAtomX=    29.
 Will process     30 centers per pass.
   1 Symmetry operations used in ECPInt.
 ECPInt:  NShTT=    3916 NPrTT=   20546 LenC2=    3772 LenP2D=   13430.
 LDataN:  DoStor=T MaxTD1= 8 Len=  415
 Number of processors reduced to   7 by ecpmxn.
 Leave Link 1101 at Thu Nov  7 00:45:02 2019, MaxMem=   140000000 cpu:              14.9 elap:               1.1
 (Enter /usr/g16/l1102.exe)
 Symmetrizing basis deriv contribution to polar:
 IMax=3 JMax=2 DiffMx= 0.00D+00
 Leave Link 1102 at Thu Nov  7 00:45:03 2019, MaxMem=   140000000 cpu:               2.2 elap:               0.1
 (Enter /usr/g16/l1110.exe)
 Forming Gx(P) for the SCF density, NAtomX=    29.
 Integral derivatives from FoFJK, PRISM(SPDF).
 Do as many integral derivatives as possible in FoFJK.
 G2DrvN: MDV=     139997776.
 G2DrvN: will do    30 centers at a time, making    1 passes.
 Calling FoFCou, ICntrl=  3107 FMM=F I1Cent=   0 AccDes= 0.00D+00.
 FoFJK:  IHMeth= 1 ICntrl=    3107 DoSepK=F KAlg= 0 I1Cent=           0 FoldK=F
 IRaf=         0 NMat=       1 IRICut=       1 DoRegI=T DoRafI=F ISym2E= 0 IDoP0=0 IntGTp=1.
 FoFCou: FMM=F IPFlag=           0 FMFlag=      100000 FMFlg1=           0
         NFxFlg=           0 DoJE=F BraDBF=F KetDBF=F FulRan=T
         wScrn=  0.000000 ICntrl=      3107 IOpCl=  0 I1Cent=           0 NGrid=           0
         NMat0=    1 NMatS0=      1 NMatT0=    0 NMatD0=    1 NMtDS0=    0 NMtDT0=    0
 Symmetry not used in FoFCou.
 Defaulting to unpruned grid for atomic number  78.
 Defaulting to unpruned grid for atomic number  78.
 Defaulting to unpruned grid for atomic number  78.
 Defaulting to unpruned grid for atomic number  78.
 Defaulting to unpruned grid for atomic number  78.
 Defaulting to unpruned grid for atomic number  78.
 Defaulting to unpruned grid for atomic number  78.
 Defaulting to unpruned grid for atomic number  78.
 Defaulting to unpruned grid for atomic number  78.
 Defaulting to unpruned grid for atomic number  78.
 Defaulting to unpruned grid for atomic number  78.
 Defaulting to unpruned grid for atomic number  78.
 Defaulting to unpruned grid for atomic number  78.
 Defaulting to unpruned grid for atomic number  78.
 Defaulting to unpruned grid for atomic number  78.
 Defaulting to unpruned grid for atomic number  78.
 Defaulting to unpruned grid for atomic number  78.
 Defaulting to unpruned grid for atomic number  78.
 Defaulting to unpruned grid for atomic number  78.
 Defaulting to unpruned grid for atomic number  78.
 NEqPCM:  Using equilibrium solvation (IEInf=0, Eps=   2.2706, EpsInf=   2.2533)
 G2PCM: DoFxE=T DoFxN=T DoGrad=T DoDP/DQ/DG/TGxP=FFFF NFrqRd=   0 IEInf=0 SqF1=F DoCFld=F IF1Alg=4.
 GePol: Maximum number of non-zero 1st derivatives   =     236
 CoulSu:  requested number of processors reduced to:  17 ShMem   1 Linda.
 End of G2Drv F.D. properties file   721 does not exist.
 End of G2Drv F.D. properties file   722 does not exist.
 End of G2Drv F.D. properties file   788 does not exist.
 Leave Link 1110 at Thu Nov  7 00:48:03 2019, MaxMem=   140000000 cpu:            3597.7 elap:             180.3
 (Enter /usr/g16/l1002.exe)
 Minotr:  Closed shell wavefunction.
          IDoAtm=11111111111111111111111111111
 NEqPCM:  Using equilibrium solvation (IEInf=0, Eps=   2.2706, EpsInf=   2.2533)
          Direct CPHF calculation.
          Differentiating once with respect to nuclear coordinates.
          Requested convergence is 1.0D-08 RMS, and 1.0D-07 maximum.
          Secondary convergence is 1.0D-12 RMS, and 1.0D-12 maximum.
          NewPWx=T KeepS1=F KeepF1=F KeepIn=T MapXYZ=F SortEE=F KeepMc=T.
 Defaulting to unpruned grid for atomic number  78.
         8993 words used for storage of precomputed grid.
 Two-electron integral symmetry not used.
          MDV=     140000000 using IRadAn=       1.
          Solving linear equations simultaneously, MaxMat=     380.
 FoF2E skips out because all densities are zero.
 CalDSu exits because no D1Ps are significant.
 FoFJK:  IHMeth= 1 ICntrl=       0 DoSepK=F KAlg= 0 I1Cent=           0 FoldK=F
 IRaf= 920000000 NMat=      60 IRICut=     150 DoRegI=T DoRafI=T ISym2E= 0 IDoP0=3 IntGTp=3.
 Defaulting to unpruned grid for atomic number  78.
 Defaulting to unpruned grid for atomic number  78.
 Defaulting to unpruned grid for atomic number  78.
 Defaulting to unpruned grid for atomic number  78.
 Defaulting to unpruned grid for atomic number  78.
 Defaulting to unpruned grid for atomic number  78.
 Defaulting to unpruned grid for atomic number  78.
 Defaulting to unpruned grid for atomic number  78.
 Defaulting to unpruned grid for atomic number  78.
 Defaulting to unpruned grid for atomic number  78.
 Defaulting to unpruned grid for atomic number  78.
 Defaulting to unpruned grid for atomic number  78.
 Defaulting to unpruned grid for atomic number  78.
 Defaulting to unpruned grid for atomic number  78.
 Defaulting to unpruned grid for atomic number  78.
 Defaulting to unpruned grid for atomic number  78.
 Defaulting to unpruned grid for atomic number  78.
 Defaulting to unpruned grid for atomic number  78.
 Defaulting to unpruned grid for atomic number  78.
 Defaulting to unpruned grid for atomic number  78.
          There are    90 degrees of freedom in the 1st order CPHF.  IDoFFX=6 NUNeed=     0.
     84 vectors produced by pass  0 Test12= 8.32D-15 1.11D-09 XBig12= 5.64D-02 6.42D-02.
 AX will form    60 AO Fock derivatives at one time.
     84 vectors produced by pass  1 Test12= 8.32D-15 1.11D-09 XBig12= 9.96D-03 2.43D-02.
     84 vectors produced by pass  2 Test12= 8.32D-15 1.11D-09 XBig12= 3.22D-04 6.53D-03.
     84 vectors produced by pass  3 Test12= 8.32D-15 1.11D-09 XBig12= 3.90D-06 4.82D-04.
     84 vectors produced by pass  4 Test12= 8.32D-15 1.11D-09 XBig12= 2.27D-08 4.43D-05.
     84 vectors produced by pass  5 Test12= 8.32D-15 1.11D-09 XBig12= 7.10D-11 1.05D-06.
     41 vectors produced by pass  6 Test12= 8.32D-15 1.11D-09 XBig12= 2.10D-13 6.18D-08.
      2 vectors produced by pass  7 Test12= 8.32D-15 1.11D-09 XBig12= 6.19D-16 3.47D-09.
 InvSVY:  IOpt=1 It=  1 EMax= 4.72D-16
 Solved reduced A of dimension   547 with    90 vectors.
 End of Minotr F.D. properties file   721 does not exist.
 End of Minotr F.D. properties file   722 does not exist.
 End of Minotr F.D. properties file   788 does not exist.
 Leave Link 1002 at Thu Nov  7 00:50:45 2019, MaxMem=   140000000 cpu:            3229.9 elap:             161.8
 (Enter /usr/g16/l601.exe)
 Copying SCF densities to generalized density rwf, IOpCl= 0 IROHF=0.

 **********************************************************************

            Population analysis using the SCF density.

 **********************************************************************

 Alpha  occ. eigenvalues --  -78.04465 -78.04427 -10.52672 -10.52655 -10.52634
 Alpha  occ. eigenvalues --  -10.52626 -10.52413 -10.52355  -6.85906  -6.85868
 Alpha  occ. eigenvalues --   -4.97286  -4.97262  -4.97247  -4.97224  -4.97079
 Alpha  occ. eigenvalues --   -4.97041  -4.02015  -2.23780  -2.23321  -2.21538
 Alpha  occ. eigenvalues --   -0.85397  -0.85197  -0.77391  -0.77311  -0.77217
 Alpha  occ. eigenvalues --   -0.77121  -0.61785  -0.60782  -0.53545  -0.50443
 Alpha  occ. eigenvalues --   -0.49998  -0.48910  -0.48529  -0.48494  -0.48407
 Alpha  occ. eigenvalues --   -0.46059  -0.45819  -0.45760  -0.45626  -0.44150
 Alpha  occ. eigenvalues --   -0.44094  -0.39505  -0.38583  -0.38358  -0.38143
 Alpha  occ. eigenvalues --   -0.37750  -0.36279  -0.28864  -0.28421  -0.26473
 Alpha  occ. eigenvalues --   -0.24517  -0.22542
 Alpha virt. eigenvalues --    0.00832   0.01083   0.04927   0.05616   0.09276
 Alpha virt. eigenvalues --    0.09882   0.10878   0.11451   0.12278   0.12574
 Alpha virt. eigenvalues --    0.12883   0.13871   0.15237   0.15850   0.16422
 Alpha virt. eigenvalues --    0.16618   0.18149   0.20106   0.20219   0.21443
 Alpha virt. eigenvalues --    0.21891   0.22267   0.23229   0.23661   0.24276
 Alpha virt. eigenvalues --    0.24686   0.24958   0.25483   0.25592   0.26431
 Alpha virt. eigenvalues --    0.26687   0.27958   0.28595   0.29151   0.30315
 Alpha virt. eigenvalues --    0.32049   0.34463   0.36230   0.36642   0.44377
 Alpha virt. eigenvalues --    0.46232   0.47286   0.48290   0.50494   0.51218
 Alpha virt. eigenvalues --    0.52306   0.55576   0.56734   0.59428   0.63520
 Alpha virt. eigenvalues --    0.64256   0.66577   0.67099   0.68584   0.69612
 Alpha virt. eigenvalues --    0.71082   0.71675   0.72018   0.72410   0.72976
 Alpha virt. eigenvalues --    0.75791   0.77201   0.79406   0.81137   0.83456
 Alpha virt. eigenvalues --    0.83710   0.84875   0.85804   0.87053   0.87389
 Alpha virt. eigenvalues --    0.87945   0.89870   0.91467   0.91525   0.93980
 Alpha virt. eigenvalues --    0.94514   0.95873   0.96949   0.97445   0.97925
 Alpha virt. eigenvalues --    0.98912   0.99234   0.99838   1.00709   1.01249
 Alpha virt. eigenvalues --    1.01926   1.02310   1.02660   1.04160   1.04509
 Alpha virt. eigenvalues --    1.05798   1.09488   1.09976   1.12031   1.12498
 Alpha virt. eigenvalues --    1.13657   1.14267   1.16829   1.24515   1.33876
 Alpha virt. eigenvalues --    1.37522   1.40080   1.41523   1.42583   1.43881
 Alpha virt. eigenvalues --    1.45188   1.46628   1.56234   1.61467   1.71365
 Alpha virt. eigenvalues --    1.71392   1.75747   1.76571   1.76864   1.77491
 Alpha virt. eigenvalues --    1.84874   1.86067   1.87822   1.87975   1.96808
 Alpha virt. eigenvalues --    1.99332   2.15293   2.15444   2.26234   2.26268
 Alpha virt. eigenvalues --    2.26705   2.27107   2.29551   2.30598   2.31858
 Alpha virt. eigenvalues --    2.31931   2.32440   2.32663   2.32923   2.33091
 Alpha virt. eigenvalues --    2.35048   2.35354   2.35375   2.35838   2.58339
 Alpha virt. eigenvalues --   46.19161  46.26941  46.32260 115.14160
          Condensed to atoms (all electrons):
               1          2          3          4          5          6
     1  Pt  18.024098   0.250777   0.256687  -0.020220   0.003441   0.007787
     2  P    0.250777  13.571003  -0.046691   0.327160  -0.027332  -0.019922
     3  P    0.256687  -0.046691  13.560470  -0.001271  -0.000081   0.000021
     4  C   -0.020220   0.327160  -0.001271   5.378535   0.371419   0.351665
     5  H    0.003441  -0.027332  -0.000081   0.371419   0.481056  -0.026395
     6  H    0.007787  -0.019922   0.000021   0.351665  -0.026395   0.532069
     7  H    0.002651  -0.024952  -0.000152   0.368068  -0.021239  -0.026022
     8  C   -0.014586   0.307481   0.000687  -0.050278  -0.001386  -0.004761
     9  H    0.003497  -0.029269   0.000011   0.002408  -0.000004  -0.000041
    10  H    0.006367  -0.016008  -0.000017  -0.004649  -0.000319   0.003540
    11  H    0.003448  -0.029646   0.000020  -0.001670   0.000777  -0.000345
    12  C   -0.020079   0.328107  -0.001155  -0.041252   0.002343  -0.004979
    13  H    0.002902  -0.025567  -0.000790  -0.001814   0.000014  -0.000297
    14  H    0.007659  -0.019811   0.000015  -0.005039  -0.000057   0.003326
    15  H    0.004090  -0.027004   0.000049   0.002333  -0.000038  -0.000060
    16  C   -0.017434  -0.000113   0.325473  -0.000007  -0.000003   0.000000
    17  H    0.002512  -0.000257  -0.026123   0.000082  -0.000027  -0.000002
    18  H    0.007365  -0.000011  -0.019715  -0.000000  -0.000000  -0.000000
    19  H    0.004243   0.000051  -0.026535  -0.000000   0.000001  -0.000000
    20  C   -0.014849   0.000744   0.310152  -0.000001  -0.000000   0.000000
    21  H    0.006381  -0.000018  -0.016553   0.000000   0.000000  -0.000000
    22  H    0.003736   0.000038  -0.029794  -0.000000   0.000000   0.000000
    23  H    0.003342   0.000002  -0.028181   0.000000   0.000000  -0.000000
    24  C   -0.024462  -0.002341   0.330448   0.000018   0.000004  -0.000002
    25  H    0.002982  -0.000352  -0.028002   0.000005   0.000000  -0.000000
    26  H    0.008291   0.000049  -0.020089  -0.000002  -0.000000   0.000000
    27  H    0.001373  -0.000050  -0.023890  -0.000018  -0.000003  -0.000007
    28  H    0.064432  -0.016338   0.020538   0.000048   0.000004  -0.000001
    29  H    0.064103   0.019975  -0.016432   0.000097   0.000012  -0.000000
               7          8          9         10         11         12
     1  Pt   0.002651  -0.014586   0.003497   0.006367   0.003448  -0.020079
     2  P   -0.024952   0.307481  -0.029269  -0.016008  -0.029646   0.328107
     3  P   -0.000152   0.000687   0.000011  -0.000017   0.000020  -0.001155
     4  C    0.368068  -0.050278   0.002408  -0.004649  -0.001670  -0.041252
     5  H   -0.021239  -0.001386  -0.000004  -0.000319   0.000777   0.002343
     6  H   -0.026022  -0.004761  -0.000041   0.003540  -0.000345  -0.004979
     7  H    0.489724   0.002405  -0.000040  -0.000043   0.000013  -0.001879
     8  C    0.002405   5.399295   0.372949   0.346738   0.373247  -0.048318
     9  H   -0.000040   0.372949   0.487543  -0.026005  -0.021669  -0.001626
    10  H   -0.000043   0.346738  -0.026005   0.539858  -0.026199  -0.004791
    11  H    0.000013   0.373247  -0.021669  -0.026199   0.487840   0.002402
    12  C   -0.001879  -0.048318  -0.001626  -0.004791   0.002402   5.374565
    13  H    0.000656   0.002372   0.000008  -0.000045  -0.000039   0.369038
    14  H   -0.000313  -0.004821  -0.000331   0.003482  -0.000047   0.351689
    15  H    0.000021  -0.001379   0.000795  -0.000333  -0.000004   0.370892
    16  C   -0.000053  -0.000001  -0.000000   0.000000  -0.000000   0.000010
    17  H   -0.000069  -0.000000   0.000000   0.000000   0.000000   0.000000
    18  H   -0.000003   0.000000   0.000000  -0.000000   0.000000  -0.000000
    19  H    0.000001  -0.000000   0.000000   0.000000   0.000000   0.000000
    20  C   -0.000000  -0.000000  -0.000000   0.000000  -0.000000  -0.000002
    21  H   -0.000000   0.000000   0.000000  -0.000000   0.000000   0.000000
    22  H    0.000000  -0.000000   0.000000   0.000000   0.000000  -0.000000
    23  H    0.000000  -0.000000  -0.000000   0.000000   0.000000   0.000000
    24  C   -0.000010  -0.000001   0.000000   0.000000   0.000000  -0.000017
    25  H   -0.000008  -0.000000   0.000000   0.000000   0.000000  -0.000005
    26  H   -0.000005   0.000000   0.000000  -0.000000   0.000000   0.000000
    27  H   -0.000016  -0.000000   0.000000  -0.000000   0.000000  -0.000161
    28  H    0.000002   0.000096   0.000020  -0.000003   0.000017   0.000066
    29  H   -0.000000  -0.001773  -0.000056   0.000028  -0.000072   0.000076
              13         14         15         16         17         18
     1  Pt   0.002902   0.007659   0.004090  -0.017434   0.002512   0.007365
     2  P   -0.025567  -0.019811  -0.027004  -0.000113  -0.000257  -0.000011
     3  P   -0.000790   0.000015   0.000049   0.325473  -0.026123  -0.019715
     4  C   -0.001814  -0.005039   0.002333  -0.000007   0.000082  -0.000000
     5  H    0.000014  -0.000057  -0.000038  -0.000003  -0.000027  -0.000000
     6  H   -0.000297   0.003326  -0.000060   0.000000  -0.000002  -0.000000
     7  H    0.000656  -0.000313   0.000021  -0.000053  -0.000069  -0.000003
     8  C    0.002372  -0.004821  -0.001379  -0.000001  -0.000000   0.000000
     9  H    0.000008  -0.000331   0.000795  -0.000000   0.000000   0.000000
    10  H   -0.000045   0.003482  -0.000333   0.000000   0.000000  -0.000000
    11  H   -0.000039  -0.000047  -0.000004  -0.000000   0.000000   0.000000
    12  C    0.369038   0.351689   0.370892   0.000010   0.000000  -0.000000
    13  H    0.486145  -0.025935  -0.021200   0.000000  -0.000005  -0.000000
    14  H   -0.025935   0.532028  -0.026267  -0.000000  -0.000000   0.000000
    15  H   -0.021200  -0.026267   0.479309  -0.000000   0.000000   0.000000
    16  C    0.000000  -0.000000  -0.000000   5.373355   0.369681   0.351892
    17  H   -0.000005  -0.000000   0.000000   0.369681   0.483495  -0.025892
    18  H   -0.000000   0.000000   0.000000   0.351892  -0.025892   0.530918
    19  H    0.000000  -0.000000   0.000000   0.370396  -0.020923  -0.025968
    20  C   -0.000000   0.000000  -0.000000  -0.044697   0.002382  -0.005055
    21  H   -0.000000  -0.000000   0.000000  -0.005102  -0.000054   0.003508
    22  H   -0.000000   0.000000   0.000000   0.002410  -0.000038  -0.000057
    23  H    0.000000   0.000000   0.000000  -0.001598   0.000008  -0.000328
    24  C    0.000396  -0.000002  -0.000002  -0.043055  -0.001717  -0.004876
    25  H   -0.000022  -0.000001  -0.000000   0.002347   0.000004  -0.000053
    26  H   -0.000010   0.000000  -0.000000  -0.004747  -0.000305   0.003235
    27  H    0.000010  -0.000007   0.000001  -0.002103   0.000821  -0.000310
    28  H    0.000002  -0.000001   0.000006  -0.000047  -0.000004   0.000002
    29  H   -0.000001   0.000000   0.000018   0.000088   0.000003  -0.000001
              19         20         21         22         23         24
     1  Pt   0.004243  -0.014849   0.006381   0.003736   0.003342  -0.024462
     2  P    0.000051   0.000744  -0.000018   0.000038   0.000002  -0.002341
     3  P   -0.026535   0.310152  -0.016553  -0.029794  -0.028181   0.330448
     4  C   -0.000000  -0.000001   0.000000  -0.000000   0.000000   0.000018
     5  H    0.000001  -0.000000   0.000000   0.000000   0.000000   0.000004
     6  H   -0.000000   0.000000  -0.000000   0.000000  -0.000000  -0.000002
     7  H    0.000001  -0.000000  -0.000000   0.000000   0.000000  -0.000010
     8  C   -0.000000  -0.000000   0.000000  -0.000000  -0.000000  -0.000001
     9  H    0.000000  -0.000000   0.000000   0.000000  -0.000000   0.000000
    10  H    0.000000   0.000000  -0.000000   0.000000   0.000000   0.000000
    11  H    0.000000  -0.000000   0.000000   0.000000   0.000000   0.000000
    12  C    0.000000  -0.000002   0.000000  -0.000000   0.000000  -0.000017
    13  H    0.000000  -0.000000  -0.000000  -0.000000   0.000000   0.000396
    14  H   -0.000000   0.000000  -0.000000   0.000000   0.000000  -0.000002
    15  H    0.000000  -0.000000   0.000000   0.000000   0.000000  -0.000002
    16  C    0.370396  -0.044697  -0.005102   0.002410  -0.001598  -0.043055
    17  H   -0.020923   0.002382  -0.000054  -0.000038   0.000008  -0.001717
    18  H   -0.025968  -0.005055   0.003508  -0.000057  -0.000328  -0.004876
    19  H    0.478801  -0.001306  -0.000336  -0.000006   0.000819   0.002349
    20  C   -0.001306   5.395842   0.347339   0.373087   0.371939  -0.052358
    21  H   -0.000336   0.347339   0.538342  -0.026299  -0.025596  -0.004470
    22  H   -0.000006   0.373087  -0.026299   0.486016  -0.021611  -0.001713
    23  H    0.000819   0.371939  -0.025596  -0.021611   0.486953   0.002415
    24  C    0.002349  -0.052358  -0.004470  -0.001713   0.002415   5.382336
    25  H   -0.000038  -0.001343  -0.000305   0.000731  -0.000003   0.372325
    26  H   -0.000061  -0.004747   0.003598  -0.000353  -0.000031   0.351099
    27  H    0.000029   0.002406  -0.000034   0.000012  -0.000041   0.367817
    28  H    0.000026  -0.001710   0.000027  -0.000077  -0.000007   0.000115
    29  H    0.000009   0.000105  -0.000003   0.000014   0.000025   0.000037
              25         26         27         28         29
     1  Pt   0.002982   0.008291   0.001373   0.064432   0.064103
     2  P   -0.000352   0.000049  -0.000050  -0.016338   0.019975
     3  P   -0.028002  -0.020089  -0.023890   0.020538  -0.016432
     4  C    0.000005  -0.000002  -0.000018   0.000048   0.000097
     5  H    0.000000  -0.000000  -0.000003   0.000004   0.000012
     6  H   -0.000000   0.000000  -0.000007  -0.000001  -0.000000
     7  H   -0.000008  -0.000005  -0.000016   0.000002  -0.000000
     8  C   -0.000000   0.000000  -0.000000   0.000096  -0.001773
     9  H    0.000000   0.000000   0.000000   0.000020  -0.000056
    10  H    0.000000  -0.000000  -0.000000  -0.000003   0.000028
    11  H    0.000000   0.000000   0.000000   0.000017  -0.000072
    12  C   -0.000005   0.000000  -0.000161   0.000066   0.000076
    13  H   -0.000022  -0.000010   0.000010   0.000002  -0.000001
    14  H   -0.000001   0.000000  -0.000007  -0.000001   0.000000
    15  H   -0.000000  -0.000000   0.000001   0.000006   0.000018
    16  C    0.002347  -0.004747  -0.002103  -0.000047   0.000088
    17  H    0.000004  -0.000305   0.000821  -0.000004   0.000003
    18  H   -0.000053   0.003235  -0.000310   0.000002  -0.000001
    19  H   -0.000038  -0.000061   0.000029   0.000026   0.000009
    20  C   -0.001343  -0.004747   0.002406  -0.001710   0.000105
    21  H   -0.000305   0.003598  -0.000034   0.000027  -0.000003
    22  H    0.000731  -0.000353   0.000012  -0.000077   0.000014
    23  H   -0.000003  -0.000031  -0.000041  -0.000007   0.000025
    24  C    0.372325   0.351099   0.367817   0.000115   0.000037
    25  H    0.483583  -0.026591  -0.021744   0.000007   0.000003
    26  H   -0.026591   0.533499  -0.026304  -0.000001  -0.000001
    27  H   -0.021744  -0.026304   0.494493   0.000000   0.000002
    28  H    0.000007  -0.000001   0.000000   0.631231   0.272350
    29  H    0.000003  -0.000001   0.000002   0.272350   0.630112
 Mulliken charges:
               1
     1  Pt  -0.630537
     2  P    0.480301
     3  P    0.480900
     4  C   -0.675616
     5  H    0.217816
     6  H    0.184426
     7  H    0.211263
     8  C   -0.677966
     9  H    0.211809
    10  H    0.178397
    11  H    0.211927
    12  C   -0.674922
    13  H    0.214181
    14  H    0.184433
    15  H    0.218777
    16  C   -0.676693
    17  H    0.216428
    18  H    0.185352
    19  H    0.218449
    20  C   -0.677927
    21  H    0.179574
    22  H    0.213904
    23  H    0.211893
    24  C   -0.674335
    25  H    0.216481
    26  H    0.183479
    27  H    0.207724
    28  H    0.029198
    29  H    0.031284
 Sum of Mulliken charges =  -0.00000
 Mulliken charges with hydrogens summed into heavy atoms:
               1
     1  Pt  -0.570055
     2  P    0.480301
     3  P    0.480900
     4  C   -0.062111
     8  C   -0.075833
    12  C   -0.057530
    16  C   -0.056464
    20  C   -0.072557
    24  C   -0.066651
 APT charges:
               1
     1  Pt  -0.408473
     2  P   -0.016841
     3  P   -0.023164
     4  C   -1.335022
     5  H    0.418148
     6  H    0.679844
     7  H    0.299061
     8  C   -1.455703
     9  H    0.432937
    10  H    0.651224
    11  H    0.426123
    12  C   -1.344363
    13  H    0.294674
    14  H    0.677575
    15  H    0.433537
    16  C   -1.368482
    17  H    0.303936
    18  H    0.676598
    19  H    0.449997
    20  C   -1.447049
    21  H    0.654848
    22  H    0.404726
    23  H    0.445923
    24  C   -1.317394
    25  H    0.387495
    26  H    0.681576
    27  H    0.311671
    28  H    0.042677
    29  H    0.043921
 Sum of APT charges =  -0.00000
 APT charges with hydrogens summed into heavy atoms:
               1
     1  Pt  -0.321875
     2  P   -0.016841
     3  P   -0.023164
     4  C    0.062032
     8  C    0.054582
    12  C    0.061423
    16  C    0.062048
    20  C    0.058449
    24  C    0.063347
 Electronic spatial extent (au):  <R**2>=           2998.5050
 Charge=             -0.0000 electrons
 Dipole moment (field-independent basis, Debye):
    X=              0.1326    Y=              1.3039    Z=             -2.4844  Tot=              2.8089
 Quadrupole moment (field-independent basis, Debye-Ang):
   XX=            -80.6425   YY=            -92.1594   ZZ=            -91.6889
   XY=              0.0004   XZ=              0.7869   YZ=             -0.2702
 Traceless Quadrupole moment (field-independent basis, Debye-Ang):
   XX=              7.5211   YY=             -3.9958   ZZ=             -3.5253
   XY=              0.0004   XZ=              0.7869   YZ=             -0.2702
 Octapole moment (field-independent basis, Debye-Ang**2):
  XXX=             -6.1791  YYY=            -47.9838  ZZZ=             93.5432  XYY=             -1.1710
  XXY=            -11.2245  XXZ=             23.4624  XZZ=             -4.6145  YZZ=            -15.3776
  YYZ=             30.4977  XYZ=              0.1564
 Hexadecapole moment (field-independent basis, Debye-Ang**3):
 XXXX=          -2676.7437 YYYY=           -605.1731 ZZZZ=           -802.9807 XXXY=            -19.8855
 XXXZ=            -83.7362 YYYX=            -15.9884 YYYZ=             64.6471 ZZZX=            -79.7916
 ZZZY=             56.2983 XXYY=           -552.2549 XXZZ=           -577.3703 YYZZ=           -230.2589
 XXYZ=             17.4709 YYXZ=            -23.9155 ZZXY=             -4.2031
 N-N= 8.386480395434D+02 E-N=-4.106095273209D+03  KE= 9.608236437564D+02
  Exact polarizability:   0.000   0.000   0.000   0.000   0.000   0.000
 Approx polarizability: 199.278   0.979 169.830   1.916  -4.784 177.432
 No NMR shielding tensors so no spin-rotation constants.
 Leave Link  601 at Thu Nov  7 00:50:45 2019, MaxMem=   140000000 cpu:               3.0 elap:               0.2
 (Enter /usr/g16/l701.exe)
 ... and contract with generalized density number  0.
 Compute integral second derivatives.
   1 Symmetry operations used in ECPInt.
 ECPInt:  NShTT=    3916 NPrTT=   20546 LenC2=    3772 LenP2D=   13430.
 LDataN:  DoStor=T MaxTD1= 9 Len=  602
 Number of processors reduced to  17 by ecpmxn.
 D2PCM: PCM CHGder 2nd derivatives, FixD1E=F FixD2E=F DoIter=F DoCFld=F I1PDM=0
 GePol: Maximum number of non-zero 2nd derivatives   =     236
 Leave Link  701 at Thu Nov  7 00:51:03 2019, MaxMem=   140000000 cpu:             360.0 elap:              18.5
 (Enter /usr/g16/l702.exe)
 L702 exits ... SP integral derivatives will be done elsewhere.
 Leave Link  702 at Thu Nov  7 00:51:04 2019, MaxMem=   140000000 cpu:               0.4 elap:               0.0
 (Enter /usr/g16/l703.exe)
 Integral derivatives from FoFJK, PRISM(SPDF).
 Compute integral second derivatives, UseDBF=F ICtDFT=           0.
 Calling FoFJK, ICntrl=    100147 FMM=F ISym2X=0 I1Cent= 0 IOpClX= 0 NMat=1 NMatS=1 NMatT=0.
 FoFJK:  IHMeth= 1 ICntrl=  100147 DoSepK=F KAlg= 0 I1Cent=           0 FoldK=F
 IRaf=         0 NMat=       1 IRICut=       1 DoRegI=T DoRafI=F ISym2E= 0 IDoP0=0 IntGTp=1.
 FoFCou: FMM=F IPFlag=           0 FMFlag=      100000 FMFlg1=         800
         NFxFlg=           0 DoJE=F BraDBF=F KetDBF=F FulRan=T
         wScrn=  0.000000 ICntrl=    100147 IOpCl=  0 I1Cent=           0 NGrid=           0
         NMat0=    1 NMatS0=      1 NMatT0=    0 NMatD0=    1 NMtDS0=    0 NMtDT0=    0
 Symmetry not used in FoFCou.
 Defaulting to unpruned grid for atomic number  78.
 Defaulting to unpruned grid for atomic number  78.
 Defaulting to unpruned grid for atomic number  78.
 Defaulting to unpruned grid for atomic number  78.
 Defaulting to unpruned grid for atomic number  78.
 Defaulting to unpruned grid for atomic number  78.
 Defaulting to unpruned grid for atomic number  78.
 Defaulting to unpruned grid for atomic number  78.
 Defaulting to unpruned grid for atomic number  78.
 Defaulting to unpruned grid for atomic number  78.
 Defaulting to unpruned grid for atomic number  78.
 Defaulting to unpruned grid for atomic number  78.
 Defaulting to unpruned grid for atomic number  78.
 Defaulting to unpruned grid for atomic number  78.
 Defaulting to unpruned grid for atomic number  78.
 Defaulting to unpruned grid for atomic number  78.
 Defaulting to unpruned grid for atomic number  78.
 Defaulting to unpruned grid for atomic number  78.
 Defaulting to unpruned grid for atomic number  78.
 Defaulting to unpruned grid for atomic number  78.
 Leave Link  703 at Thu Nov  7 00:52:29 2019, MaxMem=   140000000 cpu:            1703.3 elap:              85.3
 (Enter /usr/g16/l716.exe)
 Dipole        = 5.21555112D-02 5.12992392D-01-9.77433561D-01
 Polarizability= 0.00000000D+00 0.00000000D+00 0.00000000D+00
                 0.00000000D+00 0.00000000D+00 0.00000000D+00
 -------------------------------------------------------------------
 Center     Atomic                   Forces (Hartrees/Bohr)
 Number     Number              X              Y              Z
 -------------------------------------------------------------------
      1       78           0.000027397    0.000054545   -0.000111170
      2       15           0.000014127   -0.000018733    0.000004830
      3       15          -0.000022674    0.000001323    0.000035962
      4        6           0.000010073   -0.000009959   -0.000004489
      5        1           0.000001175   -0.000000514   -0.000000601
      6        1           0.000000845   -0.000001194   -0.000000603
      7        1           0.000000805   -0.000000879   -0.000000320
      8        6           0.000005538   -0.000007700    0.000001663
      9        1           0.000000306   -0.000000551    0.000000401
     10        1           0.000000622   -0.000000995    0.000000066
     11        1           0.000000710   -0.000000387   -0.000000027
     12        6           0.000003430   -0.000012632    0.000004587
     13        1           0.000000298   -0.000001139    0.000000330
     14        1           0.000000381   -0.000001289    0.000000204
     15        1           0.000000171   -0.000001017    0.000000609
     16        6          -0.000007312    0.000000524    0.000016198
     17        1          -0.000000802    0.000000001    0.000000819
     18        1          -0.000000997    0.000000062    0.000001848
     19        1          -0.000000019    0.000000178    0.000001445
     20        6          -0.000007623    0.000001421    0.000023178
     21        1          -0.000001095    0.000000095    0.000002375
     22        1          -0.000000813    0.000000113    0.000001838
     23        1          -0.000000105    0.000000113    0.000002050
     24        6          -0.000019601    0.000000354    0.000013513
     25        1          -0.000001876    0.000000030    0.000000954
     26        1          -0.000001915    0.000000144    0.000001558
     27        1          -0.000001751   -0.000000058    0.000000746
     28        1           0.000002923   -0.000000850    0.000001423
     29        1          -0.000002220   -0.000001011    0.000000614
 -------------------------------------------------------------------
 Cartesian Forces:  Max     0.000111170 RMS     0.000015359
 Leave Link  716 at Thu Nov  7 00:52:29 2019, MaxMem=   140000000 cpu:               0.4 elap:               0.0
 (Enter /usr/g16/l123.exe)
 IRC-IRC-IRC-IRC-IRC-IRC-IRC-IRC-IRC-IRC-IRC-IRC-IRC-IRC-IRC-IRC-IRC-IRC
          ******** Start new reaction path calculation ********
 Current Structure is TS -> form Hessian eigenvectors.
                            Diagonalizing Hessian.
 WARNING: TS HAS MORE THAN 1 IMAGINARY FREQUENCY!
 Supplied step size of   0.1000 bohr.
    Integration on MW PES will use step size of   0.2456 sqrt(amu)*bohr.
 Point Number:   0          Path Number:   1
 Calculating another point on the path.
 Point Number  1 in FORWARD path direction.
 Using LQA Reaction Path Following.
 IRC-IRC-IRC-IRC-IRC-IRC-IRC-IRC-IRC-IRC-IRC-IRC-IRC-IRC-IRC-IRC-IRC-IRC
 Leave Link  123 at Thu Nov  7 00:52:29 2019, MaxMem=   140000000 cpu:               0.5 elap:               0.0
 (Enter /usr/g16/l202.exe)
                          Input orientation:                          
 ---------------------------------------------------------------------
 Center     Atomic      Atomic             Coordinates (Angstroms)
 Number     Number       Type             X           Y           Z
 ---------------------------------------------------------------------
      1         78           0       -0.039863   -0.265495    0.520980
      2         15           0        2.010502    0.246289   -0.274481
      3         15           0       -1.938553    0.198092   -0.610032
      4          6           0        2.217915    1.999577   -0.795073
      5          1           0        2.078631    2.655129    0.069974
      6          1           0        3.208844    2.180066   -1.227132
      7          1           0        1.449690    2.247350   -1.534105
      8          6           0        3.562530    0.006766    0.693828
      9          1           0        3.652698   -1.048084    0.971517
     10          1           0        4.453151    0.308501    0.130306
     11          1           0        3.505295    0.593839    1.615870
     12          6           0        2.447608   -0.638959   -1.827234
     13          1           0        1.667889   -0.460741   -2.573869
     14          1           0        3.414225   -0.307174   -2.223128
     15          1           0        2.489455   -1.714910   -1.632741
     16          6           0       -2.522938    1.934953   -0.444625
     17          1           0       -1.714592    2.615576   -0.728554
     18          1           0       -3.397491    2.126808   -1.076563
     19          1           0       -2.782543    2.134572    0.599250
     20          6           0       -3.510687   -0.721054   -0.320210
     21          1           0       -4.320436   -0.367873   -0.969233
     22          1           0       -3.343923   -1.787209   -0.503500
     23          1           0       -3.808089   -0.601570    0.726212
     24          6           0       -1.807310    0.048999   -2.440504
     25          1           0       -1.520062   -0.973977   -2.702689
     26          1           0       -2.751260    0.296796   -2.939529
     27          1           0       -1.023552    0.724438   -2.797515
     28          1           0       -0.593743   -1.130506    2.119356
     29          1           0        0.226702   -1.106355    2.203400
 ---------------------------------------------------------------------
                    Distance matrix (angstroms):
                    1          2          3          4          5
     1  Pt   0.000000
     2  P    2.258025   0.000000
     3  P    2.258125   3.963579   0.000000
     4  C    3.458339   1.840667   4.533852   0.000000
     5  H    3.636133   2.434297   4.757857   1.094283   0.000000
[...]
    22  H    1.787235   0.000000
    23  H    1.788388   1.768822   0.000000
    24  C    2.934263   3.128271   3.806040   0.000000
    25  H    3.293137   2.994148   4.133199   1.094423   0.000000
    26  H    2.621993   3.350565   3.932697   1.095373   1.782924
    27  H    3.935893   4.156363   4.689271   1.094757   1.775421
    28  H    4.061295   3.097612   2.670458   4.369322   4.518504
    29  H    5.841459   4.771581   4.683584   5.208746   5.239564
                   26         27         28         29
    26  H    0.000000
    27  H    1.781201   0.000000
    28  H    5.083739   4.885286   0.000000
    29  H    6.162942   5.368478   2.072793   0.000000
 Symmetry turned off by external request.
 Stoichiometry    C6H20P2Pt
 Framework group  C1[X(C6H20P2Pt)]
 Deg. of freedom    81
 Full point group                 C1      NOp   1
 Rotational constants (GHZ):           1.0464836           0.4990509           0.4154874
 Leave Link  202 at Thu Nov  7 01:53:24 2019, MaxMem=   140000000 cpu:               0.2 elap:               0.0
 (Enter /usr/g16/l601.exe)
 Copying SCF densities to generalized density rwf, IOpCl= 0 IROHF=0.

 **********************************************************************

            Population analysis using the SCF density.

 **********************************************************************

 Alpha  occ. eigenvalues --  -78.05199 -78.05193 -10.53738 -10.53681 -10.53580
 Alpha  occ. eigenvalues --  -10.53462 -10.52998 -10.52958  -6.86812  -6.86802
 Alpha  occ. eigenvalues --   -4.98179  -4.98168  -4.98162  -4.98153  -4.97964
 Alpha  occ. eigenvalues --   -4.97955  -4.05208  -2.27059  -2.26632  -2.23720
 Alpha  occ. eigenvalues --   -0.86452  -0.86203  -0.78453  -0.78343  -0.77999
 Alpha  occ. eigenvalues --   -0.77911  -0.62594  -0.61696  -0.51927  -0.50812
 Alpha  occ. eigenvalues --   -0.49932  -0.49362  -0.49327  -0.49262  -0.47042
 Alpha  occ. eigenvalues --   -0.46766  -0.46641  -0.46458  -0.44926  -0.44906
 Alpha  occ. eigenvalues --   -0.43331  -0.42716  -0.39797  -0.39246  -0.39203
 Alpha  occ. eigenvalues --   -0.38578  -0.34186  -0.30965  -0.30448  -0.29114
 Alpha  occ. eigenvalues --   -0.27803  -0.26249
 Alpha virt. eigenvalues --    0.00958   0.01162   0.04568   0.05704   0.08771
 Alpha virt. eigenvalues --    0.09619   0.10401   0.12097   0.12317   0.12687
 Alpha virt. eigenvalues --    0.12780   0.14178   0.14521   0.15756   0.16060
 Alpha virt. eigenvalues --    0.16388   0.16992   0.18525   0.20237   0.20541
 Alpha virt. eigenvalues --    0.21107   0.22048   0.22493   0.23163   0.23617
 Alpha virt. eigenvalues --    0.23937   0.24178   0.24906   0.25710   0.25789
 Alpha virt. eigenvalues --    0.26156   0.27736   0.28675   0.29325   0.30871
 Alpha virt. eigenvalues --    0.31083   0.33492   0.37706   0.39359   0.42018
 Alpha virt. eigenvalues --    0.45632   0.45835   0.47261   0.48713   0.49339
 Alpha virt. eigenvalues --    0.51604   0.53722   0.54470   0.57984   0.61105
 Alpha virt. eigenvalues --    0.64645   0.65126   0.68143   0.68238   0.69273
 Alpha virt. eigenvalues --    0.70563   0.71923   0.72142   0.72558   0.73749
 Alpha virt. eigenvalues --    0.75108   0.77299   0.78763   0.79405   0.80333
 Alpha virt. eigenvalues --    0.81411   0.84147   0.86105   0.86393   0.87126
 Alpha virt. eigenvalues --    0.87563   0.88573   0.89748   0.90811   0.92850
 Alpha virt. eigenvalues --    0.95469   0.95718   0.96721   0.97565   0.97879
 Alpha virt. eigenvalues --    0.98482   0.98610   0.98828   0.99717   1.00373
 Alpha virt. eigenvalues --    1.01303   1.01584   1.01991   1.03226   1.03665
 Alpha virt. eigenvalues --    1.05324   1.06292   1.10743   1.11027   1.12711
 Alpha virt. eigenvalues --    1.13763   1.14805   1.15564   1.20152   1.37120
 Alpha virt. eigenvalues --    1.38403   1.39803   1.40816   1.41818   1.42028
 Alpha virt. eigenvalues --    1.45423   1.52044   1.55934   1.62405   1.70416
 Alpha virt. eigenvalues --    1.70674   1.75119   1.75333   1.75820   1.76227
 Alpha virt. eigenvalues --    1.84407   1.85472   1.86612   1.87652   1.95873
 Alpha virt. eigenvalues --    1.97552   2.14432   2.14619   2.25703   2.25954
 Alpha virt. eigenvalues --    2.26325   2.27022   2.28810   2.30039   2.31110
 Alpha virt. eigenvalues --    2.31273   2.31796   2.31987   2.32021   2.32350
 Alpha virt. eigenvalues --    2.33662   2.34253   2.34695   2.35328   2.62476
 Alpha virt. eigenvalues --   46.16110  46.23589  46.26827 115.14286
          Condensed to atoms (all electrons):
               1          2          3          4          5          6
     1  Pt  17.965069   0.159631   0.164366  -0.010948   0.003595   0.006124
     2  P    0.159631  13.477335   0.005738   0.326529  -0.026859  -0.019037
     3  P    0.164366   0.005738  13.478451  -0.001341  -0.000277   0.000042
     4  C   -0.010948   0.326529  -0.001341   5.370309   0.371004   0.356765
     5  H    0.003595  -0.026859  -0.000277   0.371004   0.469826  -0.024780
     6  H    0.006124  -0.019037   0.000042   0.356765  -0.024780   0.514050
     7  H    0.000785  -0.024745   0.000326   0.366693  -0.020945  -0.025328
     8  C   -0.019821   0.346014   0.000522  -0.046823  -0.001525  -0.004376
     9  H    0.003438  -0.025498   0.000015   0.002233   0.000000  -0.000021
    10  H    0.006640  -0.019475  -0.000019  -0.004292  -0.000325   0.002782
    11  H    0.003352  -0.025863   0.000024  -0.001646   0.000790  -0.000277
    12  C   -0.008317   0.325632  -0.002111  -0.041703   0.002254  -0.004506
    13  H    0.002564  -0.025204  -0.000789  -0.001522   0.000002  -0.000308
    14  H    0.005595  -0.018553   0.000057  -0.004539  -0.000051   0.002817
    15  H    0.003151  -0.026537  -0.000033   0.002243  -0.000035  -0.000048
    16  C   -0.011178  -0.000713   0.330504  -0.000029  -0.000004   0.000001
    17  H    0.003053  -0.000434  -0.025429   0.000169  -0.000032  -0.000004
    18  H    0.006253   0.000019  -0.019756  -0.000001  -0.000000   0.000000
    19  H    0.002774   0.000048  -0.024990  -0.000003   0.000002  -0.000000
    20  C   -0.021101   0.000544   0.343043  -0.000000  -0.000000   0.000000
    21  H    0.006461  -0.000018  -0.019675   0.000000   0.000000  -0.000000
    22  H    0.003226   0.000047  -0.026746   0.000000   0.000000   0.000000
    23  H    0.003455  -0.000002  -0.023772   0.000000   0.000000  -0.000000
    24  C   -0.010225  -0.002271   0.320837  -0.000122   0.000009  -0.000003
    25  H    0.003885  -0.000720  -0.028850   0.000011   0.000000  -0.000000
    26  H    0.005614   0.000066  -0.017742  -0.000002  -0.000000   0.000000
    27  H   -0.000452   0.000493  -0.024515  -0.000004  -0.000009  -0.000011
    28  H    0.337506  -0.020692   0.008566   0.000070   0.000004  -0.000001
    29  H    0.341362   0.004068  -0.020633   0.000278   0.000044  -0.000002
               7          8          9         10         11         12
     1  Pt   0.000785  -0.019821   0.003438   0.006640   0.003352  -0.008317
     2  P   -0.024745   0.346014  -0.025498  -0.019475  -0.025863   0.325632
     3  P    0.000326   0.000522   0.000015  -0.000019   0.000024  -0.002111
     4  C    0.366693  -0.046823   0.002233  -0.004292  -0.001646  -0.041703
     5  H   -0.020945  -0.001525   0.000000  -0.000325   0.000790   0.002254
     6  H   -0.025328  -0.004376  -0.000021   0.002782  -0.000277  -0.004506
     7  H    0.496766   0.002359  -0.000038  -0.000045   0.000010  -0.001562
     8  C    0.002359   5.365764   0.370980   0.350156   0.371195  -0.046287
     9  H   -0.000038   0.370980   0.466969  -0.024237  -0.020239  -0.001715
    10  H   -0.000045   0.350156  -0.024237   0.530596  -0.024468  -0.004267
    11  H    0.000010   0.371195  -0.020239  -0.024468   0.467583   0.002217
    12  C   -0.001562  -0.046287  -0.001715  -0.004267   0.002217   5.367485
    13  H    0.000865   0.002332   0.000012  -0.000048  -0.000037   0.367061
    14  H   -0.000317  -0.004265  -0.000268   0.002677  -0.000027   0.355673
    15  H    0.000009  -0.001534   0.000794  -0.000314  -0.000000   0.370978
    16  C   -0.000090  -0.000001  -0.000000   0.000000  -0.000000   0.000013
    17  H    0.000096  -0.000000   0.000000  -0.000000   0.000000   0.000001
    18  H   -0.000005   0.000000   0.000000  -0.000000   0.000000  -0.000000
    19  H   -0.000002  -0.000000   0.000000   0.000000   0.000000   0.000000
    20  C    0.000001  -0.000000  -0.000000   0.000000  -0.000000  -0.000003
    21  H   -0.000000   0.000000   0.000000  -0.000000   0.000000   0.000000
    22  H    0.000000  -0.000000   0.000000   0.000000   0.000000  -0.000000
    23  H   -0.000000  -0.000000   0.000000   0.000000   0.000000   0.000000
    24  C   -0.000022  -0.000001   0.000000   0.000000   0.000000  -0.000079
    25  H   -0.000015  -0.000000   0.000000  -0.000000   0.000000   0.000003
    26  H   -0.000009   0.000000  -0.000000  -0.000000   0.000000   0.000004
    27  H    0.000482   0.000001  -0.000000  -0.000000   0.000000  -0.000258
    28  H    0.000002   0.000085   0.000002  -0.000001   0.000003   0.000076
    29  H   -0.000004  -0.007177  -0.000803   0.000292  -0.000878   0.000222
              13         14         15         16         17         18
     1  Pt   0.002564   0.005595   0.003151  -0.011178   0.003053   0.006253
     2  P   -0.025204  -0.018553  -0.026537  -0.000713  -0.000434   0.000019
     3  P   -0.000789   0.000057  -0.000033   0.330504  -0.025429  -0.019756
     4  C   -0.001522  -0.004539   0.002243  -0.000029   0.000169  -0.000001
     5  H    0.000002  -0.000051  -0.000035  -0.000004  -0.000032  -0.000000
     6  H   -0.000308   0.002817  -0.000048   0.000001  -0.000004   0.000000
     7  H    0.000865  -0.000317   0.000009  -0.000090   0.000096  -0.000005
     8  C    0.002332  -0.004265  -0.001534  -0.000001  -0.000000   0.000000
     9  H    0.000012  -0.000268   0.000794  -0.000000   0.000000   0.000000
    10  H   -0.000048   0.002677  -0.000314   0.000000  -0.000000  -0.000000
    11  H   -0.000037  -0.000027  -0.000000  -0.000000   0.000000   0.000000
    12  C    0.367061   0.355673   0.370978   0.000013   0.000001  -0.000000
    13  H    0.492398  -0.025292  -0.020773   0.000001  -0.000004  -0.000000
    14  H   -0.025292   0.516317  -0.024425  -0.000000  -0.000000   0.000000
    15  H   -0.020773  -0.024425   0.468371  -0.000000   0.000000  -0.000000
    16  C    0.000001  -0.000000  -0.000000   5.363968   0.367549   0.355700
    17  H   -0.000004  -0.000000   0.000000   0.367549   0.485476  -0.025456
    18  H   -0.000000   0.000000  -0.000000   0.355700  -0.025456   0.517730
    19  H    0.000000  -0.000000   0.000000   0.370302  -0.020123  -0.024122
    20  C    0.000001   0.000000   0.000000  -0.043668   0.002272  -0.004249
    21  H   -0.000000  -0.000000   0.000000  -0.004182  -0.000057   0.002581
    22  H   -0.000000   0.000000   0.000000   0.002219  -0.000035  -0.000037
    23  H   -0.000000  -0.000000   0.000000  -0.002124   0.000023  -0.000294
    24  C    0.000589  -0.000004  -0.000003  -0.042554  -0.001377  -0.004459
    25  H    0.000044  -0.000002  -0.000003   0.002267  -0.000002  -0.000054
    26  H   -0.000011   0.000000  -0.000000  -0.004386  -0.000319   0.002733
    27  H    0.000421  -0.000009  -0.000003  -0.001753   0.000972  -0.000304
    28  H    0.000002  -0.000001   0.000004  -0.000622  -0.000003   0.000011
    29  H   -0.000006  -0.000000   0.000053   0.000104   0.000003  -0.000001
              19         20         21         22         23         24
     1  Pt   0.002774  -0.021101   0.006461   0.003226   0.003455  -0.010225
     2  P    0.000048   0.000544  -0.000018   0.000047  -0.000002  -0.002271
     3  P   -0.024990   0.343043  -0.019675  -0.026746  -0.023772   0.320837
     4  C   -0.000003  -0.000000   0.000000   0.000000   0.000000  -0.000122
     5  H    0.000002  -0.000000   0.000000   0.000000   0.000000   0.000009
     6  H   -0.000000   0.000000  -0.000000   0.000000  -0.000000  -0.000003
     7  H   -0.000002   0.000001  -0.000000   0.000000  -0.000000  -0.000022
     8  C   -0.000000  -0.000000   0.000000  -0.000000  -0.000000  -0.000001
     9  H    0.000000  -0.000000   0.000000   0.000000   0.000000   0.000000
    10  H    0.000000   0.000000  -0.000000   0.000000   0.000000   0.000000
    11  H    0.000000  -0.000000   0.000000   0.000000   0.000000   0.000000
    12  C    0.000000  -0.000003   0.000000  -0.000000   0.000000  -0.000079
    13  H    0.000000   0.000001  -0.000000  -0.000000  -0.000000   0.000589
    14  H   -0.000000   0.000000  -0.000000   0.000000  -0.000000  -0.000004
    15  H    0.000000   0.000000   0.000000   0.000000   0.000000  -0.000003
    16  C    0.370302  -0.043668  -0.004182   0.002219  -0.002124  -0.042554
    17  H   -0.020123   0.002272  -0.000057  -0.000035   0.000023  -0.001377
    18  H   -0.024122  -0.004249   0.002581  -0.000037  -0.000294  -0.004459
    19  H    0.462289  -0.001569  -0.000276  -0.000001   0.000792   0.002214
    20  C   -0.001569   5.367511   0.351430   0.371386   0.369805  -0.047479
    21  H   -0.000276   0.351430   0.528155  -0.024796  -0.023687  -0.004564
    22  H   -0.000001   0.371386  -0.024796   0.469962  -0.020215  -0.001361
    23  H    0.000792   0.369805  -0.023687  -0.020215   0.464459   0.002240
    24  C    0.002214  -0.047479  -0.004564  -0.001361   0.002240   5.377908
    25  H   -0.000034  -0.001397  -0.000347   0.000705   0.000000   0.371977
    26  H   -0.000042  -0.004572   0.003020  -0.000257  -0.000011   0.356366
    27  H    0.000011   0.002377  -0.000032   0.000001  -0.000040   0.366810
    28  H    0.000054  -0.006733   0.000234  -0.000580  -0.000333   0.000364
    29  H    0.000007   0.000095  -0.000002   0.000005  -0.000001   0.000050
              25         26         27         28         29
     1  Pt   0.003885   0.005614  -0.000452   0.337506   0.341362
     2  P   -0.000720   0.000066   0.000493  -0.020692   0.004068
     3  P   -0.028850  -0.017742  -0.024515   0.008566  -0.020633
     4  C    0.000011  -0.000002  -0.000004   0.000070   0.000278
     5  H    0.000000  -0.000000  -0.000009   0.000004   0.000044
     6  H   -0.000000   0.000000  -0.000011  -0.000001  -0.000002
     7  H   -0.000015  -0.000009   0.000482   0.000002  -0.000004
     8  C   -0.000000   0.000000   0.000001   0.000085  -0.007177
     9  H    0.000000  -0.000000  -0.000000   0.000002  -0.000803
    10  H   -0.000000  -0.000000  -0.000000  -0.000001   0.000292
    11  H    0.000000   0.000000   0.000000   0.000003  -0.000878
    12  C    0.000003   0.000004  -0.000258   0.000076   0.000222
    13  H    0.000044  -0.000011   0.000421   0.000002  -0.000006
    14  H   -0.000002   0.000000  -0.000009  -0.000001  -0.000000
    15  H   -0.000003  -0.000000  -0.000003   0.000004   0.000053
    16  C    0.002267  -0.004386  -0.001753  -0.000622   0.000104
    17  H   -0.000002  -0.000319   0.000972  -0.000003   0.000003
    18  H   -0.000054   0.002733  -0.000304   0.000011  -0.000001
    19  H   -0.000034  -0.000042   0.000011   0.000054   0.000007
    20  C   -0.001397  -0.004572   0.002377  -0.006733   0.000095
    21  H   -0.000347   0.003020  -0.000032   0.000234  -0.000002
    22  H    0.000705  -0.000257   0.000001  -0.000580   0.000005
    23  H    0.000000  -0.000011  -0.000040  -0.000333  -0.000001
    24  C    0.371977   0.356366   0.366810   0.000364   0.000050
    25  H    0.477776  -0.024974  -0.021357   0.000017   0.000002
    26  H   -0.024974   0.513528  -0.025453  -0.000003  -0.000001
    27  H   -0.021357  -0.025453   0.500683  -0.000000   0.000001
    28  H    0.000017  -0.000003  -0.000000   0.627068   0.023580
    29  H    0.000002  -0.000001   0.000001   0.023580   0.624897
 Mulliken charges:
               1
     1  Pt  -0.955856
     2  P    0.590459
     3  P    0.584188
     4  C   -0.683326
     5  H    0.227313
     6  H    0.196120
     7  H    0.204736
     8  C   -0.677596
     9  H    0.228377
    10  H    0.184349
    11  H    0.228259
    12  C   -0.680810
    13  H    0.207703
    14  H    0.194619
    15  H    0.228107
    16  C   -0.681325
    17  H    0.213661
    18  H    0.193710
    19  H    0.232670
    20  C   -0.677693
    21  H    0.185756
    22  H    0.226477
    23  H    0.229705
    24  C   -0.684841
    25  H    0.221067
    26  H    0.196451
    27  H    0.201949
    28  H    0.031324
    29  H    0.034444
 Sum of Mulliken charges =  -0.00000
 Mulliken charges with hydrogens summed into heavy atoms:
               1
     1  Pt  -0.890087
     2  P    0.590459
     3  P    0.584188
     4  C   -0.055157
     8  C   -0.036610
    12  C   -0.050381
    16  C   -0.041284
    20  C   -0.035755
    24  C   -0.065374
 APT charges:
               1
     1  Pt  -0.976195
     2  P    0.128902
     3  P    0.126606
     4  C   -1.366370
     5  H    0.408712
     6  H    0.702615
     7  H    0.330657
     8  C   -1.412404
     9  H    0.428268
    10  H    0.672689
    11  H    0.412716
    12  C   -1.371238
    13  H    0.326476
    14  H    0.698411
    15  H    0.423934
    16  C   -1.380944
    17  H    0.338548
    18  H    0.698508
    19  H    0.422785
    20  C   -1.414827
    21  H    0.675977
    22  H    0.396277
    23  H    0.440726
    24  C   -1.366867
    25  H    0.396743
    26  H    0.703734
    27  H    0.339282
    28  H    0.104967
    29  H    0.111315
 Sum of APT charges =  -0.00000
 APT charges with hydrogens summed into heavy atoms:
               1
     1  Pt  -0.759914
     2  P    0.128902
     3  P    0.126606
     4  C    0.075613
     8  C    0.101268
    12  C    0.077583
    16  C    0.078897
    20  C    0.098154
    24  C    0.072891
 Electronic spatial extent (au):  <R**2>=           2916.0000
 Charge=             -0.0000 electrons
 Dipole moment (field-independent basis, Debye):
    X=              0.4734    Y=              2.9706    Z=             -6.1308  Tot=              6.8290
 Quadrupole moment (field-independent basis, Debye-Ang):
   XX=            -76.2587   YY=            -92.0402   ZZ=            -95.3957
   XY=             -0.1162   XZ=              1.5129   YZ=              2.0807
 Traceless Quadrupole moment (field-independent basis, Debye-Ang):
   XX=             11.6395   YY=             -4.1420   ZZ=             -7.4975
   XY=             -0.1162   XZ=              1.5129   YZ=              2.0807
 Octapole moment (field-independent basis, Debye-Ang**2):
  XXX=             -5.6899  YYY=            -50.1478  ZZZ=             93.5209  XYY=             -1.2777
  XXY=            -11.8740  XXZ=             24.4449  XZZ=             -4.2120  YZZ=            -12.4534
  YYZ=             31.6003  XYZ=             -0.1290
 Hexadecapole moment (field-independent basis, Debye-Ang**3):
 XXXX=          -2394.7235 YYYY=           -614.2960 ZZZZ=           -908.5964 XXXY=            -13.6683
 XXXZ=            -64.4747 YYYX=            -11.8419 YYYZ=             86.1490 ZZZX=            -60.1787
 ZZZY=             84.2082 XXYY=           -509.4315 XXZZ=           -547.0306 YYZZ=           -251.2658
 XXYZ=             22.6902 YYXZ=            -19.5058 ZZXY=             -4.1437
 N-N= 8.450898497765D+02 E-N=-4.117697801305D+03  KE= 9.606897008475D+02
  Exact polarizability:   0.000   0.000   0.000   0.000   0.000   0.000
 Approx polarizability: 192.341   0.919 168.229   1.646  -5.868 178.235
 No NMR shielding tensors so no spin-rotation constants.
 Leave Link  601 at Thu Nov  7 01:53:24 2019, MaxMem=   140000000 cpu:               2.9 elap:               0.2
 (Enter /usr/g16/l9999.exe)

 This type of calculation cannot be archived.


 HAPPINESS IS NOT HAVING WHAT YOU WANT --
 HAPPINESS IS WANTING WHAT YOU HAVE!

              -- FROM MRS. SEVERN'S DESK
 Job cpu time:       0 days 22 hours 40 minutes 39.1 seconds.
 Elapsed time:       0 days  1 hours  9 minutes 58.7 seconds.
 File lengths (MBytes):  RWF=    232 Int=      0 D2E=      0 Chk=     22 Scr=      1
 Normal termination of Gaussian 16 at Thu Nov  7 01:53:24 2019.
