 Entering Gaussian System, Link 0=g16
 Input=Pt_ircb2.gjf
 Output=Pt_ircb2.log
 Initial command:
 /usr/g16/l1.exe "/scratch/wsr/gaussian/Gau-25419.inp" -scrdir="/scratch/wsr/gaussian/"
 Entering Link 1 = /usr/g16/l1.exe PID=     25420.
  
 Copyright (c) 1988,1990,1992,1993,1995,1998,2003,2009,2016,
            Gaussian, Inc.  All Rights Reserved.
  
 This is part of the Gaussian(R) 16 program.  It is based on
 the Gaussian(R) 09 system (copyright 2009, Gaussian, Inc.),
 the Gaussian(R) 03 system (copyright 2003, Gaussian, Inc.),
 the Gaussian(R) 98 system (copyright 1998, Gaussian, Inc.),
 the Gaussian(R) 94 system (copyright 1995, Gaussian, Inc.),
 the Gaussian 92(TM) system (copyright 1992, Gaussian, Inc.),
 the Gaussian 90(TM) system (copyright 1990, Gaussian, Inc.),
 the Gaussian 88(TM) system (copyright 1988, Gaussian, Inc.),
 the Gaussian 86(TM) system (copyright 1986, Carnegie Mellon
 University), and the Gaussian 82(TM) system (copyright 1983,
 Carnegie Mellon University). Gaussian is a federally registered
 trademark of Gaussian, Inc.
  
 This software contains proprietary and confidential information,
 including trade secrets, belonging to Gaussian, Inc.
  
 This software is provided under written license and may be
 used, copied, transmitted, or stored only in accord with that
 written license.
  
 The following legend is applicable only to US Government
 contracts under FAR:
  
                    RESTRICTED RIGHTS LEGEND
  
 Use, reproduction and disclosure by the US Government is
 subject to restrictions as set forth in subparagraphs (a)
 and (c) of the Commercial Computer Software - Restricted
 Rights clause in FAR 52.227-19.
  
 Gaussian, Inc.
 340 Quinnipiac St., Bldg. 40, Wallingford CT 06492
  
  
 ---------------------------------------------------------------
 Warning -- This program may not be used in any manner that
 competes with the business of Gaussian, Inc. or will provide
 assistance to any competitor of Gaussian, Inc.  The licensee
 of this program is prohibited from giving any competitor of
 Gaussian, Inc. access to this program.  By using this program,
 the user acknowledges that Gaussian, Inc. is engaged in the
 business of creating and licensing software in the field of
 computational chemistry and represents and warrants to the
 licensee that it is not a competitor of Gaussian, Inc. and that
 it will not use this program in any manner prohibited above.
 ---------------------------------------------------------------
  

 Cite this work as:
 Gaussian 16, Revision A.03,
 M. J. Frisch, G. W. Trucks, H. B. Schlegel, G. E. Scuseria, 
 M. A. Robb, J. R. Cheeseman, G. Scalmani, V. Barone, 
 G. A. Petersson, H. Nakatsuji, X. Li, M. Caricato, A. V. Marenich, 
 J. Bloino, B. G. Janesko, R. Gomperts, B. Mennucci, H. P. Hratchian, 
 J. V. Ortiz, A. F. Izmaylov, J. L. Sonnenberg, D. Williams-Young, 
 F. Ding, F. Lipparini, F. Egidi, J. Goings, B. Peng, A. Petrone, 
 T. Henderson, D. Ranasinghe, V. G. Zakrzewski, J. Gao, N. Rega, 
 G. Zheng, W. Liang, M. Hada, M. Ehara, K. Toyota, R. Fukuda, 
 J. Hasegawa, M. Ishida, T. Nakajima, Y. Honda, O. Kitao, H. Nakai, 
 T. Vreven, K. Throssell, J. A. Montgomery, Jr., J. E. Peralta, 
 F. Ogliaro, M. J. Bearpark, J. J. Heyd, E. N. Brothers, K. N. Kudin, 
 V. N. Staroverov, T. A. Keith, R. Kobayashi, J. Normand, 
 K. Raghavachari, A. P. Rendell, J. C. Burant, S. S. Iyengar, 
 J. Tomasi, M. Cossi, J. M. Millam, M. Klene, C. Adamo, R. Cammi, 
 J. W. Ochterski, R. L. Martin, K. Morokuma, O. Farkas, 
 J. B. Foresman, and D. J. Fox, Gaussian, Inc., Wallingford CT, 2016.
 
 ******************************************
 Gaussian 16:  ES64L-G16RevA.03 25-Dec-2016
                 7-Nov-2019 
 ******************************************
 %chk=Pt_ircb2.chk
 %nprocshared=24
 Will use up to   24 processors via shared memory.
 ----------------------------------------------------------------------
 #p irc=(calcfc,lqa,maxpoint=30,stepsize=15) genecp scrf=(smd,solvent=b
 enzene) m062x
 ----------------------------------------------------------------------
 1/10=4,18=10,26=3,38=1,39=15,42=30,44=3,45=2,172=1/1,23;
 2/12=2,17=6,18=5,29=1,40=1/2;
 3/5=7,11=2,16=1,17=8,25=1,30=1,70=32201,71=2,72=12,74=-55,140=1/1,2,3;
 4//1;
 5/5=2,38=5,53=12/2;
 8/6=4,10=90,11=11/1;
 11/6=1,8=1,9=11,15=111,16=1/1,2,10;
 10/6=1,13=1/2;
 6/7=2,8=2,9=2,10=2,28=1/1;
 7/10=1,18=20,25=1/1,2,3,16;
 1/10=4,18=10,26=3,39=15,42=30,44=3,45=2/23(2);
 2/29=1/2;
 99/5=20/99;
 2/29=1/2;
 3/5=7,6=1,11=2,16=1,17=8,25=1,30=1,70=32205,71=2,72=12,74=-55,82=7,140=1/1,2,3;
 4/5=5,16=3,69=1/1;
 5/5=2,38=5,53=12/2;
 8/6=4,10=90,11=11/1;
 11/6=1,8=1,9=11,15=111,16=1/1,2,10;
 10/6=1,13=1/2;
 7/10=1,18=20,25=1/1,2,3,16;
 1/18=10,26=3,39=15,42=30,44=3,45=2/23(-8);
 2/29=1/2;
 6/7=2,8=2,9=2,10=2,19=2,28=1/1;
 99/5=20,9=1/99;
 Leave Link    1 at Thu Nov  7 18:11:34 2019, MaxMem=           0 cpu:               2.1 elap:               0.1
 (Enter /usr/g16/l101.exe)
 -------------------
 Title Card Required
 -------------------
 Symbolic Z-matrix:
 Charge =  0 Multiplicity = 1
 Pt                    0.00069  -0.7063   -0.00262 
 P                     1.97587   0.39475   0.00311 
 P                    -1.97103   0.40008  -0.00803 
 C                     2.15783   1.65927   1.3283 
 H                     2.09853   1.17196   2.3063 
 H                     3.11116   2.19427   1.25052 
 H                     1.33355   2.37563   1.25705 
 C                     3.59943  -0.46847   0.14824 
 H                     3.70101  -1.18152  -0.67585 
 H                     4.44319   0.23105   0.12641 
 H                     3.62417  -1.0322    1.08609 
 C                     2.272     1.41029  -1.50242 
 H                     1.43671   2.10385  -1.63874 
 H                     3.20766   1.97637  -1.4307 
 H                     2.31441   0.75628  -2.37865 
 C                    -2.52118   0.98752   1.64658 
 H                    -1.73238   1.60083   2.0926 
 H                    -3.44324   1.57581   1.57825 
 H                    -2.69135   0.12693   2.30032 
 C                    -3.52214  -0.38105  -0.62676 
 H                    -4.37913   0.29973  -0.5656 
 H                    -3.38141  -0.68705  -1.66818 
 H                    -3.73059  -1.27902  -0.03701 
 C                    -1.99534   1.97398  -0.96272 
 H                    -1.74277   1.76938  -2.00777 
 H                    -2.97516   2.46327  -0.91895 
 H                    -1.23741   2.65049  -0.55549 
 H                    -0.43543  -2.51492  -0.02571 
 H                     0.40811  -2.52151  -0.00374 
 
 ITRead=  0  0  0  0  0  0  0  0  0  0  0  0  0  0  0  0  0  0  0  0
 ITRead=  0  0  0  0  0  0  0  0  0
 MicOpt= -1 -1 -1 -1 -1 -1 -1 -1 -1 -1 -1 -1 -1 -1 -1 -1 -1 -1 -1 -1
 MicOpt= -1 -1 -1 -1 -1 -1 -1 -1 -1
 NAtoms=     29 NQM=       29 NQMF=       0 NMMI=      0 NMMIF=      0
                NMic=       0 NMicF=      0.
                    Isotopes and Nuclear Properties:
 (Nuclear quadrupole moments (NQMom) in fm**2, nuclear magnetic moments (NMagM)
  in nuclear magnetons)

  Atom         1           2           3           4           5           6           7           8           9          10
 IAtWgt=         195          31          31          12           1           1           1          12           1           1
 AtmWgt= 194.9648000  30.9737634  30.9737634  12.0000000   1.0078250   1.0078250   1.0078250  12.0000000   1.0078250   1.0078250
 NucSpn=           1           1           1           0           1           1           1           0           1           1
 AtZEff=  -0.0000000  -0.0000000  -0.0000000  -0.0000000  -0.0000000  -0.0000000  -0.0000000  -0.0000000  -0.0000000  -0.0000000
 NQMom=    0.0000000   0.0000000   0.0000000   0.0000000   0.0000000   0.0000000   0.0000000   0.0000000   0.0000000   0.0000000
 NMagM=    0.6095000   1.1316000   1.1316000   0.0000000   2.7928460   2.7928460   2.7928460   0.0000000   2.7928460   2.7928460
 AtZNuc=  78.0000000  15.0000000  15.0000000   6.0000000   1.0000000   1.0000000   1.0000000   6.0000000   1.0000000   1.0000000

  Atom        11          12          13          14          15          16          17          18          19          20
 IAtWgt=           1          12           1           1           1          12           1           1           1          12
 AtmWgt=   1.0078250  12.0000000   1.0078250   1.0078250   1.0078250  12.0000000   1.0078250   1.0078250   1.0078250  12.0000000
 NucSpn=           1           0           1           1           1           0           1           1           1           0
 AtZEff=  -0.0000000  -0.0000000  -0.0000000  -0.0000000  -0.0000000  -0.0000000  -0.0000000  -0.0000000  -0.0000000  -0.0000000
 NQMom=    0.0000000   0.0000000   0.0000000   0.0000000   0.0000000   0.0000000   0.0000000   0.0000000   0.0000000   0.0000000
 NMagM=    2.7928460   0.0000000   2.7928460   2.7928460   2.7928460   0.0000000   2.7928460   2.7928460   2.7928460   0.0000000
 AtZNuc=   1.0000000   6.0000000   1.0000000   1.0000000   1.0000000   6.0000000   1.0000000   1.0000000   1.0000000   6.0000000

  Atom        21          22          23          24          25          26          27          28          29
 IAtWgt=           1           1           1          12           1           1           1           1           1
 AtmWgt=   1.0078250   1.0078250   1.0078250  12.0000000   1.0078250   1.0078250   1.0078250   1.0078250   1.0078250
 NucSpn=           1           1           1           0           1           1           1           1           1
 AtZEff=  -0.0000000  -0.0000000  -0.0000000  -0.0000000  -0.0000000  -0.0000000  -0.0000000  -0.0000000  -0.0000000
 NQMom=    0.0000000   0.0000000   0.0000000   0.0000000   0.0000000   0.0000000   0.0000000   0.0000000   0.0000000
 NMagM=    2.7928460   2.7928460   2.7928460   0.0000000   2.7928460   2.7928460   2.7928460   2.7928460   2.7928460
 AtZNuc=   1.0000000   1.0000000   1.0000000   6.0000000   1.0000000   1.0000000   1.0000000   1.0000000   1.0000000
 Leave Link  101 at Thu Nov  7 18:11:34 2019, MaxMem=   280000000 cpu:               3.4 elap:               0.2
 (Enter /usr/g16/l123.exe)
 IRC-IRC-IRC-IRC-IRC-IRC-IRC-IRC-IRC-IRC-IRC-IRC-IRC-IRC-IRC-IRC-IRC-IRC
 ------------------------------------------------------------------------
 INPUT DATA FOR L123
 ------------------------------------------------------------------------
 GENERAL PARAMETERS:
 Follow reaction path in both directions.
 Maximum points per path      =  30
 Step size                    =   0.150 bohr
 Integration scheme           = LQA                                 
 Initial Hessian              = CalcFC
 Hessian evaluation           = All updating
 Hessian updating method      = Bofill                              
 ------------------------------------------------------------------------
 IRC-IRC-IRC-IRC-IRC-IRC-IRC-IRC-IRC-IRC-IRC-IRC-IRC-IRC-IRC-IRC-IRC-IRC
 Leave Link  123 at Thu Nov  7 18:11:35 2019, MaxMem=   280000000 cpu:               1.2 elap:               0.1
 (Enter /usr/g16/l202.exe)
                          Input orientation:                          
 ---------------------------------------------------------------------
 Center     Atomic      Atomic             Coordinates (Angstroms)
 Number     Number       Type             X           Y           Z
 ---------------------------------------------------------------------
      1         78           0        0.000694   -0.706298   -0.002624
      2         15           0        1.975867    0.394747    0.003109
      3         15           0       -1.971030    0.400077   -0.008027
      4          6           0        2.157835    1.659268    1.328297
      5          1           0        2.098532    1.171961    2.306296
      6          1           0        3.111161    2.194270    1.250522
      7          1           0        1.333553    2.375627    1.257053
      8          6           0        3.599432   -0.468472    0.148237
      9          1           0        3.701007   -1.181519   -0.675853
     10          1           0        4.443185    0.231049    0.126412
     11          1           0        3.624173   -1.032204    1.086091
     12          6           0        2.272002    1.410294   -1.502423
     13          1           0        1.436708    2.103846   -1.638739
     14          1           0        3.207663    1.976372   -1.430701
     15          1           0        2.314414    0.756282   -2.378650
     16          6           0       -2.521177    0.987522    1.646582
     17          1           0       -1.732378    1.600831    2.092595
     18          1           0       -3.443242    1.575807    1.578253
     19          1           0       -2.691349    0.126929    2.300318
     20          6           0       -3.522141   -0.381048   -0.626758
     21          1           0       -4.379128    0.299725   -0.565601
     22          1           0       -3.381413   -0.687051   -1.668183
     23          1           0       -3.730587   -1.279019   -0.037012
     24          6           0       -1.995336    1.973976   -0.962718
     25          1           0       -1.742768    1.769376   -2.007774
     26          1           0       -2.975163    2.463269   -0.918946
     27          1           0       -1.237409    2.650485   -0.555486
     28          1           0       -0.435430   -2.514924   -0.025710
     29          1           0        0.408111   -2.521507   -0.003739
 ---------------------------------------------------------------------
                    Distance matrix (angstroms):
                    1          2          3          4          5
     1  Pt   0.000000
     2  P    2.261336   0.000000
     3  P    2.260927   3.946916   0.000000
     4  C    3.467061   1.840720   4.518722   0.000000
     5  H    3.641414   2.433881   4.744811   1.094288   0.000000
     6  H    4.433810   2.466417   5.534595   1.095950   1.784711
     7  H    3.586302   2.430808   4.052591   1.094389   1.770569
     8  C    3.609742   1.844498   5.639933   2.828077   3.098538
     9  H    3.790961   2.433457   5.926166   3.803691   4.123106
    10  H    4.542136   2.475815   6.417850   2.950790   3.336856
    11  H    3.797514   2.434328   5.878335   3.074546   2.945305
    12  C    3.447927   1.840016   4.610540   2.843941   3.820109
    13  H    3.554704   2.430510   4.144240   3.085608   4.107277
    14  H    4.418232   2.464685   5.597104   2.968967   3.980251
    15  H    3.624630   2.432714   4.910373   3.818554   4.708303
    16  C    3.456695   4.824499   1.839969   4.737689   4.670220
    17  H    3.565996   4.423988   2.431333   3.965012   3.860760
    18  H    4.423559   5.765650   2.462932   5.607273   5.603963
    19  H    3.639355   5.208820   2.433501   5.177593   4.902559
    20  C    3.592450   5.588084   1.843619   6.344073   6.527374
    21  H    4.529003   6.381099   2.473842   6.940252   7.139234
    22  H    3.770027   5.715239   2.434573   6.720668   7.020129
    23  H    3.775136   5.946992   2.432333   6.720946   6.743665
    24  C    3.477037   4.381465   1.840974   4.753590   5.299947
    25  H    3.631700   4.445391   2.434352   5.133829   5.807210
    26  H    4.443144   5.444416   2.468768   5.660759   6.149150
    27  H    3.620297   3.965542   2.429454   4.007347   4.637276
    28  H    1.860609   3.779070   3.294785   5.097277   5.045031
    29  H    1.860369   3.310958   3.767756   4.723847   4.672846
                    6          7          8          9         10
     6  H    0.000000
     7  H    1.786847   0.000000
     8  C    2.922950   3.801655   0.000000
     9  H    3.931258   4.689803   1.094476   0.000000
    10  H    2.625290   3.943016   1.096232   1.786003   0.000000
    11  H    3.271139   4.109681   1.094521   1.769928   1.785377
    12  C    2.982870   3.070385   2.831344   3.072909   2.959351
    13  H    3.340628   2.910347   3.806242   4.104610   3.957528
    14  H    2.691793   3.300866   2.936629   3.284122   2.645235
    15  H    3.984157   4.099110   3.088115   2.928691   3.329095
    16  C    5.773763   4.115521   6.467365   6.986703   7.168368
    17  H    4.951881   3.270837   6.040757   6.702794   6.624180
    18  H    6.591669   4.853932   7.471498   7.982740   8.130925
    19  H    6.248607   4.727037   6.675319   7.171600   7.459107
    20  C    7.359153   5.892857   7.164151   7.267533   8.024235
    21  H    7.936752   6.345562   8.047180   8.215523   8.849678
    22  H    7.679477   6.337816   7.216603   7.168674   8.080087
    23  H    7.780167   6.377817   7.377024   7.459639   8.313697
    24  C    5.569854   4.021220   6.204934   6.518264   6.758591
    25  H    5.861540   4.526631   6.180247   6.333757   6.722144
    26  H    6.467016   4.827803   7.277313   7.610179   7.817126
    27  H    4.730735   3.157640   5.798116   6.251935   6.211908
    28  H    6.031881   5.356517   4.527509   4.394402   5.600392
    29  H    5.578369   5.140813   3.797707   3.618075   4.886238
                   11         12         13         14         15
    11  H    0.000000
    12  C    3.807173   0.000000
    13  H    4.695158   1.094218   0.000000
    14  H    3.944522   1.095924   1.787683   0.000000
    15  H    4.113220   1.094214   1.770244   1.784691   0.000000
    16  C    6.492979   5.750612   5.263494   6.577773   6.295944
    17  H    6.052980   5.384749   4.921279   6.079363   6.089484
    18  H    7.549324   6.494765   5.868712   7.310868   7.034153
    19  H    6.534811   6.383002   6.038644   7.220754   6.880879
    20  C    7.377510   6.127625   5.638172   7.175933   6.199034
    21  H    8.279792   6.807975   6.183076   7.817860   6.949755
    22  H    7.535476   6.032200   5.568147   7.110987   5.918650
    23  H    7.444110   6.738762   6.380458   7.789689   6.794686
    24  C    6.694297   4.338109   3.500399   5.224003   4.696976
    25  H    6.798890   4.062351   3.218249   4.988249   4.198170
    26  H    7.732383   5.383488   4.484628   6.223046   5.746666
    27  H    6.316008   3.840668   2.936521   4.580294   4.418979
    28  H    4.462615   4.991814   5.238301   5.951291   4.878397
    29  H    3.707938   4.602087   5.012497   5.486768   4.474158
                   16         17         18         19         20
    16  C    0.000000
    17  H    1.094203   0.000000
    18  H    1.095880   1.786681   0.000000
    19  H    1.094052   1.770639   1.784928   0.000000
    20  C    2.836016   3.811296   2.949166   3.084806   0.000000
    21  H    2.969646   3.970412   2.664653   3.330458   1.096184
    22  H    3.812069   4.700763   3.957739   4.109471   1.094536
    23  H    3.071542   4.101415   3.292671   2.918873   1.094350
    24  C    2.838670   3.089227   2.951526   3.813584   2.826684
    25  H    3.817268   4.103845   3.973496   4.707132   3.114113
    26  H    2.994306   3.370118   2.691225   3.987818   2.911133
    27  H    3.043454   2.891211   3.251688   4.078957   3.796745
    28  H    4.406135   4.807154   5.324820   4.180785   3.800325
    29  H    4.859791   5.096075   5.841541   4.682899   4.518473
                   21         22         23         24         25
    21  H    0.000000
    22  H    1.784615   0.000000
    23  H    1.786741   1.770047   0.000000
    24  C    2.939946   3.082200   3.801316   0.000000
    25  H    3.345165   2.972291   4.138604   1.094438   0.000000
    26  H    2.603247   3.263573   3.918315   1.096077   1.784890
    27  H    3.923847   4.119951   4.682494   1.094512   1.772253
    28  H    4.875088   3.836359   3.519325   4.843709   4.898259
    29  H    5.585042   4.527261   4.321308   5.187058   5.201357
                   26         27         28         29
    26  H    0.000000
    27  H    1.785201   0.000000
    28  H    5.659551   5.254073   0.000000
    29  H    6.093615   5.455425   0.843853   0.000000
 Symmetry turned off by external request.
 Stoichiometry    C6H20P2Pt
 Framework group  C1[X(C6H20P2Pt)]
 Deg. of freedom    81
 Full point group                 C1      NOp   1
 Rotational constants (GHZ):           1.2017255           0.4647406           0.4103303
 Leave Link  202 at Thu Nov  7 18:11:35 2019, MaxMem=   280000000 cpu:               2.8 elap:               0.2
 (Enter /usr/g16/l301.exe)
 General basis read from cards:  (5D, 7F)
 Centers:       1
 SDD
 ****
 Centers:       2      3      4      8     12     16     20     24      5      6
 Centers:       7      9     10     11     13     14     15     17     18     19
 Centers:      21     22     23     25     26     27     28     29
 6-31g*
 ****
 ======================================================================================================
                                       Pseudopotential Parameters
 ======================================================================================================
  Center     Atomic      Valence      Angular      Power
  Number     Number     Electrons     Momentum     of R      Exponent        Coefficient   SO-Coeffient
 ======================================================================================================
    1         78           18
                                      H and up 
                                                     2        1.0000000        0.00000000    0.00000000
                                      S - H
                                                     2       13.4286510      579.22386100    0.00000000
                                                     2        6.7143260       29.66949100    0.00000000
                                      P - H
                                                     2       10.3659440      280.86077400    0.00000000
                                                     2        5.1829720       26.74538200    0.00000000
                                      D - H
                                                     2        7.6004790      120.39644400    0.00000000
                                                     2        3.8002400       15.81092100    0.00000000
                                      F - H
                                                     2        3.3095690       24.31437600    0.00000000
                                      G - H
                                                     2        5.2772890      -24.21867500    0.00000000
    2         15
                                   No pseudopotential on this center.
    3         15
                                   No pseudopotential on this center.
    4          6
                                   No pseudopotential on this center.
    5          1
                                   No pseudopotential on this center.
    6          1
                                   No pseudopotential on this center.
    7          1
                                   No pseudopotential on this center.
    8          6
                                   No pseudopotential on this center.
    9          1
                                   No pseudopotential on this center.
   10          1
                                   No pseudopotential on this center.
   11          1
                                   No pseudopotential on this center.
   12          6
                                   No pseudopotential on this center.
   13          1
                                   No pseudopotential on this center.
   14          1
                                   No pseudopotential on this center.
   15          1
                                   No pseudopotential on this center.
   16          6
                                   No pseudopotential on this center.
   17          1
                                   No pseudopotential on this center.
   18          1
                                   No pseudopotential on this center.
   19          1
                                   No pseudopotential on this center.
   20          6
                                   No pseudopotential on this center.
   21          1
                                   No pseudopotential on this center.
   22          1
                                   No pseudopotential on this center.
   23          1
                                   No pseudopotential on this center.
   24          6
                                   No pseudopotential on this center.
   25          1
                                   No pseudopotential on this center.
   26          1
                                   No pseudopotential on this center.
   27          1
                                   No pseudopotential on this center.
   28          1
                                   No pseudopotential on this center.
   29          1
                                   No pseudopotential on this center.
 ======================================================================================================
 Ernie: Thresh=  0.10000D-02 Tol=  0.10000D-05 Strict=F.
   196 basis functions,   417 primitive gaussians,   207 cartesian basis functions
    52 alpha electrons       52 beta electrons
       nuclear repulsion energy       838.9546636845 Hartrees.
 IExCor= 4336 DFT=T Ex+Corr=M062X ExCW=0 ScaHFX=  0.540000
 ScaDFX=  1.000000  1.000000  1.000000  1.000000 ScalE2=  1.000000  1.000000
 IRadAn=      5 IRanWt=     -1 IRanGd=            0 ICorTp=0 IEmpDi=  4
 NAtoms=   29 NActive=   29 NUniq=   29 SFac= 1.00D+00 NAtFMM=   60 NAOKFM=F Big=F
 Integral buffers will be    131072 words long.
 Raffenetti 2 integral format.
 Two-electron integral symmetry is turned off.
 Force inversion solution in PCM.
 ------------------------------------------------------------------------------
 Polarizable Continuum Model (PCM)
 =================================
 Model                : PCM.
 Atomic radii         : SMD-Coulomb.
 Polarization charges : Total charges.
 Charge compensation  : None.
 Solution method      : Matrix inversion.
 Cavity type          : VdW (van der Waals Surface) (Alpha=1.000).
 Cavity algorithm     : GePol (No added spheres)
                        Default sphere list used, NSphG=   29.
                        Lebedev-Laikov grids with approx.  5.0 points / Ang**2.
                        Smoothing algorithm: York/Karplus (Gamma=1.0000).
                        Polarization charges: spherical gaussians, with
                                              point-specific exponents (IZeta= 3).
                        Self-potential: point-specific (ISelfS= 7).
                        Self-field    : sphere-specific E.n sum rule (ISelfD= 2).
 1st derivatives      : Analytical E(r).r(x)/FMM algorithm (CHGder, D1EAlg=3).
                        Cavity 1st derivative terms included.
 2nd derivatives      : Analytical E(r).r(xy)/FMM algorithm (CHGder, D2EAlg=3).
                        Cavity 2nd derivative terms included.
 Solvent              : Benzene, Eps=   2.270600 Eps(inf)=   2.253301
 ------------------------------------------------------------------------------
 GePol: Number of generator spheres                  =      29
 GePol: Total number of spheres                      =      29
 GePol: Number of exposed spheres                    =      29 (100.00%)
 GePol: Number of points                             =    2159
 GePol: Average weight of points                     =       0.12
 GePol: Minimum weight of points                     =   0.39D-08
 GePol: Maximum weight of points                     =    0.22001
 GePol: Number of points with low weight             =     126
 GePol: Fraction of low-weight points (<1% of avg)   =       5.84%
 GePol: Cavity surface area                          =    254.827 Ang**2
 GePol: Cavity volume                                =    209.017 Ang**3
 ------------------------------------------------------------------------------
 Atomic radii for non-electrostatic terms: SMD-CDS.
 ------------------------------------------------------------------------------
 PCM non-electrostatic energy =         0.0004031680 Hartrees.
 Nuclear repulsion after PCM non-electrostatic terms =      838.9550668525 Hartrees.
 Leave Link  301 at Thu Nov  7 18:11:35 2019, MaxMem=   280000000 cpu:               3.6 elap:               0.2
 (Enter /usr/g16/l302.exe)
 NPDir=0 NMtPBC=     1 NCelOv=     1 NCel=       1 NClECP=     1 NCelD=      1
         NCelK=      1 NCelE2=     1 NClLst=     1 CellRange=     0.0.
 One-electron integrals computed using PRISM.
   1 Symmetry operations used in ECPInt.
 ECPInt:  NShTT=    3916 NPrTT=   20546 LenC2=    3772 LenP2D=   13434.
 LDataN:  DoStor=T MaxTD1= 7 Len=  274
 NBasis=   196 RedAO= T EigKep=  2.27D-03  NBF=   196
 NBsUse=   196 1.00D-06 EigRej= -1.00D+00 NBFU=   196
 Precomputing XC quadrature grid using
 IXCGrd= 4 IRadAn=           5 IRanWt=          -1 IRanGd=           0 AccXCQ= 0.00D+00.
 Defaulting to unpruned grid for atomic number  78.
 Generated NRdTot=       0 NPtTot=           0 NUsed=           0 NTot=          32
 NSgBfM=   205   205   205   205   205 MxSgAt=    29 MxSgA2=    29.
 Leave Link  302 at Thu Nov  7 18:11:38 2019, MaxMem=   280000000 cpu:              47.0 elap:               2.7
 (Enter /usr/g16/l303.exe)
 DipDrv:  MaxL=1.
 Leave Link  303 at Thu Nov  7 18:11:38 2019, MaxMem=   280000000 cpu:               7.2 elap:               0.4
 (Enter /usr/g16/l401.exe)
 ExpMin= 1.50D-02 ExpMax= 1.94D+04 ExpMxC= 2.91D+03 IAcc=3 IRadAn=         5 AccDes= 0.00D+00
 Harris functional with IExCor= 1009 and IRadAn=       5 diagonalized for initial guess.
 HarFok:  IExCor= 1009 AccDes= 0.00D+00 IRadAn=         5 IDoV= 1 UseB2=F ITyADJ=14
 ICtDFT=  3500011 ScaDFX=  1.000000  1.000000  1.000000  1.000000
 Defaulting to unpruned grid for atomic number  78.
 FoFCou: FMM=F IPFlag=           0 FMFlag=      100000 FMFlg1=           0
         NFxFlg=           0 DoJE=T BraDBF=F KetDBF=T FulRan=T
         wScrn=  0.000000 ICntrl=       500 IOpCl=  0 I1Cent=   200000004 NGrid=           0
         NMat0=    1 NMatS0=      1 NMatT0=    0 NMatD0=    1 NMtDS0=    0 NMtDT0=    0
 Symmetry not used in FoFCou.
 Harris En= -1042.23731408626    
 JPrj=0 DoOrth=F DoCkMO=F.
 Leave Link  401 at Thu Nov  7 18:11:42 2019, MaxMem=   280000000 cpu:              59.5 elap:               3.5
 (Enter /usr/g16/l502.exe)
 Two-electron integral symmetry not used.
 Closed shell SCF:
 Using DIIS extrapolation, IDIIS=  1040.
 NGot=   280000000 LenX=   279907228 LenY=   279863938
 Requested convergence on RMS density matrix=1.00D-08 within 128 cycles.
 Requested convergence on MAX density matrix=1.00D-06.
 Requested convergence on             energy=1.00D-06.
 No special actions if energy rises.
 Fock matrices will be formed incrementally for  20 cycles.

 Cycle   1  Pass 1  IDiag  1:
 FoFJK:  IHMeth= 1 ICntrl=       0 DoSepK=F KAlg= 0 I1Cent=           0 FoldK=F
 IRaf= 930000000 NMat=       1 IRICut=       1 DoRegI=T DoRafI=F ISym2E= 0 IDoP0=0 IntGTp=1.
 FoFCou: FMM=F IPFlag=           0 FMFlag=      100000 FMFlg1=           0
         NFxFlg=           0 DoJE=F BraDBF=F KetDBF=F FulRan=T
         wScrn=  0.000000 ICntrl=         0 IOpCl=  0 I1Cent=           0 NGrid=           0
         NMat0=    1 NMatS0=      1 NMatT0=    0 NMatD0=    1 NMtDS0=    0 NMtDT0=    0
 Symmetry not used in FoFCou.
 Defaulting to unpruned grid for atomic number  78.
 Defaulting to unpruned grid for atomic number  78.
 Defaulting to unpruned grid for atomic number  78.
 Defaulting to unpruned grid for atomic number  78.
 Defaulting to unpruned grid for atomic number  78.
 Defaulting to unpruned grid for atomic number  78.
 Defaulting to unpruned grid for atomic number  78.
 Defaulting to unpruned grid for atomic number  78.
 Defaulting to unpruned grid for atomic number  78.
 Defaulting to unpruned grid for atomic number  78.
 Defaulting to unpruned grid for atomic number  78.
 Defaulting to unpruned grid for atomic number  78.
 Defaulting to unpruned grid for atomic number  78.
 Defaulting to unpruned grid for atomic number  78.
 Defaulting to unpruned grid for atomic number  78.
 Defaulting to unpruned grid for atomic number  78.
 Defaulting to unpruned grid for atomic number  78.
 Defaulting to unpruned grid for atomic number  78.
 Defaulting to unpruned grid for atomic number  78.
 Defaulting to unpruned grid for atomic number  78.
 Defaulting to unpruned grid for atomic number  78.
 Defaulting to unpruned grid for atomic number  78.
 Defaulting to unpruned grid for atomic number  78.
 Defaulting to unpruned grid for atomic number  78.
 Inv3:  Mode=1 IEnd=    13983843.
 Iteration    1 A*A^-1 deviation from unit magnitude is 7.33D-15 for    840.
 Iteration    1 A*A^-1 deviation from orthogonality  is 2.42D-15 for   2132   1356.
 Iteration    1 A^-1*A deviation from unit magnitude is 7.99D-15 for   1348.
 Iteration    1 A^-1*A deviation from orthogonality  is 1.83D-15 for   1525    849.
 E= -1041.72008637838    
 DIIS: error= 5.84D-02 at cycle   1 NSaved=   1.
 NSaved= 1 IEnMin= 1 EnMin= -1041.72008637838     IErMin= 1 ErrMin= 5.84D-02
 ErrMax= 5.84D-02  0.00D+00 EMaxC= 1.00D-01 BMatC= 7.55D-01 BMatP= 7.55D-01
 IDIUse=3 WtCom= 4.16D-01 WtEn= 5.84D-01
 Coeff-Com:  0.100D+01
 Coeff-En:   0.100D+01
 Coeff:      0.100D+01
 Gap=     0.489 Goal=   None    Shift=    0.000
 GapD=    0.489 DampG=2.000 DampE=0.250 DampFc=0.5000 IDamp=-1.
 Damping current iteration by 5.00D-01
 RMSDP=9.03D-03 MaxDP=3.09D-01              OVMax= 2.40D-01

 Cycle   2  Pass 1  IDiag  1:
 RMSU=  4.49D-03    CP:  9.87D-01
 E= -1042.04038484118     Delta-E=       -0.320298462805 Rises=F Damp=T
 DIIS: error= 9.64D-03 at cycle   2 NSaved=   2.
 NSaved= 2 IEnMin= 2 EnMin= -1042.04038484118     IErMin= 2 ErrMin= 9.64D-03
 ErrMax= 9.64D-03  0.00D+00 EMaxC= 1.00D-01 BMatC= 3.72D-02 BMatP= 7.55D-01
 IDIUse=3 WtCom= 9.04D-01 WtEn= 9.64D-02
 Coeff-Com:  0.860D-01 0.914D+00
 Coeff-En:   0.130D+00 0.870D+00
 Coeff:      0.902D-01 0.910D+00
 Gap=     0.322 Goal=   None    Shift=    0.000
 RMSDP=2.78D-03 MaxDP=2.14D-01 DE=-3.20D-01 OVMax= 1.95D-01

 Cycle   3  Pass 1  IDiag  1:
 RMSU=  2.47D-03    CP:  9.81D-01  7.21D-01
 E= -1042.40349909125     Delta-E=       -0.363114250064 Rises=F Damp=F
 DIIS: error= 1.09D-02 at cycle   3 NSaved=   3.
 NSaved= 3 IEnMin= 3 EnMin= -1042.40349909125     IErMin= 2 ErrMin= 9.64D-03
 ErrMax= 1.09D-02  0.00D+00 EMaxC= 1.00D-01 BMatC= 2.42D-02 BMatP= 3.72D-02
 IDIUse=3 WtCom= 8.91D-01 WtEn= 1.09D-01
 Coeff-Com:  0.841D-02 0.439D+00 0.552D+00
 Coeff-En:   0.000D+00 0.000D+00 0.100D+01
 Coeff:      0.750D-02 0.391D+00 0.601D+00
 Gap=     0.241 Goal=   None    Shift=    0.000
 RMSDP=1.12D-03 MaxDP=4.76D-02 DE=-3.63D-01 OVMax= 4.56D-02

 Cycle   4  Pass 1  IDiag  1:
 RMSU=  7.80D-04    CP:  9.82D-01  8.51D-01  7.76D-01
 E= -1042.42153939712     Delta-E=       -0.018040305876 Rises=F Damp=F
 DIIS: error= 4.45D-03 at cycle   4 NSaved=   4.
 NSaved= 4 IEnMin= 4 EnMin= -1042.42153939712     IErMin= 4 ErrMin= 4.45D-03
 ErrMax= 4.45D-03  0.00D+00 EMaxC= 1.00D-01 BMatC= 4.53D-03 BMatP= 2.42D-02
 IDIUse=3 WtCom= 9.56D-01 WtEn= 4.45D-02
 Coeff-Com:  0.869D-02-0.186D-01 0.279D+00 0.731D+00
 Coeff-En:   0.000D+00 0.000D+00 0.134D+00 0.866D+00
 Coeff:      0.830D-02-0.178D-01 0.272D+00 0.737D+00
 Gap=     0.235 Goal=   None    Shift=    0.000
 RMSDP=4.05D-04 MaxDP=2.43D-02 DE=-1.80D-02 OVMax= 1.25D-02

 Cycle   5  Pass 1  IDiag  1:
 RMSU=  2.07D-04    CP:  9.80D-01  8.09D-01  8.88D-01  9.08D-01
 E= -1042.42529215262     Delta-E=       -0.003752755500 Rises=F Damp=F
 DIIS: error= 3.94D-04 at cycle   5 NSaved=   5.
 NSaved= 5 IEnMin= 5 EnMin= -1042.42529215262     IErMin= 5 ErrMin= 3.94D-04
 ErrMax= 3.94D-04  0.00D+00 EMaxC= 1.00D-01 BMatC= 3.27D-05 BMatP= 4.53D-03
 IDIUse=3 WtCom= 9.96D-01 WtEn= 3.94D-03
 Coeff-Com:  0.264D-02-0.214D-01 0.340D-01 0.150D+00 0.835D+00
 Coeff-En:   0.000D+00 0.000D+00 0.000D+00 0.000D+00 0.100D+01
 Coeff:      0.263D-02-0.213D-01 0.338D-01 0.150D+00 0.835D+00
 Gap=     0.234 Goal=   None    Shift=    0.000
 RMSDP=8.58D-05 MaxDP=4.58D-03 DE=-3.75D-03 OVMax= 2.79D-03

 Cycle   6  Pass 1  IDiag  1:
 RMSU=  5.98D-05    CP:  9.80D-01  8.04D-01  9.07D-01  9.53D-01  9.69D-01
 E= -1042.42535150997     Delta-E=       -0.000059357346 Rises=F Damp=F
 DIIS: error= 7.04D-05 at cycle   6 NSaved=   6.
 NSaved= 6 IEnMin= 6 EnMin= -1042.42535150997     IErMin= 6 ErrMin= 7.04D-05
 ErrMax= 7.04D-05  0.00D+00 EMaxC= 1.00D-01 BMatC= 1.84D-06 BMatP= 3.27D-05
 IDIUse=1 WtCom= 1.00D+00 WtEn= 0.00D+00
 Coeff-Com: -0.305D-03 0.969D-03-0.169D-01-0.517D-01-0.680D-02 0.107D+01
 Coeff:     -0.305D-03 0.969D-03-0.169D-01-0.517D-01-0.680D-02 0.107D+01
 Gap=     0.234 Goal=   None    Shift=    0.000
 RMSDP=3.33D-05 MaxDP=1.92D-03 DE=-5.94D-05 OVMax= 1.28D-03

 Cycle   7  Pass 1  IDiag  1:
 RMSU=  1.02D-05    CP:  9.80D-01  8.03D-01  9.13D-01  9.72D-01  1.06D+00
                    CP:  1.23D+00
 E= -1042.42535696161     Delta-E=       -0.000005451642 Rises=F Damp=F
 DIIS: error= 2.82D-05 at cycle   7 NSaved=   7.
 NSaved= 7 IEnMin= 7 EnMin= -1042.42535696161     IErMin= 7 ErrMin= 2.82D-05
 ErrMax= 2.82D-05  0.00D+00 EMaxC= 1.00D-01 BMatC= 1.40D-07 BMatP= 1.84D-06
 IDIUse=1 WtCom= 1.00D+00 WtEn= 0.00D+00
 Coeff-Com: -0.220D-05 0.680D-03-0.833D-03-0.754D-02-0.257D-01-0.288D-01
 Coeff-Com:  0.106D+01
 Coeff:     -0.220D-05 0.680D-03-0.833D-03-0.754D-02-0.257D-01-0.288D-01
 Coeff:      0.106D+01
 Gap=     0.234 Goal=   None    Shift=    0.000
 RMSDP=8.34D-06 MaxDP=4.67D-04 DE=-5.45D-06 OVMax= 4.61D-04

 Cycle   8  Pass 1  IDiag  1:
 RMSU=  3.24D-06    CP:  9.80D-01  8.03D-01  9.14D-01  9.74D-01  1.07D+00
                    CP:  1.31D+00  1.29D+00
 E= -1042.42535733579     Delta-E=       -0.000000374178 Rises=F Damp=F
 DIIS: error= 7.92D-06 at cycle   8 NSaved=   8.
 NSaved= 8 IEnMin= 8 EnMin= -1042.42535733579     IErMin= 8 ErrMin= 7.92D-06
 ErrMax= 7.92D-06  0.00D+00 EMaxC= 1.00D-01 BMatC= 1.65D-08 BMatP= 1.40D-07
 IDIUse=1 WtCom= 1.00D+00 WtEn= 0.00D+00
 Coeff-Com:  0.422D-04-0.229D-04 0.139D-02 0.284D-02-0.415D-02-0.106D+00
 Coeff-Com:  0.282D+00 0.824D+00
 Coeff:      0.422D-04-0.229D-04 0.139D-02 0.284D-02-0.415D-02-0.106D+00
 Coeff:      0.282D+00 0.824D+00
 Gap=     0.234 Goal=   None    Shift=    0.000
 RMSDP=2.03D-06 MaxDP=1.07D-04 DE=-3.74D-07 OVMax= 1.36D-04

 Cycle   9  Pass 1  IDiag  1:
 RMSU=  1.03D-06    CP:  9.80D-01  8.03D-01  9.14D-01  9.74D-01  1.07D+00
                    CP:  1.32D+00  1.42D+00  9.68D-01
 E= -1042.42535737679     Delta-E=       -0.000000040998 Rises=F Damp=F
 DIIS: error= 4.49D-06 at cycle   9 NSaved=   9.
 NSaved= 9 IEnMin= 9 EnMin= -1042.42535737679     IErMin= 9 ErrMin= 4.49D-06
 ErrMax= 4.49D-06  0.00D+00 EMaxC= 1.00D-01 BMatC= 1.58D-09 BMatP= 1.65D-08
 IDIUse=1 WtCom= 1.00D+00 WtEn= 0.00D+00
 Coeff-Com:  0.470D-05-0.417D-04 0.342D-03 0.144D-02 0.171D-02-0.159D-01
 Coeff-Com: -0.728D-01 0.136D+00 0.949D+00
 Coeff:      0.470D-05-0.417D-04 0.342D-03 0.144D-02 0.171D-02-0.159D-01
 Coeff:     -0.728D-01 0.136D+00 0.949D+00
 Gap=     0.234 Goal=   None    Shift=    0.000
 RMSDP=7.05D-07 MaxDP=4.96D-05 DE=-4.10D-08 OVMax= 7.17D-05

 Cycle  10  Pass 1  IDiag  1:
 RMSU=  3.61D-07    CP:  9.80D-01  8.03D-01  9.14D-01  9.74D-01  1.07D+00
                    CP:  1.32D+00  1.46D+00  1.08D+00  1.12D+00
 E= -1042.42535738214     Delta-E=       -0.000000005356 Rises=F Damp=F
 DIIS: error= 1.27D-06 at cycle  10 NSaved=  10.
 NSaved=10 IEnMin=10 EnMin= -1042.42535738214     IErMin=10 ErrMin= 1.27D-06
 ErrMax= 1.27D-06  0.00D+00 EMaxC= 1.00D-01 BMatC= 2.25D-10 BMatP= 1.58D-09
 IDIUse=1 WtCom= 1.00D+00 WtEn= 0.00D+00
 Coeff-Com: -0.618D-05-0.383D-05-0.767D-04 0.673D-04 0.717D-03 0.735D-02
 Coeff-Com: -0.423D-01-0.604D-01 0.211D+00 0.884D+00
 Coeff:     -0.618D-05-0.383D-05-0.767D-04 0.673D-04 0.717D-03 0.735D-02
 Coeff:     -0.423D-01-0.604D-01 0.211D+00 0.884D+00
 Gap=     0.234 Goal=   None    Shift=    0.000
 RMSDP=2.02D-07 MaxDP=1.51D-05 DE=-5.36D-09 OVMax= 2.27D-05

 Cycle  11  Pass 1  IDiag  1:
 RMSU=  1.08D-07    CP:  9.80D-01  8.03D-01  9.14D-01  9.74D-01  1.07D+00
                    CP:  1.32D+00  1.47D+00  1.09D+00  1.25D+00  1.14D+00
 E= -1042.42535738272     Delta-E=       -0.000000000573 Rises=F Damp=F
 DIIS: error= 3.71D-07 at cycle  11 NSaved=  11.
 NSaved=11 IEnMin=11 EnMin= -1042.42535738272     IErMin=11 ErrMin= 3.71D-07
 ErrMax= 3.71D-07  0.00D+00 EMaxC= 1.00D-01 BMatC= 2.58D-11 BMatP= 2.25D-10
 IDIUse=1 WtCom= 1.00D+00 WtEn= 0.00D+00
 Coeff-Com: -0.279D-05 0.426D-05-0.675D-04-0.161D-03 0.493D-05 0.407D-02
 Coeff-Com: -0.366D-02-0.351D-01-0.459D-01 0.245D+00 0.836D+00
 Coeff:     -0.279D-05 0.426D-05-0.675D-04-0.161D-03 0.493D-05 0.407D-02
 Coeff:     -0.366D-02-0.351D-01-0.459D-01 0.245D+00 0.836D+00
 Gap=     0.234 Goal=   None    Shift=    0.000
 RMSDP=7.66D-08 MaxDP=4.53D-06 DE=-5.73D-10 OVMax= 7.01D-06

 Cycle  12  Pass 1  IDiag  1:
 RMSU=  4.13D-08    CP:  9.80D-01  8.03D-01  9.14D-01  9.74D-01  1.07D+00
                    CP:  1.32D+00  1.47D+00  1.09D+00  1.28D+00  1.26D+00
                    CP:  1.20D+00
 E= -1042.42535738278     Delta-E=       -0.000000000062 Rises=F Damp=F
 DIIS: error= 1.29D-07 at cycle  12 NSaved=  12.
 NSaved=12 IEnMin=12 EnMin= -1042.42535738278     IErMin=12 ErrMin= 1.29D-07
 ErrMax= 1.29D-07  0.00D+00 EMaxC= 1.00D-01 BMatC= 3.87D-12 BMatP= 2.58D-11
 IDIUse=1 WtCom= 1.00D+00 WtEn= 0.00D+00
 Coeff-Com:  0.171D-06 0.288D-05-0.117D-04-0.748D-04-0.112D-03 0.209D-03
 Coeff-Com:  0.514D-02-0.193D-02-0.439D-01-0.627D-01 0.243D+00 0.860D+00
 Coeff:      0.171D-06 0.288D-05-0.117D-04-0.748D-04-0.112D-03 0.209D-03
 Coeff:      0.514D-02-0.193D-02-0.439D-01-0.627D-01 0.243D+00 0.860D+00
 Gap=     0.234 Goal=   None    Shift=    0.000
 RMSDP=3.17D-08 MaxDP=1.61D-06 DE=-6.23D-11 OVMax= 2.53D-06

 Cycle  13  Pass 1  IDiag  1:
 RMSU=  1.25D-08    CP:  9.80D-01  8.03D-01  9.14D-01  9.74D-01  1.07D+00
                    CP:  1.32D+00  1.47D+00  1.09D+00  1.29D+00  1.31D+00
                    CP:  1.38D+00  1.08D+00
 E= -1042.42535738279     Delta-E=       -0.000000000008 Rises=F Damp=F
 DIIS: error= 4.76D-08 at cycle  13 NSaved=  13.
 NSaved=13 IEnMin=13 EnMin= -1042.42535738279     IErMin=13 ErrMin= 4.76D-08
 ErrMax= 4.76D-08  0.00D+00 EMaxC= 1.00D-01 BMatC= 1.84D-13 BMatP= 3.87D-12
 IDIUse=1 WtCom= 1.00D+00 WtEn= 0.00D+00
 Coeff-Com:  0.333D-06-0.411D-06 0.501D-05 0.701D-05-0.498D-05-0.346D-03
 Coeff-Com:  0.792D-03 0.314D-02 0.107D-02-0.281D-01-0.650D-01 0.637D-01
 Coeff-Com:  0.102D+01
 Coeff:      0.333D-06-0.411D-06 0.501D-05 0.701D-05-0.498D-05-0.346D-03
 Coeff:      0.792D-03 0.314D-02 0.107D-02-0.281D-01-0.650D-01 0.637D-01
 Coeff:      0.102D+01
 Gap=     0.234 Goal=   None    Shift=    0.000
 RMSDP=1.09D-08 MaxDP=6.53D-07 DE=-7.73D-12 OVMax= 6.24D-07

 Cycle  14  Pass 1  IDiag  1:
 RMSU=  3.42D-09    CP:  9.80D-01  8.03D-01  9.14D-01  9.74D-01  1.07D+00
                    CP:  1.32D+00  1.47D+00  1.09D+00  1.29D+00  1.32D+00
                    CP:  1.44D+00  1.20D+00  1.24D+00
 E= -1042.42535738282     Delta-E=       -0.000000000029 Rises=F Damp=F
 DIIS: error= 8.14D-09 at cycle  14 NSaved=  14.
 NSaved=14 IEnMin=14 EnMin= -1042.42535738282     IErMin=14 ErrMin= 8.14D-09
 ErrMax= 8.14D-09  0.00D+00 EMaxC= 1.00D-01 BMatC= 1.38D-14 BMatP= 1.84D-13
 IDIUse=1 WtCom= 1.00D+00 WtEn= 0.00D+00
 Coeff-Com: -0.712D-07-0.592D-07 0.243D-06 0.496D-05 0.646D-05 0.163D-04
 Coeff-Com: -0.379D-03-0.164D-03 0.250D-02 0.677D-02-0.839D-02-0.597D-01
 Coeff-Com: -0.894D-01 0.115D+01
 Coeff:     -0.712D-07-0.592D-07 0.243D-06 0.496D-05 0.646D-05 0.163D-04
 Coeff:     -0.379D-03-0.164D-03 0.250D-02 0.677D-02-0.839D-02-0.597D-01
 Coeff:     -0.894D-01 0.115D+01
 Gap=     0.234 Goal=   None    Shift=    0.000
 RMSDP=2.75D-09 MaxDP=1.77D-07 DE=-2.86D-11 OVMax= 1.50D-07

 Error on total polarization charges =  0.04203
 SCF Done:  E(RM062X) =  -1042.42535738     A.U. after   14 cycles
            NFock= 14  Conv=0.27D-08     -V/T= 2.0849
 KE= 9.608187754004D+02 PE=-4.106670255085D+03 EE= 1.264471055449D+03
 SMD-CDS (non-electrostatic) energy       (kcal/mol) =       0.25
 (included in total energy above)
 Leave Link  502 at Thu Nov  7 18:13:01 2019, MaxMem=   280000000 cpu:            1433.0 elap:              79.3
 (Enter /usr/g16/l801.exe)
 DoSCS=F DFT=T ScalE2(SS,OS)=  1.000000  1.000000
 Range of M.O.s used for correlation:     1   196
 NBasis=   196 NAE=    52 NBE=    52 NFC=     0 NFV=     0
 NROrb=    196 NOA=    52 NOB=    52 NVA=   144 NVB=   144
 Leave Link  801 at Thu Nov  7 18:13:01 2019, MaxMem=   280000000 cpu:               1.5 elap:               0.1
 (Enter /usr/g16/l1101.exe)
 Using compressed storage, NAtomX=    29.
 Will process     30 centers per pass.
   1 Symmetry operations used in ECPInt.
 ECPInt:  NShTT=    3916 NPrTT=   20546 LenC2=    3772 LenP2D=   13434.
 LDataN:  DoStor=T MaxTD1= 8 Len=  415
 Number of processors reduced to  11 by ecpmxn.
 Leave Link 1101 at Thu Nov  7 18:13:06 2019, MaxMem=   280000000 cpu:              82.2 elap:               4.8
 (Enter /usr/g16/l1102.exe)
 Symmetrizing basis deriv contribution to polar:
 IMax=3 JMax=2 DiffMx= 0.00D+00
 Leave Link 1102 at Thu Nov  7 18:13:06 2019, MaxMem=   280000000 cpu:               4.2 elap:               0.3
 (Enter /usr/g16/l1110.exe)
 Forming Gx(P) for the SCF density, NAtomX=    29.
 Integral derivatives from FoFJK, PRISM(SPDF).
 Do as many integral derivatives as possible in FoFJK.
 G2DrvN: MDV=     279997776.
 G2DrvN: will do    30 centers at a time, making    1 passes.
 Calling FoFCou, ICntrl=  3107 FMM=F I1Cent=   0 AccDes= 0.00D+00.
 FoFJK:  IHMeth= 1 ICntrl=    3107 DoSepK=F KAlg= 0 I1Cent=           0 FoldK=F
 IRaf=         0 NMat=       1 IRICut=       1 DoRegI=T DoRafI=F ISym2E= 0 IDoP0=0 IntGTp=1.
 FoFCou: FMM=F IPFlag=           0 FMFlag=      100000 FMFlg1=           0
         NFxFlg=           0 DoJE=F BraDBF=F KetDBF=F FulRan=T
         wScrn=  0.000000 ICntrl=      3107 IOpCl=  0 I1Cent=           0 NGrid=           0
         NMat0=    1 NMatS0=      1 NMatT0=    0 NMatD0=    1 NMtDS0=    0 NMtDT0=    0
 Symmetry not used in FoFCou.
 Defaulting to unpruned grid for atomic number  78.
 Defaulting to unpruned grid for atomic number  78.
 Defaulting to unpruned grid for atomic number  78.
 Defaulting to unpruned grid for atomic number  78.
 Defaulting to unpruned grid for atomic number  78.
 Defaulting to unpruned grid for atomic number  78.
 Defaulting to unpruned grid for atomic number  78.
 Defaulting to unpruned grid for atomic number  78.
 Defaulting to unpruned grid for atomic number  78.
 Defaulting to unpruned grid for atomic number  78.
 Defaulting to unpruned grid for atomic number  78.
 Defaulting to unpruned grid for atomic number  78.
 Defaulting to unpruned grid for atomic number  78.
 Defaulting to unpruned grid for atomic number  78.
 Defaulting to unpruned grid for atomic number  78.
 Defaulting to unpruned grid for atomic number  78.
 Defaulting to unpruned grid for atomic number  78.
 Defaulting to unpruned grid for atomic number  78.
 Defaulting to unpruned grid for atomic number  78.
 Defaulting to unpruned grid for atomic number  78.
 Defaulting to unpruned grid for atomic number  78.
 Defaulting to unpruned grid for atomic number  78.
 Defaulting to unpruned grid for atomic number  78.
 Defaulting to unpruned grid for atomic number  78.
 NEqPCM:  Using equilibrium solvation (IEInf=0, Eps=   2.2706, EpsInf=   2.2533)
 G2PCM: DoFxE=T DoFxN=T DoGrad=T DoDP/DQ/DG/TGxP=FFFF NFrqRd=   0 IEInf=0 SqF1=F DoCFld=F IF1Alg=4.
 GePol: Maximum number of non-zero 1st derivatives   =     242
 End of G2Drv F.D. properties file   721 does not exist.
 End of G2Drv F.D. properties file   722 does not exist.
 End of G2Drv F.D. properties file   788 does not exist.
 Leave Link 1110 at Thu Nov  7 18:15:22 2019, MaxMem=   280000000 cpu:            2440.9 elap:             135.3
 (Enter /usr/g16/l1002.exe)
 Minotr:  Closed shell wavefunction.
          IDoAtm=11111111111111111111111111111
 NEqPCM:  Using equilibrium solvation (IEInf=0, Eps=   2.2706, EpsInf=   2.2533)
          Direct CPHF calculation.
          Differentiating once with respect to nuclear coordinates.
          Requested convergence is 1.0D-08 RMS, and 1.0D-07 maximum.
          Secondary convergence is 1.0D-12 RMS, and 1.0D-12 maximum.
          NewPWx=T KeepS1=F KeepF1=F KeepIn=T MapXYZ=F SortEE=F KeepMc=T.
 Defaulting to unpruned grid for atomic number  78.
         8993 words used for storage of precomputed grid.
 Keep R1 ints in memory in canonical form, NReq=211150476.
 FoFCou: FMM=F IPFlag=           0 FMFlag=           0 FMFlg1=           0
         NFxFlg=           0 DoJE=F BraDBF=F KetDBF=F FulRan=T
         wScrn=  0.000000 ICntrl=       600 IOpCl=  0 I1Cent=           0 NGrid=           0
         NMat0=    1 NMatS0=  19306 NMatT0=    0 NMatD0=    1 NMtDS0=    0 NMtDT0=    0
 Symmetry not used in FoFCou.
 Two-electron integral symmetry not used.
          MDV=     280000000 using IRadAn=       1.
          Solving linear equations simultaneously, MaxMat=       0.
 Defaulting to unpruned grid for atomic number  78.
 CoulSu:  requested number of processors reduced to:  17 ShMem   1 Linda.
 CoulSu:  requested number of processors reduced to:  13 ShMem   1 Linda.
          There are    90 degrees of freedom in the 1st order CPHF.  IDoFFX=6 NUNeed=     0.
     84 vectors produced by pass  0 Test12= 8.32D-15 1.11D-09 XBig12= 5.62D-02 6.50D-02.
 AX will form    84 AO Fock derivatives at one time.
 CoulSu:  requested number of processors reduced to:  18 ShMem   1 Linda.
 CoulSu:  requested number of processors reduced to:  14 ShMem   1 Linda.
     84 vectors produced by pass  1 Test12= 8.32D-15 1.11D-09 XBig12= 9.64D-03 2.43D-02.
 CoulSu:  requested number of processors reduced to:  18 ShMem   1 Linda.
 CoulSu:  requested number of processors reduced to:  14 ShMem   1 Linda.
     84 vectors produced by pass  2 Test12= 8.32D-15 1.11D-09 XBig12= 3.19D-04 6.56D-03.
 CoulSu:  requested number of processors reduced to:  18 ShMem   1 Linda.
 CoulSu:  requested number of processors reduced to:  14 ShMem   1 Linda.
     84 vectors produced by pass  3 Test12= 8.32D-15 1.11D-09 XBig12= 3.87D-06 4.83D-04.
 CoulSu:  requested number of processors reduced to:  18 ShMem   1 Linda.
 CoulSu:  requested number of processors reduced to:  14 ShMem   1 Linda.
     84 vectors produced by pass  4 Test12= 8.32D-15 1.11D-09 XBig12= 2.26D-08 4.48D-05.
 CoulSu:  requested number of processors reduced to:  18 ShMem   1 Linda.
 CoulSu:  requested number of processors reduced to:  14 ShMem   1 Linda.
     84 vectors produced by pass  5 Test12= 8.32D-15 1.11D-09 XBig12= 7.06D-11 1.06D-06.
 CoulSu:  requested number of processors reduced to:  18 ShMem   1 Linda.
 CoulSu:  requested number of processors reduced to:  14 ShMem   1 Linda.
     41 vectors produced by pass  6 Test12= 8.32D-15 1.11D-09 XBig12= 2.09D-13 6.08D-08.
      3 vectors produced by pass  7 Test12= 8.32D-15 1.11D-09 XBig12= 6.12D-16 3.52D-09.
 InvSVY:  IOpt=1 It=  1 EMax= 5.00D-16
 Solved reduced A of dimension   548 with    90 vectors.
 End of Minotr F.D. properties file   721 does not exist.
 End of Minotr F.D. properties file   722 does not exist.
 End of Minotr F.D. properties file   788 does not exist.
 Leave Link 1002 at Thu Nov  7 18:18:21 2019, MaxMem=   280000000 cpu:            3211.8 elap:             179.1
 (Enter /usr/g16/l601.exe)
 Copying SCF densities to generalized density rwf, IOpCl= 0 IROHF=0.

 **********************************************************************

            Population analysis using the SCF density.

 **********************************************************************

 Alpha  occ. eigenvalues --  -78.04466 -78.04424 -10.52675 -10.52659 -10.52642
 Alpha  occ. eigenvalues --  -10.52627 -10.52411 -10.52354  -6.85908  -6.85866
 Alpha  occ. eigenvalues --   -4.97289  -4.97264  -4.97246  -4.97222  -4.97081
 Alpha  occ. eigenvalues --   -4.97039  -4.02095  -2.23837  -2.23434  -2.21599
 Alpha  occ. eigenvalues --   -0.85399  -0.85197  -0.77397  -0.77314  -0.77216
 Alpha  occ. eigenvalues --   -0.77118  -0.61789  -0.60787  -0.53598  -0.50439
 Alpha  occ. eigenvalues --   -0.49997  -0.48914  -0.48533  -0.48495  -0.48406
 Alpha  occ. eigenvalues --   -0.46063  -0.45819  -0.45758  -0.45620  -0.44154
 Alpha  occ. eigenvalues --   -0.44095  -0.39495  -0.38605  -0.38356  -0.38149
 Alpha  occ. eigenvalues --   -0.37739  -0.36347  -0.28898  -0.28504  -0.26481
 Alpha  occ. eigenvalues --   -0.24544  -0.22592
 Alpha virt. eigenvalues --    0.00839   0.01085   0.04935   0.05627   0.09345
 Alpha virt. eigenvalues --    0.09882   0.10873   0.11474   0.12290   0.12583
 Alpha virt. eigenvalues --    0.12899   0.13843   0.15226   0.15873   0.16429
 Alpha virt. eigenvalues --    0.16610   0.18135   0.20075   0.20243   0.21436
 Alpha virt. eigenvalues --    0.21875   0.22272   0.23237   0.23679   0.24275
 Alpha virt. eigenvalues --    0.24653   0.24946   0.25480   0.25622   0.26460
 Alpha virt. eigenvalues --    0.26699   0.27970   0.28580   0.29169   0.30262
 Alpha virt. eigenvalues --    0.32009   0.34403   0.36249   0.36664   0.44298
 Alpha virt. eigenvalues --    0.46223   0.47280   0.48297   0.50474   0.51211
 Alpha virt. eigenvalues --    0.52302   0.55533   0.56812   0.59418   0.63465
 Alpha virt. eigenvalues --    0.64289   0.66561   0.67135   0.68605   0.69608
 Alpha virt. eigenvalues --    0.71120   0.71735   0.72054   0.72404   0.73017
 Alpha virt. eigenvalues --    0.75783   0.77128   0.79376   0.81112   0.83346
 Alpha virt. eigenvalues --    0.83637   0.84908   0.85796   0.87090   0.87397
 Alpha virt. eigenvalues --    0.87956   0.89830   0.91436   0.91531   0.93992
 Alpha virt. eigenvalues --    0.94570   0.95880   0.96950   0.97474   0.97964
 Alpha virt. eigenvalues --    0.98914   0.99252   0.99829   1.00707   1.01248
 Alpha virt. eigenvalues --    1.01931   1.02310   1.02664   1.04164   1.04514
 Alpha virt. eigenvalues --    1.05762   1.09457   1.09989   1.12044   1.12454
 Alpha virt. eigenvalues --    1.13629   1.14277   1.16809   1.24560   1.33585
 Alpha virt. eigenvalues --    1.37523   1.40125   1.41511   1.42517   1.43925
 Alpha virt. eigenvalues --    1.45208   1.46644   1.56201   1.61377   1.71361
 Alpha virt. eigenvalues --    1.71390   1.75751   1.76563   1.76852   1.77492
 Alpha virt. eigenvalues --    1.84878   1.86053   1.87824   1.87962   1.96813
 Alpha virt. eigenvalues --    1.99327   2.15292   2.15435   2.26226   2.26269
 Alpha virt. eigenvalues --    2.26705   2.27119   2.29546   2.30609   2.31859
 Alpha virt. eigenvalues --    2.31928   2.32438   2.32667   2.32928   2.33080
 Alpha virt. eigenvalues --    2.35037   2.35350   2.35382   2.35845   2.58317
 Alpha virt. eigenvalues --   46.19089  46.26870  46.32107 115.14080
          Condensed to atoms (all electrons):
               1          2          3          4          5          6
     1  Pt  18.021748   0.248777   0.255181  -0.019727   0.003472   0.007735
     2  P    0.248777  13.570107  -0.047038   0.327024  -0.027340  -0.019957
     3  P    0.255181  -0.047038  13.559541  -0.001232  -0.000082   0.000020
     4  C   -0.019727   0.327024  -0.001232   5.377927   0.371381   0.351842
     5  H    0.003472  -0.027340  -0.000082   0.371381   0.481168  -0.026384
     6  H    0.007735  -0.019957   0.000020   0.351842  -0.026384   0.531682
     7  H    0.002610  -0.024987  -0.000142   0.368102  -0.021254  -0.026037
     8  C   -0.014906   0.308731   0.000692  -0.050168  -0.001384  -0.004744
     9  H    0.003533  -0.029177   0.000011   0.002405  -0.000005  -0.000040
    10  H    0.006361  -0.016174  -0.000018  -0.004660  -0.000320   0.003541
    11  H    0.003451  -0.029566   0.000020  -0.001662   0.000777  -0.000343
    12  C   -0.019667   0.327958  -0.001157  -0.041160   0.002339  -0.004966
    13  H    0.002958  -0.025545  -0.000806  -0.001812   0.000014  -0.000299
    14  H    0.007619  -0.019856   0.000016  -0.005013  -0.000058   0.003309
    15  H    0.004085  -0.027030   0.000049   0.002329  -0.000038  -0.000060
    16  C   -0.017293  -0.000106   0.325734  -0.000009  -0.000003   0.000000
    17  H    0.002543  -0.000264  -0.026139   0.000086  -0.000027  -0.000002
    18  H    0.007364  -0.000012  -0.019744  -0.000000  -0.000000  -0.000000
    19  H    0.004221   0.000052  -0.026469  -0.000000   0.000001  -0.000000
    20  C   -0.015234   0.000750   0.311227  -0.000001  -0.000000   0.000000
    21  H    0.006396  -0.000019  -0.016637   0.000000   0.000000  -0.000000
    22  H    0.003726   0.000039  -0.029748  -0.000000   0.000000   0.000000
    23  H    0.003364   0.000002  -0.028067   0.000000   0.000000  -0.000000
    24  C   -0.023788  -0.002303   0.329986   0.000015   0.000004  -0.000002
    25  H    0.003027  -0.000359  -0.028062   0.000005   0.000000  -0.000000
    26  H    0.008198   0.000047  -0.020015  -0.000002  -0.000000   0.000000
    27  H    0.001321  -0.000033  -0.023916  -0.000017  -0.000004  -0.000007
    28  H    0.068705  -0.016932   0.021093   0.000051   0.000004  -0.000001
    29  H    0.068343   0.020491  -0.016968   0.000099   0.000012  -0.000000
               7          8          9         10         11         12
     1  Pt   0.002610  -0.014906   0.003533   0.006361   0.003451  -0.019667
     2  P   -0.024987   0.308731  -0.029177  -0.016174  -0.029566   0.327958
     3  P   -0.000142   0.000692   0.000011  -0.000018   0.000020  -0.001157
     4  C    0.368102  -0.050168   0.002405  -0.004660  -0.001662  -0.041160
     5  H   -0.021254  -0.001384  -0.000005  -0.000320   0.000777   0.002339
     6  H   -0.026037  -0.004744  -0.000040   0.003541  -0.000343  -0.004966
     7  H    0.490035   0.002402  -0.000040  -0.000043   0.000013  -0.001863
     8  C    0.002402   5.398105   0.372899   0.346886   0.373203  -0.048299
     9  H   -0.000040   0.372899   0.487350  -0.025967  -0.021661  -0.001635
    10  H   -0.000043   0.346886  -0.025967   0.539639  -0.026166  -0.004781
    11  H    0.000013   0.373203  -0.021661  -0.026166   0.487660   0.002401
    12  C   -0.001863  -0.048299  -0.001635  -0.004781   0.002401   5.374345
    13  H    0.000658   0.002368   0.000008  -0.000045  -0.000039   0.368994
    14  H   -0.000311  -0.004804  -0.000332   0.003480  -0.000046   0.351802
    15  H    0.000021  -0.001375   0.000792  -0.000331  -0.000004   0.370896
    16  C   -0.000054  -0.000001  -0.000000   0.000000  -0.000000   0.000010
    17  H   -0.000065  -0.000000   0.000000   0.000000   0.000000   0.000000
    18  H   -0.000003   0.000000   0.000000  -0.000000   0.000000  -0.000000
    19  H    0.000001  -0.000000   0.000000   0.000000   0.000000   0.000000
    20  C   -0.000000  -0.000000  -0.000000   0.000000  -0.000000  -0.000002
    21  H   -0.000000   0.000000   0.000000  -0.000000   0.000000   0.000000
    22  H    0.000000  -0.000000   0.000000   0.000000   0.000000  -0.000000
    23  H    0.000000  -0.000000  -0.000000   0.000000   0.000000   0.000000
    24  C   -0.000009  -0.000001   0.000000   0.000000   0.000000  -0.000020
    25  H   -0.000008  -0.000000   0.000000   0.000000   0.000000  -0.000005
    26  H   -0.000005   0.000000   0.000000  -0.000000   0.000000   0.000000
    27  H   -0.000007  -0.000000   0.000000  -0.000000   0.000000  -0.000166
    28  H    0.000002   0.000099   0.000020  -0.000003   0.000018   0.000068
    29  H   -0.000000  -0.001826  -0.000059   0.000029  -0.000075   0.000077
              13         14         15         16         17         18
     1  Pt   0.002958   0.007619   0.004085  -0.017293   0.002543   0.007364
     2  P   -0.025545  -0.019856  -0.027030  -0.000106  -0.000264  -0.000012
     3  P   -0.000806   0.000016   0.000049   0.325734  -0.026139  -0.019744
     4  C   -0.001812  -0.005013   0.002329  -0.000009   0.000086  -0.000000
     5  H    0.000014  -0.000058  -0.000038  -0.000003  -0.000027  -0.000000
     6  H   -0.000299   0.003309  -0.000060   0.000000  -0.000002  -0.000000
     7  H    0.000658  -0.000311   0.000021  -0.000054  -0.000065  -0.000003
     8  C    0.002368  -0.004804  -0.001375  -0.000001  -0.000000   0.000000
     9  H    0.000008  -0.000332   0.000792  -0.000000   0.000000   0.000000
    10  H   -0.000045   0.003480  -0.000331   0.000000   0.000000  -0.000000
    11  H   -0.000039  -0.000046  -0.000004  -0.000000   0.000000   0.000000
    12  C    0.368994   0.351802   0.370896   0.000010   0.000000  -0.000000
    13  H    0.486562  -0.025948  -0.021213   0.000000  -0.000005  -0.000000
    14  H   -0.025948   0.531754  -0.026268  -0.000000  -0.000000   0.000000
    15  H   -0.021213  -0.026268   0.479289  -0.000000   0.000000   0.000000
    16  C    0.000000  -0.000000  -0.000000   5.372987   0.369672   0.351916
    17  H   -0.000005  -0.000000   0.000000   0.369672   0.483583  -0.025909
    18  H   -0.000000   0.000000   0.000000   0.351916  -0.025909   0.531029
    19  H    0.000000  -0.000000   0.000000   0.370388  -0.020913  -0.025978
    20  C   -0.000000   0.000000  -0.000000  -0.044732   0.002381  -0.005035
    21  H   -0.000000  -0.000000   0.000000  -0.005087  -0.000054   0.003493
    22  H   -0.000000   0.000000   0.000000   0.002409  -0.000038  -0.000057
    23  H    0.000000   0.000000   0.000000  -0.001623   0.000008  -0.000328
    24  C    0.000407  -0.000002  -0.000002  -0.043048  -0.001694  -0.004895
    25  H   -0.000023  -0.000001  -0.000000   0.002346   0.000003  -0.000053
    26  H   -0.000010   0.000000  -0.000000  -0.004754  -0.000305   0.003241
    27  H    0.000021  -0.000007   0.000001  -0.002089   0.000820  -0.000312
    28  H    0.000002  -0.000001   0.000006  -0.000053  -0.000004   0.000002
    29  H   -0.000001   0.000000   0.000018   0.000092   0.000003  -0.000001
              19         20         21         22         23         24
     1  Pt   0.004221  -0.015234   0.006396   0.003726   0.003364  -0.023788
     2  P    0.000052   0.000750  -0.000019   0.000039   0.000002  -0.002303
     3  P   -0.026469   0.311227  -0.016637  -0.029748  -0.028067   0.329986
     4  C   -0.000000  -0.000001   0.000000  -0.000000   0.000000   0.000015
     5  H    0.000001  -0.000000   0.000000   0.000000   0.000000   0.000004
     6  H   -0.000000   0.000000  -0.000000   0.000000  -0.000000  -0.000002
     7  H    0.000001  -0.000000  -0.000000   0.000000   0.000000  -0.000009
     8  C   -0.000000  -0.000000   0.000000  -0.000000  -0.000000  -0.000001
     9  H    0.000000  -0.000000   0.000000   0.000000  -0.000000   0.000000
    10  H    0.000000   0.000000  -0.000000   0.000000   0.000000   0.000000
    11  H    0.000000  -0.000000   0.000000   0.000000   0.000000   0.000000
    12  C    0.000000  -0.000002   0.000000  -0.000000   0.000000  -0.000020
    13  H    0.000000  -0.000000  -0.000000  -0.000000   0.000000   0.000407
    14  H   -0.000000   0.000000  -0.000000   0.000000   0.000000  -0.000002
    15  H    0.000000  -0.000000   0.000000   0.000000   0.000000  -0.000002
    16  C    0.370388  -0.044732  -0.005087   0.002409  -0.001623  -0.043048
    17  H   -0.020913   0.002381  -0.000054  -0.000038   0.000008  -0.001694
    18  H   -0.025978  -0.005035   0.003493  -0.000057  -0.000328  -0.004895
    19  H    0.478628  -0.001323  -0.000335  -0.000006   0.000826   0.002346
    20  C   -0.001323   5.395089   0.347338   0.373104   0.371896  -0.052365
    21  H   -0.000335   0.347338   0.538568  -0.026312  -0.025576  -0.004497
    22  H   -0.000006   0.373104  -0.026312   0.485772  -0.021590  -0.001692
    23  H    0.000826   0.371896  -0.025576  -0.021590   0.486680   0.002416
    24  C    0.002346  -0.052365  -0.004497  -0.001692   0.002416   5.382023
    25  H   -0.000038  -0.001342  -0.000306   0.000730  -0.000004   0.372338
    26  H   -0.000061  -0.004762   0.003613  -0.000352  -0.000031   0.351176
    27  H    0.000029   0.002407  -0.000033   0.000011  -0.000041   0.367845
    28  H    0.000026  -0.001756   0.000028  -0.000080  -0.000010   0.000118
    29  H    0.000010   0.000107  -0.000003   0.000014   0.000025   0.000038
              25         26         27         28         29
     1  Pt   0.003027   0.008198   0.001321   0.068705   0.068343
     2  P   -0.000359   0.000047  -0.000033  -0.016932   0.020491
     3  P   -0.028062  -0.020015  -0.023916   0.021093  -0.016968
     4  C    0.000005  -0.000002  -0.000017   0.000051   0.000099
     5  H    0.000000  -0.000000  -0.000004   0.000004   0.000012
     6  H   -0.000000   0.000000  -0.000007  -0.000001  -0.000000
     7  H   -0.000008  -0.000005  -0.000007   0.000002  -0.000000
     8  C   -0.000000   0.000000  -0.000000   0.000099  -0.001826
     9  H    0.000000   0.000000   0.000000   0.000020  -0.000059
    10  H    0.000000  -0.000000  -0.000000  -0.000003   0.000029
    11  H    0.000000   0.000000   0.000000   0.000018  -0.000075
    12  C   -0.000005   0.000000  -0.000166   0.000068   0.000077
    13  H   -0.000023  -0.000010   0.000021   0.000002  -0.000001
    14  H   -0.000001   0.000000  -0.000007  -0.000001   0.000000
    15  H   -0.000000  -0.000000   0.000001   0.000006   0.000018
    16  C    0.002346  -0.004754  -0.002089  -0.000053   0.000092
    17  H    0.000003  -0.000305   0.000820  -0.000004   0.000003
    18  H   -0.000053   0.003241  -0.000312   0.000002  -0.000001
    19  H   -0.000038  -0.000061   0.000029   0.000026   0.000010
    20  C   -0.001342  -0.004762   0.002407  -0.001756   0.000107
    21  H   -0.000306   0.003613  -0.000033   0.000028  -0.000003
    22  H    0.000730  -0.000352   0.000011  -0.000080   0.000014
    23  H   -0.000004  -0.000031  -0.000041  -0.000010   0.000025
    24  C    0.372338   0.351176   0.367845   0.000118   0.000038
    25  H    0.483645  -0.026583  -0.021740   0.000008   0.000003
    26  H   -0.026583   0.533403  -0.026325  -0.000001  -0.000001
    27  H   -0.021740  -0.026325   0.494829   0.000000   0.000002
    28  H    0.000008  -0.000001   0.000000   0.633676   0.265912
    29  H    0.000003  -0.000001   0.000002   0.265912   0.632511
 Mulliken charges:
               1
     1  Pt  -0.634121
     2  P    0.482718
     3  P    0.482673
     4  C   -0.675802
     5  H    0.217725
     6  H    0.184712
     7  H    0.210986
     8  C   -0.677877
     9  H    0.211899
    10  H    0.178570
    11  H    0.212021
    12  C   -0.675168
    13  H    0.213754
    14  H    0.184669
    15  H    0.218834
    16  C   -0.676703
    17  H    0.216320
    18  H    0.185282
    19  H    0.218594
    20  C   -0.677751
    21  H    0.179424
    22  H    0.214069
    23  H    0.212053
    24  C   -0.674394
    25  H    0.216421
    26  H    0.183528
    27  H    0.207413
    28  H    0.029001
    29  H    0.031149
 Sum of Mulliken charges =  -0.00000
 Mulliken charges with hydrogens summed into heavy atoms:
               1
     1  Pt  -0.573971
     2  P    0.482718
     3  P    0.482673
     4  C   -0.062379
     8  C   -0.075386
    12  C   -0.057911
    16  C   -0.056507
    20  C   -0.072206
    24  C   -0.067032
 APT charges:
               1
     1  Pt  -0.411686
     2  P   -0.016742
     3  P   -0.024840
     4  C   -1.328263
     5  H    0.425222
     6  H    0.673531
     7  H    0.289966
     8  C   -1.464341
     9  H    0.443055
    10  H    0.641728
    11  H    0.433754
    12  C   -1.339490
    13  H    0.286594
    14  H    0.670996
    15  H    0.441697
    16  C   -1.365861
    17  H    0.296316
    18  H    0.668919
    19  H    0.461662
    20  C   -1.454868
    21  H    0.645402
    22  H    0.409482
    23  H    0.458060
    24  C   -1.308349
    25  H    0.391476
    26  H    0.675400
    27  H    0.303717
    28  H    0.047769
    29  H    0.049697
 Sum of APT charges =  -0.00000
 APT charges with hydrogens summed into heavy atoms:
               1
     1  Pt  -0.314220
     2  P   -0.016742
     3  P   -0.024840
     4  C    0.060455
     8  C    0.054195
    12  C    0.059798
    16  C    0.061036
    20  C    0.058075
    24  C    0.062243
 Electronic spatial extent (au):  <R**2>=           2957.2626
 Charge=             -0.0000 electrons
 Dipole moment (field-independent basis, Debye):
    X=             -0.0478    Y=              2.8838    Z=              0.0514  Tot=              2.8847
 Quadrupole moment (field-independent basis, Debye-Ang):
   XX=            -80.6117   YY=            -92.3297   ZZ=            -92.2857
   XY=              0.0687   XZ=             -0.1782   YZ=             -0.0180
 Traceless Quadrupole moment (field-independent basis, Debye-Ang):
   XX=              7.7974   YY=             -3.9207   ZZ=             -3.8767
   XY=              0.0687   XZ=             -0.1782   YZ=             -0.0180
 Octapole moment (field-independent basis, Debye-Ang**2):
  XXX=             -0.6435  YYY=            -74.3408  ZZZ=             -1.0774  XYY=             -0.4022
  XXY=            -16.9797  XXZ=              0.4889  XZZ=              0.5653  YZZ=            -25.2705
  YYZ=              0.6657  XYZ=              0.8858
 Hexadecapole moment (field-independent basis, Debye-Ang**3):
 XXXX=          -2683.7817 YYYY=           -806.6846 ZZZZ=           -535.8628 XXXY=              1.9699
 XXXZ=             -6.1486 YYYX=              0.9752 YYYZ=              1.9636 ZZZX=              4.0850
 ZZZY=             -0.7996 XXYY=           -581.5432 XXZZ=           -542.3455 YYZZ=           -230.1856
 XXYZ=             -1.7974 YYXZ=             -2.3575 ZZXY=             -1.4233
 N-N= 8.389550668525D+02 E-N=-4.106670256021D+03  KE= 9.608187754004D+02
  Exact polarizability:   0.000   0.000   0.000   0.000   0.000   0.000
 Approx polarizability: 198.929   0.054 180.038   0.286  -0.118 167.345
 No NMR shielding tensors so no spin-rotation constants.
 Leave Link  601 at Thu Nov  7 18:18:23 2019, MaxMem=   280000000 cpu:              25.4 elap:               1.6
 (Enter /usr/g16/l701.exe)
 ... and contract with generalized density number  0.
 Compute integral second derivatives.
   1 Symmetry operations used in ECPInt.
 ECPInt:  NShTT=    3916 NPrTT=   20546 LenC2=    3772 LenP2D=   13434.
 LDataN:  DoStor=T MaxTD1= 9 Len=  602
 D2PCM: PCM CHGder 2nd derivatives, FixD1E=F FixD2E=F DoIter=F DoCFld=F I1PDM=0
 GePol: Maximum number of non-zero 2nd derivatives   =     242
 Leave Link  701 at Thu Nov  7 18:18:48 2019, MaxMem=   280000000 cpu:             440.0 elap:              25.0
 (Enter /usr/g16/l702.exe)
 L702 exits ... SP integral derivatives will be done elsewhere.
 Leave Link  702 at Thu Nov  7 18:18:48 2019, MaxMem=   280000000 cpu:               1.7 elap:               0.1
 (Enter /usr/g16/l703.exe)
 Integral derivatives from FoFJK, PRISM(SPDF).
 Compute integral second derivatives, UseDBF=F ICtDFT=           0.
 Calling FoFJK, ICntrl=    100147 FMM=F ISym2X=0 I1Cent= 0 IOpClX= 0 NMat=1 NMatS=1 NMatT=0.
 FoFJK:  IHMeth= 1 ICntrl=  100147 DoSepK=F KAlg= 0 I1Cent=           0 FoldK=F
 IRaf=         0 NMat=       1 IRICut=       1 DoRegI=T DoRafI=F ISym2E= 0 IDoP0=0 IntGTp=1.
 FoFCou: FMM=F IPFlag=           0 FMFlag=      100000 FMFlg1=         800
         NFxFlg=           0 DoJE=F BraDBF=F KetDBF=F FulRan=T
         wScrn=  0.000000 ICntrl=    100147 IOpCl=  0 I1Cent=           0 NGrid=           0
         NMat0=    1 NMatS0=      1 NMatT0=    0 NMatD0=    1 NMtDS0=    0 NMtDT0=    0
 Symmetry not used in FoFCou.
 Defaulting to unpruned grid for atomic number  78.
 Defaulting to unpruned grid for atomic number  78.
 Defaulting to unpruned grid for atomic number  78.
 Defaulting to unpruned grid for atomic number  78.
 Defaulting to unpruned grid for atomic number  78.
 Defaulting to unpruned grid for atomic number  78.
 Defaulting to unpruned grid for atomic number  78.
 Defaulting to unpruned grid for atomic number  78.
 Defaulting to unpruned grid for atomic number  78.
 Defaulting to unpruned grid for atomic number  78.
 Defaulting to unpruned grid for atomic number  78.
 Defaulting to unpruned grid for atomic number  78.
 Defaulting to unpruned grid for atomic number  78.
 Defaulting to unpruned grid for atomic number  78.
 Defaulting to unpruned grid for atomic number  78.
 Defaulting to unpruned grid for atomic number  78.
 Defaulting to unpruned grid for atomic number  78.
 Defaulting to unpruned grid for atomic number  78.
 Defaulting to unpruned grid for atomic number  78.
 Defaulting to unpruned grid for atomic number  78.
 Defaulting to unpruned grid for atomic number  78.
 Defaulting to unpruned grid for atomic number  78.
 Defaulting to unpruned grid for atomic number  78.
 Defaulting to unpruned grid for atomic number  78.
 Leave Link  703 at Thu Nov  7 18:19:49 2019, MaxMem=   280000000 cpu:            1116.2 elap:              60.9
 (Enter /usr/g16/l716.exe)
 Dipole        =-1.88079381D-02 1.13459316D+00 2.02203772D-02
 Polarizability= 0.00000000D+00 0.00000000D+00 0.00000000D+00
                 0.00000000D+00 0.00000000D+00 0.00000000D+00
 -------------------------------------------------------------------
 Center     Atomic                   Forces (Hartrees/Bohr)
 Number     Number              X              Y              Z
 -------------------------------------------------------------------
      1       78           0.000000607    0.000000258    0.000000640
      2       15          -0.000001672    0.000000173    0.000000036
      3       15           0.000000525    0.000000239   -0.000001173
      4        6          -0.000000725   -0.000000388   -0.000000004
      5        1          -0.000000456   -0.000000829    0.000000504
      6        1           0.000000426   -0.000000686    0.000000872
      7        1           0.000000471   -0.000000540    0.000000509
      8        6           0.000000050    0.000000226   -0.000000074
      9        1           0.000000061   -0.000000101   -0.000000476
     10        1           0.000000167   -0.000000171    0.000000102
     11        1          -0.000000126   -0.000000635   -0.000000126
     12        6           0.000000307   -0.000000103    0.000000057
     13        1          -0.000000263    0.000000180    0.000000321
     14        1          -0.000000133    0.000000477    0.000000874
     15        1           0.000000345    0.000000767    0.000000286
     16        6           0.000000754   -0.000001289    0.000000746
     17        1          -0.000000144   -0.000000539   -0.000000012
     18        1          -0.000000215   -0.000000527   -0.000000152
     19        1           0.000000031   -0.000000441   -0.000000410
     20        6          -0.000000510    0.000001160   -0.000000608
     21        1          -0.000000077    0.000000158   -0.000000316
     22        1           0.000000101    0.000000683   -0.000000526
     23        1          -0.000000012   -0.000000018   -0.000000777
     24        6           0.000000100    0.000000678    0.000000387
     25        1           0.000000460    0.000000702    0.000000450
     26        1           0.000000318    0.000000107    0.000000224
     27        1          -0.000000196    0.000000120    0.000000660
     28        1           0.000000430   -0.000000280   -0.000001408
     29        1          -0.000000623    0.000000619   -0.000000605
 -------------------------------------------------------------------
 Cartesian Forces:  Max     0.000001672 RMS     0.000000538
 Z-matrix is all fixed cartesians, so copy forces.
 Leave Link  716 at Thu Nov  7 18:19:49 2019, MaxMem=   280000000 cpu:               1.6 elap:               0.1
 (Enter /usr/g16/l123.exe)
 IRC-IRC-IRC-IRC-IRC-IRC-IRC-IRC-IRC-IRC-IRC-IRC-IRC-IRC-IRC-IRC-IRC-IRC
          ******** Start new reaction path calculation ********
 Current Structure is TS -> form Hessian eigenvectors.
                            Diagonalizing Hessian.
 Supplied step size of   0.1500 bohr.
    Integration on MW PES will use step size of   0.3468 sqrt(amu)*bohr.
 Point Number:   0          Path Number:   1
 Calculating another point on the path.
 Point Number  1 in FORWARD path direction.
 Using LQA Reaction Path Following.
 IRC-IRC-IRC-IRC-IRC-IRC-IRC-IRC-IRC-IRC-IRC-IRC-IRC-IRC-IRC-IRC-IRC-IRC
 Leave Link  123 at Thu Nov  7 18:19:50 2019, MaxMem=   280000000 cpu:              12.8 elap:               0.7
 (Enter /usr/g16/l202.exe)
                          Input orientation:                          
 ---------------------------------------------------------------------
 Center     Atomic      Atomic             Coordinates (Angstroms)
 Number     Number       Type             X           Y           Z
 ---------------------------------------------------------------------
      1         78           0        0.000415   -0.602701   -0.001806
      2         15           0        1.969460    0.516707    0.002963
      3         15           0       -1.965177    0.522194   -0.007712
      4          6           0        2.154453    1.780180    1.328408
      5          1           0        2.093256    1.292289    2.306015
      6          1           0        3.109308    2.312537    1.251596
      7          1           0        1.332335    2.499104    1.257345
      8          6           0        3.588722   -0.353371    0.148807
      9          1           0        3.687202   -1.066805   -0.675276
     10          1           0        4.435341    0.342654    0.127443
     11          1           0        3.610216   -0.917356    1.086553
     12          6           0        2.268513    1.529897   -1.503251
     13          1           0        1.435363    2.225895   -1.640434
     14          1           0        3.205887    2.093204   -1.432445
     15          1           0        2.308815    0.874555   -2.378597
     16          6           0       -2.517380    1.104604    1.647752
     17          1           0       -1.731081    1.720089    2.095227
     18          1           0       -3.441717    1.689410    1.580561
     19          1           0       -2.684212    0.241877    2.299534
     20          6           0       -3.512076   -0.264976   -0.627990
     21          1           0       -4.371564    0.412702   -0.568052
     22          1           0       -3.368875   -0.571076   -1.669023
     23          1           0       -3.717269   -1.163435   -0.037930
     24          6           0       -1.993690    2.096579   -0.961078
     25          1           0       -1.740464    1.892952   -2.006190
     26          1           0       -2.974702    2.583450   -0.917465
     27          1           0       -1.237655    2.775103   -0.553556
     28          1           0       -0.445348   -2.366340   -0.020081
     29          1           0        0.419693   -2.372324    0.001281
 ---------------------------------------------------------------------
                    Distance matrix (angstroms):
                    1          2          3          4          5
     1  Pt   0.000000
     2  P    2.265003   0.000000
     3  P    2.264724   3.934655   0.000000
     4  C    3.476704   1.840486   4.509889   0.000000
     5  H    3.646506   2.433290   4.734686   1.094302   0.000000
     6  H    4.442392   2.466443   5.526444   1.095926   1.784676
     7  H    3.602870   2.430905   4.047484   1.094431   1.770625
     8  C    3.600111   1.843995   5.624669   2.828539   3.098090
     9  H    3.776421   2.432727   5.909310   3.803866   4.122388
    10  H    4.536405   2.475148   6.404462   2.951483   3.336666
    11  H    3.783411   2.433678   5.861291   3.074808   2.944620
    12  C    3.456382   1.839746   4.601763   2.844986   3.820690
    13  H    3.570033   2.430501   4.139088   3.087034   4.108394
    14  H    4.426023   2.464648   5.589081   2.970826   3.981895
    15  H    3.627690   2.432087   4.900231   3.819146   4.708137
    16  C    3.460523   4.814840   1.839753   4.731216   4.661170
    17  H    3.576448   4.418110   2.431483   3.960933   3.853959
    18  H    4.427859   5.757159   2.462758   5.602583   5.596420
    19  H    3.635478   5.196771   2.432895   5.169346   4.891586
    20  C    3.583819   5.572824   1.843170   6.334011   6.515612
    21  H    4.523923   6.367531   2.473190   6.932204   7.129364
[...]
    24  C    2.947617   3.079309   3.811578   0.000000
    25  H    3.329525   2.946094   4.127349   1.094012   0.000000
    26  H    2.628609   3.282502   3.941588   1.096167   1.786375
    27  H    3.940357   4.111351   4.695408   1.093953   1.770742
    28  H    5.283347   4.140001   3.804188   5.500241   5.484397
    29  H    5.892891   4.736797   4.479727   5.815243   5.776642
                   26         27         28         29
    26  H    0.000000
    27  H    1.787734   0.000000
    28  H    6.291446   5.952723   0.000000
    29  H    6.681420   6.156829   0.741346   0.000000
 Symmetry turned off by external request.
 Stoichiometry    C6H20P2Pt
 Framework group  C1[X(C6H20P2Pt)]
 Deg. of freedom    81
 Full point group                 C1      NOp   1
 Rotational constants (GHZ):           1.4296797           0.4168603           0.3919514
 Leave Link  202 at Thu Nov  7 18:58:05 2019, MaxMem=   280000000 cpu:               1.3 elap:               0.1
 (Enter /usr/g16/l601.exe)
 Copying SCF densities to generalized density rwf, IOpCl= 0 IROHF=0.

 **********************************************************************

            Population analysis using the SCF density.

 **********************************************************************

 Alpha  occ. eigenvalues --  -78.04282 -78.04258 -10.52641 -10.52633 -10.52625
 Alpha  occ. eigenvalues --  -10.52607 -10.52605 -10.52599  -6.85815  -6.85791
 Alpha  occ. eigenvalues --   -4.97184  -4.97178  -4.97158  -4.97155  -4.96976
 Alpha  occ. eigenvalues --   -4.96952  -3.99407  -2.22034  -2.19659  -2.19268
 Alpha  occ. eigenvalues --   -0.85456  -0.85282  -0.77351  -0.77323  -0.77300
 Alpha  occ. eigenvalues --   -0.77284  -0.61894  -0.60637  -0.50726  -0.50078
 Alpha  occ. eigenvalues --   -0.48722  -0.48616  -0.48596  -0.48530  -0.48314
 Alpha  occ. eigenvalues --   -0.45919  -0.45876  -0.45806  -0.45786  -0.44184
 Alpha  occ. eigenvalues --   -0.44153  -0.39952  -0.38529  -0.38507  -0.38045
 Alpha  occ. eigenvalues --   -0.37946  -0.33080  -0.27595  -0.25532  -0.25432
 Alpha  occ. eigenvalues --   -0.23295  -0.23209
 Alpha virt. eigenvalues --    0.00930   0.01427   0.03515   0.04898   0.08390
 Alpha virt. eigenvalues --    0.10028   0.10788   0.11697   0.12502   0.12684
 Alpha virt. eigenvalues --    0.13453   0.14812   0.15288   0.15780   0.16438
 Alpha virt. eigenvalues --    0.17057   0.18165   0.19416   0.21064   0.21955
 Alpha virt. eigenvalues --    0.22322   0.22765   0.23003   0.23500   0.23852
 Alpha virt. eigenvalues --    0.24180   0.24761   0.25663   0.26025   0.26211
 Alpha virt. eigenvalues --    0.26575   0.26863   0.28772   0.29981   0.31698
 Alpha virt. eigenvalues --    0.32754   0.35325   0.36610   0.36937   0.46597
 Alpha virt. eigenvalues --    0.47333   0.47532   0.49119   0.50878   0.51582
 Alpha virt. eigenvalues --    0.53057   0.54266   0.57310   0.57695   0.63389
 Alpha virt. eigenvalues --    0.66207   0.66942   0.67787   0.68405   0.68964
 Alpha virt. eigenvalues --    0.70780   0.71203   0.71922   0.72506   0.73032
 Alpha virt. eigenvalues --    0.75259   0.78381   0.80817   0.81913   0.82981
 Alpha virt. eigenvalues --    0.83806   0.85246   0.85733   0.86969   0.87347
 Alpha virt. eigenvalues --    0.87469   0.88329   0.89761   0.92888   0.93982
 Alpha virt. eigenvalues --    0.95707   0.95877   0.96067   0.96899   0.97129
 Alpha virt. eigenvalues --    0.97907   0.99619   0.99753   1.00046   1.01542
 Alpha virt. eigenvalues --    1.01700   1.01905   1.02141   1.02712   1.05284
 Alpha virt. eigenvalues --    1.06834   1.08551   1.09681   1.11364   1.13422
 Alpha virt. eigenvalues --    1.14644   1.14960   1.17049   1.20252   1.37334
 Alpha virt. eigenvalues --    1.38791   1.40954   1.42048   1.43160   1.45914
 Alpha virt. eigenvalues --    1.47795   1.54349   1.55123   1.65012   1.71291
 Alpha virt. eigenvalues --    1.71310   1.75610   1.76665   1.77433   1.77750
 Alpha virt. eigenvalues --    1.84519   1.85937   1.87707   1.89926   1.96833
 Alpha virt. eigenvalues --    1.99388   2.15130   2.15542   2.26433   2.26578
 Alpha virt. eigenvalues --    2.26686   2.26730   2.29784   2.30246   2.31771
 Alpha virt. eigenvalues --    2.31829   2.32452   2.32515   2.32745   2.32994
 Alpha virt. eigenvalues --    2.35070   2.35296   2.35336   2.35977   2.62934
 Alpha virt. eigenvalues --   46.21586  46.25582  46.36877 115.18631
          Condensed to atoms (all electrons):
               1          2          3          4          5          6
     1  Pt  18.110548   0.281846   0.285660  -0.034859   0.002685   0.011257
     2  P    0.281846  13.534415  -0.040933   0.341796  -0.026514  -0.022632
     3  P    0.285660  -0.040933  13.523411  -0.000582   0.000020   0.000010
     4  C   -0.034859   0.341796  -0.000582   5.379854   0.370749   0.350634
     5  H    0.002685  -0.026514   0.000020   0.370749   0.478865  -0.026485
     6  H    0.011257  -0.022632   0.000010   0.350634  -0.026485   0.532615
     7  H    0.000164  -0.023174  -0.000329   0.369344  -0.020637  -0.025778
     8  C   -0.000859   0.286444   0.000372  -0.048598  -0.001158  -0.005092
     9  H    0.002574  -0.029695   0.000004   0.002376  -0.000001  -0.000052
    10  H    0.006417  -0.015856  -0.000006  -0.004775  -0.000341   0.003517
    11  H    0.002822  -0.030253   0.000009  -0.001616   0.000793  -0.000351
    12  C   -0.032269   0.339558  -0.000250  -0.042953   0.002291  -0.004486
    13  H    0.000183  -0.023795  -0.000273  -0.001935   0.000019  -0.000310
    14  H    0.010669  -0.022114  -0.000000  -0.004433  -0.000063   0.002973
    15  H    0.003225  -0.026652   0.000043   0.002295  -0.000038  -0.000067
    16  C   -0.025880   0.000099   0.332517  -0.000004  -0.000000   0.000000
    17  H    0.000576  -0.000067  -0.024627   0.000004  -0.000008  -0.000000
    18  H    0.009652  -0.000007  -0.021061   0.000000  -0.000000  -0.000000
    19  H    0.003417   0.000028  -0.026923   0.000000   0.000000   0.000000
    20  C   -0.001840   0.000402   0.289590  -0.000000  -0.000000   0.000000
    21  H    0.006604  -0.000006  -0.016215  -0.000000   0.000000  -0.000000
    22  H    0.003177   0.000017  -0.030297  -0.000000   0.000000   0.000000
    23  H    0.002255   0.000001  -0.028956   0.000000   0.000000   0.000000
    24  C   -0.040587  -0.001060   0.348630   0.000019   0.000001  -0.000000
    25  H    0.001865  -0.000016  -0.026061   0.000000   0.000000  -0.000000
    26  H    0.012083   0.000021  -0.023390  -0.000000  -0.000000   0.000000
    27  H    0.000013  -0.000430  -0.022690   0.000001   0.000001  -0.000001
    28  H    0.004984  -0.001103   0.002309   0.000001   0.000000  -0.000000
    29  H    0.004651   0.002148  -0.001074   0.000004   0.000001  -0.000000
               7          8          9         10         11         12
     1  Pt   0.000164  -0.000859   0.002574   0.006417   0.002822  -0.032269
     2  P   -0.023174   0.286444  -0.029695  -0.015856  -0.030253   0.339558
     3  P   -0.000329   0.000372   0.000004  -0.000006   0.000009  -0.000250
     4  C    0.369344  -0.048598   0.002376  -0.004775  -0.001616  -0.042953
     5  H   -0.020637  -0.001158  -0.000001  -0.000341   0.000793   0.002291
     6  H   -0.025778  -0.005092  -0.000052   0.003517  -0.000351  -0.004486
     7  H    0.478662   0.002374  -0.000039  -0.000041   0.000007  -0.001983
     8  C    0.002374   5.408485   0.372681   0.349515   0.372994  -0.047207
     9  H   -0.000039   0.372681   0.488145  -0.025620  -0.021202  -0.001516
    10  H   -0.000041   0.349515  -0.025620   0.530631  -0.025747  -0.004873
    11  H    0.000007   0.372994  -0.021202  -0.025747   0.487394   0.002394
    12  C   -0.001983  -0.047207  -0.001516  -0.004873   0.002394   5.376859
    13  H    0.000751   0.002384   0.000004  -0.000049  -0.000038   0.369873
    14  H   -0.000291  -0.005208  -0.000332   0.003487  -0.000057   0.350943
    15  H    0.000025  -0.001102   0.000824  -0.000355  -0.000001   0.370475
    16  C   -0.000003  -0.000000  -0.000000   0.000000   0.000000   0.000003
    17  H   -0.000071  -0.000000   0.000000   0.000000   0.000000   0.000000
    18  H   -0.000000   0.000000   0.000000  -0.000000   0.000000  -0.000000
    19  H    0.000001  -0.000000   0.000000   0.000000   0.000000  -0.000000
    20  C   -0.000000  -0.000000  -0.000000   0.000000  -0.000000  -0.000001
    21  H    0.000000   0.000000   0.000000  -0.000000   0.000000   0.000000
    22  H    0.000000  -0.000000   0.000000   0.000000   0.000000   0.000000
    23  H    0.000000  -0.000000   0.000000   0.000000   0.000000   0.000000
    24  C    0.000001   0.000000   0.000000  -0.000000   0.000000  -0.000005
    25  H    0.000000  -0.000000   0.000000   0.000000   0.000000  -0.000002
    26  H   -0.000001   0.000000   0.000000  -0.000000   0.000000  -0.000000
    27  H   -0.000114  -0.000000   0.000000  -0.000000   0.000000  -0.000012
    28  H    0.000000   0.000016   0.000003  -0.000000   0.000003   0.000003
    29  H   -0.000000  -0.000184  -0.000005   0.000002  -0.000009   0.000004
              13         14         15         16         17         18
     1  Pt   0.000183   0.010669   0.003225  -0.025880   0.000576   0.009652
     2  P   -0.023795  -0.022114  -0.026652   0.000099  -0.000067  -0.000007
     3  P   -0.000273  -0.000000   0.000043   0.332517  -0.024627  -0.021061
     4  C   -0.001935  -0.004433   0.002295  -0.000004   0.000004   0.000000
     5  H    0.000019  -0.000063  -0.000038  -0.000000  -0.000008  -0.000000
     6  H   -0.000310   0.002973  -0.000067   0.000000  -0.000000  -0.000000
     7  H    0.000751  -0.000291   0.000025  -0.000003  -0.000071  -0.000000
     8  C    0.002384  -0.005208  -0.001102  -0.000000  -0.000000   0.000000
     9  H    0.000004  -0.000332   0.000824  -0.000000   0.000000   0.000000
    10  H   -0.000049   0.003487  -0.000355   0.000000   0.000000  -0.000000
    11  H   -0.000038  -0.000057  -0.000001   0.000000   0.000000   0.000000
    12  C    0.369873   0.350943   0.370475   0.000003   0.000000  -0.000000
    13  H    0.478504  -0.025944  -0.020923   0.000000  -0.000001  -0.000000
    14  H   -0.025944   0.531882  -0.026376  -0.000000   0.000000   0.000000
    15  H   -0.020923  -0.026376   0.479509  -0.000000   0.000000   0.000000
    16  C    0.000000  -0.000000  -0.000000   5.377800   0.370039   0.350947
    17  H   -0.000001   0.000000   0.000000   0.370039   0.477971  -0.025848
    18  H   -0.000000   0.000000   0.000000   0.350947  -0.025848   0.530674
    19  H    0.000000  -0.000000   0.000000   0.370390  -0.020914  -0.026082
    20  C   -0.000000   0.000000  -0.000000  -0.045511   0.002412  -0.005289
    21  H    0.000000  -0.000000   0.000000  -0.005015  -0.000056   0.003463
    22  H    0.000000   0.000000   0.000000   0.002417  -0.000038  -0.000063
    23  H    0.000000   0.000000   0.000000  -0.001415   0.000004  -0.000324
    24  C    0.000051  -0.000000  -0.000000  -0.043860  -0.001843  -0.004348
    25  H   -0.000022  -0.000000  -0.000001   0.002281   0.000011  -0.000058
    26  H   -0.000002   0.000000  -0.000000  -0.004503  -0.000329   0.002982
    27  H   -0.000103  -0.000001   0.000002  -0.001980   0.000812  -0.000278
    28  H    0.000000  -0.000000   0.000001  -0.000001   0.000000   0.000000
    29  H    0.000000  -0.000000   0.000001   0.000004   0.000000  -0.000000
              19         20         21         22         23         24
     1  Pt   0.003417  -0.001840   0.006604   0.003177   0.002255  -0.040587
     2  P    0.000028   0.000402  -0.000006   0.000017   0.000001  -0.001060
     3  P   -0.026923   0.289590  -0.016215  -0.030297  -0.028956   0.348630
     4  C    0.000000  -0.000000  -0.000000  -0.000000   0.000000   0.000019
     5  H    0.000000  -0.000000   0.000000   0.000000   0.000000   0.000001
     6  H    0.000000   0.000000  -0.000000   0.000000   0.000000  -0.000000
     7  H    0.000001  -0.000000   0.000000   0.000000   0.000000   0.000001
     8  C   -0.000000  -0.000000   0.000000  -0.000000  -0.000000   0.000000
     9  H    0.000000  -0.000000   0.000000   0.000000   0.000000   0.000000
    10  H    0.000000   0.000000  -0.000000   0.000000   0.000000  -0.000000
    11  H    0.000000  -0.000000   0.000000   0.000000   0.000000   0.000000
    12  C   -0.000000  -0.000001   0.000000   0.000000   0.000000  -0.000005
    13  H    0.000000  -0.000000   0.000000   0.000000   0.000000   0.000051
    14  H   -0.000000   0.000000  -0.000000   0.000000   0.000000  -0.000000
    15  H    0.000000  -0.000000   0.000000   0.000000   0.000000  -0.000000
    16  C    0.370390  -0.045511  -0.005015   0.002417  -0.001415  -0.043860
    17  H   -0.020914   0.002412  -0.000056  -0.000038   0.000004  -0.001843
    18  H   -0.026082  -0.005289   0.003463  -0.000063  -0.000324  -0.004348
    19  H    0.480723  -0.001045  -0.000358  -0.000003   0.000847   0.002299
    20  C   -0.001045   5.405941   0.349602   0.372815   0.372207  -0.049572
    21  H   -0.000358   0.349602   0.530444  -0.025849  -0.025525  -0.004607
    22  H   -0.000003   0.372815  -0.025849   0.485309  -0.021184  -0.001719
    23  H    0.000847   0.372207  -0.025525  -0.021184   0.488571   0.002355
    24  C    0.002299  -0.049572  -0.004607  -0.001719   0.002355   5.380014
    25  H   -0.000037  -0.001273  -0.000333   0.000776   0.000003   0.371129
    26  H   -0.000066  -0.004918   0.003466  -0.000359  -0.000049   0.350298
    27  H    0.000027   0.002350  -0.000035   0.000008  -0.000039   0.369135
    28  H    0.000002  -0.000188   0.000002  -0.000010  -0.000000   0.000005
    29  H    0.000001   0.000015  -0.000000   0.000002   0.000004   0.000001
              25         26         27         28         29
     1  Pt   0.001865   0.012083   0.000013   0.004984   0.004651
     2  P   -0.000016   0.000021  -0.000430  -0.001103   0.002148
     3  P   -0.026061  -0.023390  -0.022690   0.002309  -0.001074
     4  C    0.000000  -0.000000   0.000001   0.000001   0.000004
     5  H    0.000000  -0.000000   0.000001   0.000000   0.000001
     6  H   -0.000000   0.000000  -0.000001  -0.000000  -0.000000
     7  H    0.000000  -0.000001  -0.000114   0.000000  -0.000000
     8  C   -0.000000   0.000000  -0.000000   0.000016  -0.000184
     9  H    0.000000   0.000000   0.000000   0.000003  -0.000005
    10  H    0.000000  -0.000000  -0.000000  -0.000000   0.000002
    11  H    0.000000   0.000000   0.000000   0.000003  -0.000009
    12  C   -0.000002  -0.000000  -0.000012   0.000003   0.000004
    13  H   -0.000022  -0.000002  -0.000103   0.000000   0.000000
    14  H   -0.000000   0.000000  -0.000001  -0.000000  -0.000000
    15  H   -0.000001  -0.000000   0.000002   0.000001   0.000001
    16  C    0.002281  -0.004503  -0.001980  -0.000001   0.000004
    17  H    0.000011  -0.000329   0.000812   0.000000   0.000000
    18  H   -0.000058   0.002982  -0.000278   0.000000  -0.000000
    19  H   -0.000037  -0.000066   0.000027   0.000002   0.000001
    20  C   -0.001273  -0.004918   0.002350  -0.000188   0.000015
    21  H   -0.000333   0.003466  -0.000035   0.000002  -0.000000
    22  H    0.000776  -0.000359   0.000008  -0.000010   0.000002
    23  H    0.000003  -0.000049  -0.000039  -0.000000   0.000004
    24  C    0.371129   0.350298   0.369135   0.000005   0.000001
    25  H    0.478653  -0.026604  -0.020890   0.000001   0.000000
    26  H   -0.026604   0.533739  -0.025908  -0.000000  -0.000000
    27  H   -0.020890  -0.025908   0.479995  -0.000000   0.000000
    28  H    0.000001  -0.000000  -0.000000   0.588329   0.389638
    29  H    0.000000  -0.000000   0.000000   0.389638   0.587838
 Mulliken charges:
               1
     1  Pt  -0.631033
     2  P    0.477532
     3  P    0.481091
     4  C   -0.677324
     5  H    0.219820
     6  H    0.184247
     7  H    0.221131
     8  C   -0.685855
     9  H    0.211850
    10  H    0.184095
    11  H    0.212859
    12  C   -0.676845
    13  H    0.221624
    14  H    0.184866
    15  H    0.219115
    16  C   -0.678325
    17  H    0.221972
    18  H    0.185641
    19  H    0.217693
    20  C   -0.685698
    21  H    0.184416
    22  H    0.215002
    23  H    0.211244
    24  C   -0.676336
    25  H    0.220577
    26  H    0.183539
    27  H    0.220138
    28  H    0.016006
    29  H    0.016959
 Sum of Mulliken charges =  -0.00000
 Mulliken charges with hydrogens summed into heavy atoms:
               1
     1  Pt  -0.598068
     2  P    0.477532
     3  P    0.481091
     4  C   -0.052126
     8  C   -0.077051
    12  C   -0.051240
    16  C   -0.053020
    20  C   -0.075036
    24  C   -0.052081
 APT charges:
               1
     1  Pt  -0.414877
     2  P    0.028287
     3  P    0.025039
     4  C   -1.332366
     5  H    0.421892
     6  H    0.689803
     7  H    0.284780
     8  C   -1.487493
     9  H    0.441376
    10  H    0.667487
    11  H    0.430377
    12  C   -1.346097
    13  H    0.283072
    14  H    0.688590
    15  H    0.437533
    16  C   -1.367498
    17  H    0.290097
    18  H    0.687257
    19  H    0.455470
    20  C   -1.478892
    21  H    0.670115
    22  H    0.406076
    23  H    0.457486
    24  C   -1.315034
    25  H    0.396010
    26  H    0.691132
    27  H    0.292229
    28  H   -0.014456
    29  H    0.012605
 Sum of APT charges =  -0.00000
 APT charges with hydrogens summed into heavy atoms:
               1
     1  Pt  -0.416728
     2  P    0.028287
     3  P    0.025039
     4  C    0.064109
     8  C    0.051746
    12  C    0.063098
    16  C    0.065326
    20  C    0.054786
    24  C    0.064337
 Electronic spatial extent (au):  <R**2>=           3182.9008
 Charge=             -0.0000 electrons
 Dipole moment (field-independent basis, Debye):
    X=             -0.0268    Y=              2.1372    Z=              0.0374  Tot=              2.1377
 Quadrupole moment (field-independent basis, Debye-Ang):
   XX=            -75.8312   YY=            -91.4595   ZZ=            -92.1372
   XY=              0.0422   XZ=             -0.0880   YZ=              0.0257
 Traceless Quadrupole moment (field-independent basis, Debye-Ang):
   XX=             10.6448   YY=             -4.9835   ZZ=             -5.6613
   XY=              0.0422   XZ=             -0.0880   YZ=              0.0257
 Octapole moment (field-independent basis, Debye-Ang**2):
  XXX=             -0.3099  YYY=            -68.2502  ZZZ=             -1.6910  XYY=             -0.2487
  XXY=            -17.9828  XXZ=              0.1078  XZZ=              0.4359  YZZ=            -23.8388
  YYZ=              0.3224  XYZ=              0.7631
 Hexadecapole moment (field-independent basis, Debye-Ang**3):
 XXXX=          -2966.0428 YYYY=           -756.5901 ZZZZ=           -535.9667 XXXY=             -0.2356
 XXXZ=             -4.5845 YYYX=             -0.9056 YYYZ=             -1.8970 ZZZX=              4.2327
 ZZZY=             -4.3953 XXYY=           -623.1500 XXZZ=           -595.2534 YYZZ=           -220.0796
 XXYZ=             -2.6965 YYXZ=             -2.7474 ZZXY=             -2.1771
 N-N= 8.224902594541D+02 E-N=-4.074512429110D+03  KE= 9.609646102357D+02
  Exact polarizability:   0.000   0.000   0.000   0.000   0.000   0.000
 Approx polarizability: 211.515  -0.051 170.342   0.297  -0.326 172.151
 No NMR shielding tensors so no spin-rotation constants.
 Leave Link  601 at Thu Nov  7 18:58:05 2019, MaxMem=   280000000 cpu:               2.9 elap:               0.2
 (Enter /usr/g16/l9999.exe)

 This type of calculation cannot be archived.


 LAWS OF PROGRAMMING DEFINITION:  A WORKING PROGRAM
                                  IS ONE THAT HAS
                                  ONLY UNOBSERVED
                                  BUGS.
 Job cpu time:       0 days 16 hours 53 minutes 42.9 seconds.
 Elapsed time:       0 days  0 hours 46 minutes 25.8 seconds.
 File lengths (MBytes):  RWF=    235 Int=      0 D2E=      0 Chk=     16 Scr=      1
 Normal termination of Gaussian 16 at Thu Nov  7 18:58:05 2019.
