 Entering Gaussian System, Link 0=g16
 Input=Pt_preR.gjf
 Output=Pt_preR.log
 Initial command:
 /usr/g16/l1.exe "/scratch/wsr/gaussian/Gau-34657.inp" -scrdir="/scratch/wsr/gaussian/"
 Entering Link 1 = /usr/g16/l1.exe PID=     34658.
  
 Copyright (c) 1988,1990,1992,1993,1995,1998,2003,2009,2016,
            Gaussian, Inc.  All Rights Reserved.
  
 This is part of the Gaussian(R) 16 program.  It is based on
 the Gaussian(R) 09 system (copyright 2009, Gaussian, Inc.),
 the Gaussian(R) 03 system (copyright 2003, Gaussian, Inc.),
 the Gaussian(R) 98 system (copyright 1998, Gaussian, Inc.),
 the Gaussian(R) 94 system (copyright 1995, Gaussian, Inc.),
 the Gaussian 92(TM) system (copyright 1992, Gaussian, Inc.),
 the Gaussian 90(TM) system (copyright 1990, Gaussian, Inc.),
 the Gaussian 88(TM) system (copyright 1988, Gaussian, Inc.),
 the Gaussian 86(TM) system (copyright 1986, Carnegie Mellon
 University), and the Gaussian 82(TM) system (copyright 1983,
 Carnegie Mellon University). Gaussian is a federally registered
 trademark of Gaussian, Inc.
  
 This software contains proprietary and confidential information,
 including trade secrets, belonging to Gaussian, Inc.
  
 This software is provided under written license and may be
 used, copied, transmitted, or stored only in accord with that
 written license.
  
 The following legend is applicable only to US Government
 contracts under FAR:
  
                    RESTRICTED RIGHTS LEGEND
  
 Use, reproduction and disclosure by the US Government is
 subject to restrictions as set forth in subparagraphs (a)
 and (c) of the Commercial Computer Software - Restricted
 Rights clause in FAR 52.227-19.
  
 Gaussian, Inc.
 340 Quinnipiac St., Bldg. 40, Wallingford CT 06492
  
  
 ---------------------------------------------------------------
 Warning -- This program may not be used in any manner that
 competes with the business of Gaussian, Inc. or will provide
 assistance to any competitor of Gaussian, Inc.  The licensee
 of this program is prohibited from giving any competitor of
 Gaussian, Inc. access to this program.  By using this program,
 the user acknowledges that Gaussian, Inc. is engaged in the
 business of creating and licensing software in the field of
 computational chemistry and represents and warrants to the
 licensee that it is not a competitor of Gaussian, Inc. and that
 it will not use this program in any manner prohibited above.
 ---------------------------------------------------------------
  

 Cite this work as:
 Gaussian 16, Revision A.03,
 M. J. Frisch, G. W. Trucks, H. B. Schlegel, G. E. Scuseria, 
 M. A. Robb, J. R. Cheeseman, G. Scalmani, V. Barone, 
 G. A. Petersson, H. Nakatsuji, X. Li, M. Caricato, A. V. Marenich, 
 J. Bloino, B. G. Janesko, R. Gomperts, B. Mennucci, H. P. Hratchian, 
 J. V. Ortiz, A. F. Izmaylov, J. L. Sonnenberg, D. Williams-Young, 
 F. Ding, F. Lipparini, F. Egidi, J. Goings, B. Peng, A. Petrone, 
 T. Henderson, D. Ranasinghe, V. G. Zakrzewski, J. Gao, N. Rega, 
 G. Zheng, W. Liang, M. Hada, M. Ehara, K. Toyota, R. Fukuda, 
 J. Hasegawa, M. Ishida, T. Nakajima, Y. Honda, O. Kitao, H. Nakai, 
 T. Vreven, K. Throssell, J. A. Montgomery, Jr., J. E. Peralta, 
 F. Ogliaro, M. J. Bearpark, J. J. Heyd, E. N. Brothers, K. N. Kudin, 
 V. N. Staroverov, T. A. Keith, R. Kobayashi, J. Normand, 
 K. Raghavachari, A. P. Rendell, J. C. Burant, S. S. Iyengar, 
 J. Tomasi, M. Cossi, J. M. Millam, M. Klene, C. Adamo, R. Cammi, 
 J. W. Ochterski, R. L. Martin, K. Morokuma, O. Farkas, 
 J. B. Foresman, and D. J. Fox, Gaussian, Inc., Wallingford CT, 2016.
 
 ******************************************
 Gaussian 16:  ES64L-G16RevA.03 25-Dec-2016
                30-Oct-2019 
 ******************************************
 %chk=Pt_preR.chk
 %nproc=24
 Will use up to   24 processors via shared memory.
 ------------------------------------------------------------
 #p b3lyp/genecp opt freq em=gd3bj scrf=(smd,solvent=benzene)
 ------------------------------------------------------------
 1/18=20,19=15,26=3,38=1/1,3;
 2/9=110,12=2,17=6,18=5,40=1/2;
 3/5=7,11=2,16=1,17=8,25=1,30=1,70=32201,71=1,72=12,74=-5,124=41/1,2,3;
 4//1;
 5/5=2,38=5,53=12/2;
 6/7=2,8=2,9=2,10=2,28=1/1;
 7//1,2,3,16;
 1/18=20,19=15,26=3/3(2);
 2/9=110/2;
 99//99;
 2/9=110/2;
 3/5=7,6=1,11=2,16=1,17=8,25=1,30=1,70=32205,71=1,72=12,74=-5,82=7,124=41/1,2,3;
 4/5=5,16=3,69=1/1;
 5/5=2,38=5,53=12/2;
 7//1,2,3,16;
 1/18=20,19=15,26=3/3(-5);
 2/9=110/2;
 6/7=2,8=2,9=2,10=2,19=2,28=1/1;
 99/9=1/99;
 Leave Link    1 at Wed Oct 30 13:05:08 2019, MaxMem=           0 cpu:               2.3 elap:               0.1
 (Enter /usr/g16/l101.exe)
 -------------------
 Title Card Required
 -------------------
 Symbolic Z-matrix:
 Charge =  0 Multiplicity = 1
 Pt                   -0.39916   0.52521   0. 
 P                     1.94084   0.52521   0. 
 P                    -2.73916   0.52521   0. 
 C                     2.54751   2.24008  -0.05988 
 H                     2.19084   2.77466   0.79563 
 H                     3.61751   2.24008  -0.05988 
 H                     2.19084   2.71368  -0.95061 
 C                     2.54751  -0.28036   1.51506 
 H                     2.18923  -1.28795   1.55124 
 H                     3.6175   -0.28211   1.51413 
 H                     2.19246   0.25536   2.37054 
 C                     2.54751  -0.38408  -1.45518 
 H                     2.18926   0.0884   -2.34586 
 H                     3.6175   -0.38245  -1.4562 
 H                     2.19242  -1.3928   -1.41899 
 C                    -3.34583  -1.18967   0.05955 
 H                    -2.98916  -1.66345   0.95018 
 H                    -4.41583  -1.18967   0.05955 
 H                    -2.98916  -1.72409  -0.79607 
 C                    -3.34583   1.33108  -1.5149 
 H                    -4.41583   1.33107  -1.5149 
 H                    -2.98916   2.33927  -1.54992 
 H                    -2.98916   0.79666  -2.37052 
 C                    -3.34583   1.43422   1.45535 
 H                    -2.98916   2.44242   1.42034 
 H                    -4.41583   1.43422   1.45535 
 H                    -2.98916   0.96045   2.34598 
 
 ITRead=  0  0  0  0  0  0  0  0  0  0  0  0  0  0  0  0  0  0  0  0
 ITRead=  0  0  0  0  0  0  0
 MicOpt= -1 -1 -1 -1 -1 -1 -1 -1 -1 -1 -1 -1 -1 -1 -1 -1 -1 -1 -1 -1
 MicOpt= -1 -1 -1 -1 -1 -1 -1
 NAtoms=     27 NQM=       27 NQMF=       0 NMMI=      0 NMMIF=      0
                NMic=       0 NMicF=      0.
                    Isotopes and Nuclear Properties:
 (Nuclear quadrupole moments (NQMom) in fm**2, nuclear magnetic moments (NMagM)
  in nuclear magnetons)

  Atom         1           2           3           4           5           6           7           8           9          10
 IAtWgt=         195          31          31          12           1           1           1          12           1           1
 AtmWgt= 194.9648000  30.9737634  30.9737634  12.0000000   1.0078250   1.0078250   1.0078250  12.0000000   1.0078250   1.0078250
 NucSpn=           1           1           1           0           1           1           1           0           1           1
 AtZEff=  -0.0000000  -0.0000000  -0.0000000  -0.0000000  -0.0000000  -0.0000000  -0.0000000  -0.0000000  -0.0000000  -0.0000000
 NQMom=    0.0000000   0.0000000   0.0000000   0.0000000   0.0000000   0.0000000   0.0000000   0.0000000   0.0000000   0.0000000
 NMagM=    0.6095000   1.1316000   1.1316000   0.0000000   2.7928460   2.7928460   2.7928460   0.0000000   2.7928460   2.7928460
 AtZNuc=  78.0000000  15.0000000  15.0000000   6.0000000   1.0000000   1.0000000   1.0000000   6.0000000   1.0000000   1.0000000

  Atom        11          12          13          14          15          16          17          18          19          20
 IAtWgt=           1          12           1           1           1          12           1           1           1          12
 AtmWgt=   1.0078250  12.0000000   1.0078250   1.0078250   1.0078250  12.0000000   1.0078250   1.0078250   1.0078250  12.0000000
 NucSpn=           1           0           1           1           1           0           1           1           1           0
 AtZEff=  -0.0000000  -0.0000000  -0.0000000  -0.0000000  -0.0000000  -0.0000000  -0.0000000  -0.0000000  -0.0000000  -0.0000000
 NQMom=    0.0000000   0.0000000   0.0000000   0.0000000   0.0000000   0.0000000   0.0000000   0.0000000   0.0000000   0.0000000
 NMagM=    2.7928460   0.0000000   2.7928460   2.7928460   2.7928460   0.0000000   2.7928460   2.7928460   2.7928460   0.0000000
 AtZNuc=   1.0000000   6.0000000   1.0000000   1.0000000   1.0000000   6.0000000   1.0000000   1.0000000   1.0000000   6.0000000

  Atom        21          22          23          24          25          26          27
 IAtWgt=           1           1           1          12           1           1           1
 AtmWgt=   1.0078250   1.0078250   1.0078250  12.0000000   1.0078250   1.0078250   1.0078250
 NucSpn=           1           1           1           0           1           1           1
 AtZEff=  -0.0000000  -0.0000000  -0.0000000  -0.0000000  -0.0000000  -0.0000000  -0.0000000
 NQMom=    0.0000000   0.0000000   0.0000000   0.0000000   0.0000000   0.0000000   0.0000000
 NMagM=    2.7928460   2.7928460   2.7928460   0.0000000   2.7928460   2.7928460   2.7928460
 AtZNuc=   1.0000000   1.0000000   1.0000000   6.0000000   1.0000000   1.0000000   1.0000000
 Leave Link  101 at Wed Oct 30 13:05:08 2019, MaxMem=   140000000 cpu:               3.8 elap:               0.2
 (Enter /usr/g16/l103.exe)

 GradGradGradGradGradGradGradGradGradGradGradGradGradGradGradGradGradGrad
 Berny optimization.
 Initialization pass.
                           ----------------------------
                           !    Initial Parameters    !
                           ! (Angstroms and Degrees)  !
 --------------------------                            --------------------------
 ! Name  Definition              Value          Derivative Info.                !
 --------------------------------------------------------------------------------
 ! R1    R(1,2)                  2.34           estimate D2E/DX2                !
 ! R2    R(1,3)                  2.34           estimate D2E/DX2                !
 ! R3    R(2,4)                  1.82           estimate D2E/DX2                !
 ! R4    R(2,8)                  1.82           estimate D2E/DX2                !
 ! R5    R(2,12)                 1.82           estimate D2E/DX2                !
 ! R6    R(3,16)                 1.82           estimate D2E/DX2                !
 ! R7    R(3,20)                 1.82           estimate D2E/DX2                !
 ! R8    R(3,24)                 1.82           estimate D2E/DX2                !
 ! R9    R(4,5)                  1.07           estimate D2E/DX2                !
 ! R10   R(4,6)                  1.07           estimate D2E/DX2                !
 ! R11   R(4,7)                  1.07           estimate D2E/DX2                !
 ! R12   R(8,9)                  1.07           estimate D2E/DX2                !
 ! R13   R(8,10)                 1.07           estimate D2E/DX2                !
 ! R14   R(8,11)                 1.07           estimate D2E/DX2                !
 ! R15   R(12,13)                1.07           estimate D2E/DX2                !
 ! R16   R(12,14)                1.07           estimate D2E/DX2                !
 ! R17   R(12,15)                1.07           estimate D2E/DX2                !
 ! R18   R(16,17)                1.07           estimate D2E/DX2                !
 ! R19   R(16,18)                1.07           estimate D2E/DX2                !
 ! R20   R(16,19)                1.07           estimate D2E/DX2                !
 ! R21   R(20,21)                1.07           estimate D2E/DX2                !
 ! R22   R(20,22)                1.07           estimate D2E/DX2                !
 ! R23   R(20,23)                1.07           estimate D2E/DX2                !
 ! R24   R(24,25)                1.07           estimate D2E/DX2                !
 ! R25   R(24,26)                1.07           estimate D2E/DX2                !
 ! R26   R(24,27)                1.07           estimate D2E/DX2                !
 ! A1    A(1,2,4)              109.4712         estimate D2E/DX2                !
 ! A2    A(1,2,8)              109.4712         estimate D2E/DX2                !
 ! A3    A(1,2,12)             109.4712         estimate D2E/DX2                !
 ! A4    A(4,2,8)              109.4712         estimate D2E/DX2                !
 ! A5    A(4,2,12)             109.4712         estimate D2E/DX2                !
 ! A6    A(8,2,12)             109.4713         estimate D2E/DX2                !
 ! A7    A(1,3,16)             109.4712         estimate D2E/DX2                !
 ! A8    A(1,3,20)             109.4712         estimate D2E/DX2                !
 ! A9    A(1,3,24)             109.4712         estimate D2E/DX2                !
 ! A10   A(16,3,20)            109.4712         estimate D2E/DX2                !
 ! A11   A(16,3,24)            109.4713         estimate D2E/DX2                !
 ! A12   A(20,3,24)            109.4712         estimate D2E/DX2                !
 ! A13   A(2,4,5)              109.4712         estimate D2E/DX2                !
 ! A14   A(2,4,6)              109.4712         estimate D2E/DX2                !
 ! A15   A(2,4,7)              109.4712         estimate D2E/DX2                !
 ! A16   A(5,4,6)              109.4713         estimate D2E/DX2                !
 ! A17   A(5,4,7)              109.4712         estimate D2E/DX2                !
 ! A18   A(6,4,7)              109.4712         estimate D2E/DX2                !
 ! A19   A(2,8,9)              109.4712         estimate D2E/DX2                !
 ! A20   A(2,8,10)             109.4712         estimate D2E/DX2                !
 ! A21   A(2,8,11)             109.4712         estimate D2E/DX2                !
 ! A22   A(9,8,10)             109.4713         estimate D2E/DX2                !
 ! A23   A(9,8,11)             109.4712         estimate D2E/DX2                !
 ! A24   A(10,8,11)            109.4712         estimate D2E/DX2                !
 ! A25   A(2,12,13)            109.4712         estimate D2E/DX2                !
 ! A26   A(2,12,14)            109.4712         estimate D2E/DX2                !
 ! A27   A(2,12,15)            109.4712         estimate D2E/DX2                !
 ! A28   A(13,12,14)           109.4713         estimate D2E/DX2                !
 ! A29   A(13,12,15)           109.4712         estimate D2E/DX2                !
 ! A30   A(14,12,15)           109.4712         estimate D2E/DX2                !
 ! A31   A(3,16,17)            109.4712         estimate D2E/DX2                !
 ! A32   A(3,16,18)            109.4712         estimate D2E/DX2                !
 ! A33   A(3,16,19)            109.4712         estimate D2E/DX2                !
 ! A34   A(17,16,18)           109.4713         estimate D2E/DX2                !
 ! A35   A(17,16,19)           109.4712         estimate D2E/DX2                !
 ! A36   A(18,16,19)           109.4712         estimate D2E/DX2                !
 ! A37   A(3,20,21)            109.4712         estimate D2E/DX2                !
 ! A38   A(3,20,22)            109.4712         estimate D2E/DX2                !
 ! A39   A(3,20,23)            109.4712         estimate D2E/DX2                !
 ! A40   A(21,20,22)           109.4713         estimate D2E/DX2                !
 ! A41   A(21,20,23)           109.4712         estimate D2E/DX2                !
 ! A42   A(22,20,23)           109.4712         estimate D2E/DX2                !
 ! A43   A(3,24,25)            109.4712         estimate D2E/DX2                !
 ! A44   A(3,24,26)            109.4712         estimate D2E/DX2                !
 ! A45   A(3,24,27)            109.4712         estimate D2E/DX2                !
 ! A46   A(25,24,26)           109.4713         estimate D2E/DX2                !
 ! A47   A(25,24,27)           109.4712         estimate D2E/DX2                !
 ! A48   A(26,24,27)           109.4712         estimate D2E/DX2                !
 ! A49   L(2,1,3,9,-1)         180.0            estimate D2E/DX2                !
 ! A50   L(2,1,3,9,-2)         180.0            estimate D2E/DX2                !
 ! D1    D(4,2,3,16)           179.9889         estimate D2E/DX2                !
 ! D2    D(4,2,3,20)            59.9889         estimate D2E/DX2                !
 ! D3    D(4,2,3,24)           -60.0111         estimate D2E/DX2                !
 ! D4    D(8,2,3,16)           -60.0111         estimate D2E/DX2                !
 ! D5    D(8,2,3,20)           179.9889         estimate D2E/DX2                !
 ! D6    D(8,2,3,24)            59.9889         estimate D2E/DX2                !
 ! D7    D(12,2,3,16)           59.9889         estimate D2E/DX2                !
 ! D8    D(12,2,3,20)          -60.0111         estimate D2E/DX2                !
 ! D9    D(12,2,3,24)          179.9889         estimate D2E/DX2                !
 ! D10   D(1,2,4,5)             60.0            estimate D2E/DX2                !
 ! D11   D(1,2,4,6)           -180.0            estimate D2E/DX2                !
 ! D12   D(1,2,4,7)            -60.0            estimate D2E/DX2                !
 ! D13   D(8,2,4,5)            -60.0            estimate D2E/DX2                !
 ! D14   D(8,2,4,6)             60.0            estimate D2E/DX2                !
 ! D15   D(8,2,4,7)           -180.0            estimate D2E/DX2                !
 ! D16   D(12,2,4,5)           180.0            estimate D2E/DX2                !
 ! D17   D(12,2,4,6)           -60.0            estimate D2E/DX2                !
 ! D18   D(12,2,4,7)            60.0            estimate D2E/DX2                !
 ! D19   D(1,2,8,9)             59.8877         estimate D2E/DX2                !
 ! D20   D(1,2,8,10)           179.8877         estimate D2E/DX2                !
 ! D21   D(1,2,8,11)           -60.1123         estimate D2E/DX2                !
 ! D22   D(4,2,8,9)            179.8877         estimate D2E/DX2                !
 ! D23   D(4,2,8,10)           -60.1123         estimate D2E/DX2                !
 ! D24   D(4,2,8,11)            59.8877         estimate D2E/DX2                !
 ! D25   D(12,2,8,9)           -60.1123         estimate D2E/DX2                !
 ! D26   D(12,2,8,10)           59.8877         estimate D2E/DX2                !
 ! D27   D(12,2,8,11)          179.8877         estimate D2E/DX2                !
 ! D28   D(1,2,12,13)           59.8902         estimate D2E/DX2                !
 ! D29   D(1,2,12,14)          179.8902         estimate D2E/DX2                !
 ! D30   D(1,2,12,15)          -60.1098         estimate D2E/DX2                !
 ! D31   D(4,2,12,13)          -60.1098         estimate D2E/DX2                !
 ! D32   D(4,2,12,14)           59.8902         estimate D2E/DX2                !
 ! D33   D(4,2,12,15)          179.8902         estimate D2E/DX2                !
 ! D34   D(8,2,12,13)          179.8902         estimate D2E/DX2                !
 ! D35   D(8,2,12,14)          -60.1098         estimate D2E/DX2                !
 ! D36   D(8,2,12,15)           59.8902         estimate D2E/DX2                !
 ! D37   D(1,3,16,17)           60.0001         estimate D2E/DX2                !
 ! D38   D(1,3,16,18)         -179.9999         estimate D2E/DX2                !
 ! D39   D(1,3,16,19)          -59.9999         estimate D2E/DX2                !
 ! D40   D(20,3,16,17)        -179.9999         estimate D2E/DX2                !
 ! D41   D(20,3,16,18)         -59.9999         estimate D2E/DX2                !
 ! D42   D(20,3,16,19)          60.0001         estimate D2E/DX2                !
 ! D43   D(24,3,16,17)         -59.9999         estimate D2E/DX2                !
 ! D44   D(24,3,16,18)          60.0001         estimate D2E/DX2                !
 ! D45   D(24,3,16,19)        -179.9999         estimate D2E/DX2                !
 ! D46   D(1,3,20,21)          179.9999         estimate D2E/DX2                !
 ! D47   D(1,3,20,22)          -60.0001         estimate D2E/DX2                !
 ! D48   D(1,3,20,23)           59.9999         estimate D2E/DX2                !
 ! D49   D(16,3,20,21)          60.0            estimate D2E/DX2                !
 ! D50   D(16,3,20,22)         180.0            estimate D2E/DX2                !
 ! D51   D(16,3,20,23)         -60.0            estimate D2E/DX2                !
 ! D52   D(24,3,20,21)         -60.0001         estimate D2E/DX2                !
 ! D53   D(24,3,20,22)          59.9999         estimate D2E/DX2                !
 ! D54   D(24,3,20,23)         179.9999         estimate D2E/DX2                !
 ! D55   D(1,3,24,25)           60.0            estimate D2E/DX2                !
 ! D56   D(1,3,24,26)         -180.0            estimate D2E/DX2                !
 ! D57   D(1,3,24,27)          -60.0            estimate D2E/DX2                !
 ! D58   D(16,3,24,25)        -180.0            estimate D2E/DX2                !
 ! D59   D(16,3,24,26)         -60.0            estimate D2E/DX2                !
 ! D60   D(16,3,24,27)          60.0            estimate D2E/DX2                !
 ! D61   D(20,3,24,25)         -60.0            estimate D2E/DX2                !
 ! D62   D(20,3,24,26)          60.0            estimate D2E/DX2                !
 ! D63   D(20,3,24,27)        -180.0            estimate D2E/DX2                !
 --------------------------------------------------------------------------------
 Trust Radius=3.00D-01 FncErr=1.00D-07 GrdErr=1.00D-06 EigMax=2.50D+02 EigMin=1.00D-04
 Number of steps in this run=    149 maximum allowed number of steps=    162.
 GradGradGradGradGradGradGradGradGradGradGradGradGradGradGradGradGradGrad

 Leave Link  103 at Wed Oct 30 13:05:08 2019, MaxMem=   140000000 cpu:               1.1 elap:               0.1
 (Enter /usr/g16/l202.exe)
                          Input orientation:                          
 ---------------------------------------------------------------------
 Center     Atomic      Atomic             Coordinates (Angstroms)
 Number     Number       Type             X           Y           Z
 ---------------------------------------------------------------------
      1         78           0       -0.399160    0.525210    0.000000
      2         15           0        1.940840    0.525210    0.000000
      3         15           0       -2.739160    0.525210    0.000000
      4          6           0        2.547507    2.240077   -0.059884
      5          1           0        2.190841    2.774662    0.795631
      6          1           0        3.617507    2.240077   -0.059885
      7          1           0        2.190841    2.713683   -0.950607
      8          6           0        2.547506   -0.280362    1.515061
      9          1           0        2.189226   -1.287946    1.551236
     10          1           0        3.617505   -0.282108    1.514133
     11          1           0        2.192455    0.255363    2.370536
     12          6           0        2.547506   -0.384085   -1.455177
     13          1           0        2.189262    0.088404   -2.345859
     14          1           0        3.617505   -0.382446   -1.456202
     15          1           0        2.192419   -1.392799   -1.418985
     16          6           0       -3.345826   -1.189669    0.059552
     17          1           0       -2.989160   -1.663446    0.950184
     18          1           0       -4.415826   -1.189669    0.059550
     19          1           0       -2.989158   -1.724089   -0.796066
     20          6           0       -3.345827    1.331076   -1.514905
     21          1           0       -4.415827    1.331074   -1.514905
     22          1           0       -2.989161    2.339274   -1.549915
     23          1           0       -2.989159    0.796657   -2.370524
     24          6           0       -3.345826    1.434224    1.455352
     25          1           0       -2.989159    2.442421    1.420340
     26          1           0       -4.415826    1.434223    1.455353
     27          1           0       -2.989159    0.960446    2.345983
 ---------------------------------------------------------------------
                    Distance matrix (angstroms):
                    1          2          3          4          5
     1  Pt   0.000000
     2  P    2.340000   0.000000
     3  P    2.340000   4.680000   0.000000
     4  C    3.409868   1.820000   5.558165   0.000000
     5  H    3.521529   2.399076   5.477040   1.070000   0.000000
     6  H    4.367833   2.399076   6.584191   1.070000   1.747303
     7  H    3.521529   2.399076   5.477040   1.070000   1.747303
     8  C    3.409868   1.820000   5.558165   2.972048   3.158791
     9  H    3.520456   2.399076   5.475660   3.895000   4.132279
    10  H    4.367832   2.399076   6.584189   3.159722   3.448980
    11  H    3.522602   2.399076   5.478420   3.157862   2.971060
    12  C    3.409868   1.820000   5.558165   2.972048   3.895001
    13  H    3.520480   2.399076   5.475691   3.159702   4.133394
    14  H    4.367832   2.399076   6.584189   3.157883   4.132004
    15  H    3.522578   2.399076   5.478389   3.895000   4.719349
    16  C    3.409868   5.558165   1.820000   6.819736   6.849264
    17  H    3.521529   5.477040   2.399076   6.849264   6.822983
    18  H    4.367833   6.584190   2.399076   7.763081   7.739882
    19  H    3.521528   5.477038   2.399076   6.849178   7.043057
    20  C    3.409868   5.558165   1.820000   6.137976   6.170673
    21  H    4.367833   6.584191   2.399076   7.171568   7.146368
    22  H    3.521530   5.477041   2.399076   5.734520   5.702944
    23  H    3.521529   5.477040   2.399076   6.170672   6.385096
    24  C    3.409868   5.558165   1.820000   6.138136   5.734691
    25  H    3.521529   5.477039   2.399076   5.734691   5.228101
    26  H    4.367833   6.584190   2.399076   7.171705   6.773482
    27  H    3.521528   5.477039   2.399076   6.170926   5.703277
                    6          7          8          9         10
     6  H    0.000000
     7  H    1.747303   0.000000
     8  C    3.158792   3.895001   0.000000
     9  H    4.133116   4.719349   1.070000   0.000000
    10  H    2.973037   4.133410   1.070000   1.747303   0.000000
    11  H    3.446274   4.131988   1.070000   1.747303   1.747303
    12  C    3.158792   3.158792   2.972048   3.159723   3.157863
    13  H    3.448950   2.973015   3.895001   4.133000   4.132396
    14  H    2.971081   3.446304   3.159702   3.450303   2.972029
    15  H    4.132289   4.133107   3.157884   2.972073   3.444951
    16  C    7.763081   6.849179   6.138136   5.733374   7.171293
    17  H    7.739883   7.043059   5.734691   5.226657   6.773046
    18  H    8.735666   7.739807   7.171705   6.772111   8.214248
    19  H    7.739806   6.822762   6.170924   5.702254   7.145930
    20  C    7.171568   5.734520   6.819736   6.848161   7.763080
    21  H    8.214489   6.773337   7.763081   7.738683   8.735665
    22  H    6.773337   5.227979   6.849179   7.041985   7.740030
    23  H    7.146367   5.702943   6.849263   6.822129   7.739658
    24  C    7.171705   6.170926   6.137975   6.168971   7.171975
    25  H    6.773481   5.703277   6.170672   6.383451   7.147018
    26  H    8.214608   7.146587   7.171566   7.144656   8.214843
    27  H    7.146586   6.385432   5.734518   5.701101   6.773767
                   11         12         13         14         15
    11  H    0.000000
    12  C    3.895001   0.000000
    13  H    4.719350   1.070000   0.000000
    14  H    4.132975   1.070000   1.747303   0.000000
    15  H    4.132421   1.070000   1.747303   1.747303   0.000000
    16  C    6.172626   6.137975   6.169008   7.171966   5.735808
    17  H    5.705117   6.170673   6.383489   7.147004   5.703944
    18  H    7.148297   7.171566   7.144693   8.214835   6.774676
    19  H    6.387074   5.734517   5.701142   6.773756   5.229390
    20  C    6.850282   6.138136   5.733404   7.171303   6.172589
    21  H    7.741007   7.171705   6.772142   8.214257   7.148258
    22  H    6.823618   6.170927   5.702280   7.145948   6.387040
    23  H    7.044130   5.734691   5.226689   6.773055   5.705076
    24  C    5.735837   6.819735   6.848184   7.763080   6.850257
    25  H    5.703965   6.849263   6.822147   7.739662   7.044106
    26  H    6.774706   7.763081   7.738709   8.735664   7.740980
    27  H    5.229423   6.849178   7.042008   7.740024   6.823598
                   16         17         18         19         20
    16  C    0.000000
    17  H    1.070000   0.000000
    18  H    1.070000   1.747303   0.000000
    19  H    1.070000   1.747303   1.747303   0.000000
    20  C    2.972048   3.895001   3.158791   3.158793   0.000000
    21  H    3.158791   4.132698   2.972045   3.447628   1.070000
    22  H    3.895001   4.719350   4.132698   4.132700   1.070000
    23  H    3.158792   4.132700   3.447626   2.972049   1.070000
    24  C    2.972048   3.158791   3.158793   3.895002   2.972048
    25  H    3.895001   4.132698   4.132700   4.719350   3.158791
    26  H    3.158792   3.447626   2.972049   4.132700   3.158792
    27  H    3.158793   2.972047   3.447630   4.132699   3.895001
                   21         22         23         24         25
    21  H    0.000000
    22  H    1.747303   0.000000
    23  H    1.747303   1.747303   0.000000
    24  C    3.158792   3.158791   3.895001   0.000000
    25  H    3.447627   2.972046   4.132698   1.070000   0.000000
    26  H    2.972048   3.447626   4.132699   1.070000   1.747303
    27  H    4.132699   4.132698   4.719350   1.070000   1.747303
                   26         27
    26  H    0.000000
    27  H    1.747303   0.000000
 This structure is nearly, but not quite of a higher symmetry.
 Consider Symm=Loose if the higher symmetry is desired.
 Stoichiometry    C6H18P2Pt
 Framework group  C1[X(C6H18P2Pt)]
 Deg. of freedom    75
 Full point group                 C1      NOp   1
 Largest Abelian subgroup         C1      NOp   1
 Largest concise Abelian subgroup C1      NOp   1
                         Standard orientation:                         
 ---------------------------------------------------------------------
 Center     Atomic      Atomic             Coordinates (Angstroms)
 Number     Number       Type             X           Y           Z
 ---------------------------------------------------------------------
      1         78           0        0.000000    0.000000    0.000000
      2         15           0        1.922266   -0.586929   -1.198336
      3         15           0       -1.922266    0.586929    1.198336
      4          6           0        1.563224   -0.539916   -2.981949
      5          1           0        1.258226    0.447716   -3.258463
      6          1           0        2.442209   -0.808299   -3.529906
      7          1           0        0.778152   -1.231526   -3.206087
      8          6           0        3.257622    0.589454   -0.817093
      9          1           0        3.467367    0.563236    0.231821
     10          1           0        4.137190    0.319924   -1.363549
     11          1           0        2.953381    1.576812   -1.095413
     12          6           0        2.441046   -2.266826   -0.728003
     13          1           0        1.655236   -2.958169   -0.950373
     14          1           0        3.318928   -2.535943   -1.277367
     15          1           0        2.653973   -2.293998    0.320245
     16          6           0       -1.563315    0.539596    2.981959
     17          1           0       -0.778186    1.231094    3.206244
     18          1           0       -2.442300    0.807977    3.529916
     19          1           0       -1.258426   -0.448109    3.258331
     20          6           0       -3.257721   -0.589260    0.816841
     21          1           0       -4.136705   -0.320878    1.364799
     22          1           0       -3.468753   -0.561432   -0.231773
     23          1           0       -2.952834   -1.576966    1.093212
     24          6           0       -2.440857    2.266952    0.728245
     25          1           0       -2.651889    2.294779   -0.320369
     26          1           0       -3.319842    2.535335    1.276202
     27          1           0       -1.655727    2.958449    0.952529
 ---------------------------------------------------------------------
 Rotational constants (GHZ):           1.6922152           0.3910466           0.3910466
 Leave Link  202 at Wed Oct 30 13:05:08 2019, MaxMem=   140000000 cpu:               2.6 elap:               0.1
 (Enter /usr/g16/l301.exe)
 General basis read from cards:  (5D, 7F)
 Centers:       1
 SDD
 ****
 Centers:       2      3      4      8     12     16     20     24      5      6
 Centers:       7      9     10     11     13     14     15     17     18     19
 Centers:      21     22     23     25     26     27
 6-31+g*
 ****
 ======================================================================================================
                                       Pseudopotential Parameters
 ======================================================================================================
  Center     Atomic      Valence      Angular      Power
  Number     Number     Electrons     Momentum     of R      Exponent        Coefficient   SO-Coeffient
 ======================================================================================================
    1         78           18
                                      H and up 
                                                     2        1.0000000        0.00000000    0.00000000
                                      S - H
                                                     2       13.4286510      579.22386100    0.00000000
                                                     2        6.7143260       29.66949100    0.00000000
                                      P - H
                                                     2       10.3659440      280.86077400    0.00000000
                                                     2        5.1829720       26.74538200    0.00000000
                                      D - H
                                                     2        7.6004790      120.39644400    0.00000000
                                                     2        3.8002400       15.81092100    0.00000000
                                      F - H
                                                     2        3.3095690       24.31437600    0.00000000
                                      G - H
                                                     2        5.2772890      -24.21867500    0.00000000
    2         15
                                   No pseudopotential on this center.
    3         15
                                   No pseudopotential on this center.
    4          6
                                   No pseudopotential on this center.
    5          1
                                   No pseudopotential on this center.
    6          1
                                   No pseudopotential on this center.
    7          1
                                   No pseudopotential on this center.
    8          6
                                   No pseudopotential on this center.
    9          1
                                   No pseudopotential on this center.
   10          1
                                   No pseudopotential on this center.
   11          1
                                   No pseudopotential on this center.
   12          6
                                   No pseudopotential on this center.
   13          1
                                   No pseudopotential on this center.
   14          1
                                   No pseudopotential on this center.
   15          1
                                   No pseudopotential on this center.
   16          6
                                   No pseudopotential on this center.
   17          1
                                   No pseudopotential on this center.
   18          1
                                   No pseudopotential on this center.
   19          1
                                   No pseudopotential on this center.
   20          6
                                   No pseudopotential on this center.
   21          1
                                   No pseudopotential on this center.
   22          1
                                   No pseudopotential on this center.
   23          1
                                   No pseudopotential on this center.
   24          6
                                   No pseudopotential on this center.
   25          1
                                   No pseudopotential on this center.
   26          1
                                   No pseudopotential on this center.
   27          1
                                   No pseudopotential on this center.
 ======================================================================================================
 Ernie: Thresh=  0.10000D-02 Tol=  0.10000D-05 Strict=F.
 There are   235 symmetry adapted cartesian basis functions of A   symmetry.
 There are   224 symmetry adapted basis functions of A   symmetry.
   224 basis functions,   441 primitive gaussians,   235 cartesian basis functions
    51 alpha electrons       51 beta electrons
       nuclear repulsion energy       784.7168442054 Hartrees.
 IExCor=  402 DFT=T Ex+Corr=B3LYP ExCW=0 ScaHFX=  0.200000
 ScaDFX=  0.800000  0.720000  1.000000  0.810000 ScalE2=  1.000000  1.000000
 IRadAn=      5 IRanWt=     -1 IRanGd=            0 ICorTp=0 IEmpDi=141
 NAtoms=   27 NActive=   27 NUniq=   27 SFac= 1.00D+00 NAtFMM=   60 NAOKFM=F Big=F
 Integral buffers will be    131072 words long.
 Raffenetti 2 integral format.
 Two-electron integral symmetry is turned on.
 R6Disp:  Grimme-D3(BJ) Dispersion energy=       -0.0551389988 Hartrees.
 Nuclear repulsion after empirical dispersion term =      784.6617052066 Hartrees.
 ------------------------------------------------------------------------------
 Polarizable Continuum Model (PCM)
 =================================
 Model                : PCM.
 Atomic radii         : SMD-Coulomb.
 Polarization charges : Total charges.
 Charge compensation  : None.
 Solution method      : On-the-fly selection.
 Cavity type          : VdW (van der Waals Surface) (Alpha=1.000).
 Cavity algorithm     : GePol (No added spheres)
                        Default sphere list used, NSphG=   27.
                        Lebedev-Laikov grids with approx.  5.0 points / Ang**2.
                        Smoothing algorithm: York/Karplus (Gamma=1.0000).
                        Polarization charges: spherical gaussians, with
                                              point-specific exponents (IZeta= 3).
                        Self-potential: point-specific (ISelfS= 7).
                        Self-field    : sphere-specific E.n sum rule (ISelfD= 2).
 1st derivatives      : Analytical E(r).r(x)/FMM algorithm (CHGder, D1EAlg=3).
                        Cavity 1st derivative terms included.
 Solvent              : Benzene, Eps=   2.270600 Eps(inf)=   2.253301
 ------------------------------------------------------------------------------
 GePol: Number of generator spheres                  =      27
 GePol: Total number of spheres                      =      27
 GePol: Number of exposed spheres                    =      27 (100.00%)
 GePol: Number of points                             =    2085
 GePol: Average weight of points                     =       0.12
 GePol: Minimum weight of points                     =   0.34D-10
 GePol: Maximum weight of points                     =    0.22001
 GePol: Number of points with low weight             =     106
 GePol: Fraction of low-weight points (<1% of avg)   =       5.08%
 GePol: Cavity surface area                          =    241.415 Ang**2
 GePol: Cavity volume                                =    198.897 Ang**3
 ------------------------------------------------------------------------------
 Atomic radii for non-electrostatic terms: SMD-CDS.
 ------------------------------------------------------------------------------
 PCM non-electrostatic energy =         0.0006814905 Hartrees.
 Nuclear repulsion after PCM non-electrostatic terms =      784.6623866971 Hartrees.
 Leave Link  301 at Wed Oct 30 13:05:08 2019, MaxMem=   140000000 cpu:               4.0 elap:               0.2
 (Enter /usr/g16/l302.exe)
 NPDir=0 NMtPBC=     1 NCelOv=     1 NCel=       1 NClECP=     1 NCelD=      1
         NCelK=      1 NCelE2=     1 NClLst=     1 CellRange=     0.0.
 One-electron integrals computed using PRISM.
 One-electron integral symmetry used in STVInt
   1 Symmetry operations used in ECPInt.
 ECPInt:  NShTT=    4278 NPrTT=   20540 LenC2=    4071 LenP2D=   13436.
 LDataN:  DoStor=T MaxTD1= 7 Len=  274
 Number of processors reduced to  20 by ecpmxn.
 NBasis=   224 RedAO= T EigKep=  4.81D-05  NBF=   224
 NBsUse=   224 1.00D-06 EigRej= -1.00D+00 NBFU=   224
 Precomputing XC quadrature grid using
 IXCGrd= 4 IRadAn=           5 IRanWt=          -1 IRanGd=           0 AccXCQ= 0.00D+00.
 Defaulting to unpruned grid for atomic number  78.
 Generated NRdTot=       0 NPtTot=           0 NUsed=           0 NTot=          32
 NSgBfM=   231   231   231   231   231 MxSgAt=    27 MxSgA2=    27.
 Leave Link  302 at Wed Oct 30 13:05:09 2019, MaxMem=   140000000 cpu:              15.3 elap:               0.7
 (Enter /usr/g16/l303.exe)
 DipDrv:  MaxL=1.
 Leave Link  303 at Wed Oct 30 13:05:09 2019, MaxMem=   140000000 cpu:               3.4 elap:               0.2
 (Enter /usr/g16/l401.exe)
 ExpMin= 1.50D-02 ExpMax= 1.94D+04 ExpMxC= 2.91D+03 IAcc=3 IRadAn=         5 AccDes= 0.00D+00
 Harris functional with IExCor=  402 and IRadAn=       5 diagonalized for initial guess.
 HarFok:  IExCor=  402 AccDes= 0.00D+00 IRadAn=         5 IDoV= 1 UseB2=F ITyADJ=14
 ICtDFT=  3500011 ScaDFX=  1.000000  1.000000  1.000000  1.000000
 Defaulting to unpruned grid for atomic number  78.
 FoFCou: FMM=F IPFlag=           0 FMFlag=      100000 FMFlg1=           0
         NFxFlg=           0 DoJE=T BraDBF=F KetDBF=T FulRan=T
         wScrn=  0.000000 ICntrl=       500 IOpCl=  0 I1Cent=   200000004 NGrid=           0
         NMat0=    1 NMatS0=      1 NMatT0=    0 NMatD0=    1 NMtDS0=    0 NMtDT0=    0
 Petite list used in FoFCou.
 Harris En= -1041.49767461507    
 JPrj=0 DoOrth=F DoCkMO=F.
 Leave Link  401 at Wed Oct 30 13:05:11 2019, MaxMem=   140000000 cpu:              38.4 elap:               1.6
 (Enter /usr/g16/l502.exe)
 Integral symmetry usage will be decided dynamically.
 Closed shell SCF:
 Using DIIS extrapolation, IDIIS=  1040.
 NGot=   140000000 LenX=   139881175 LenY=   139825509
 Requested convergence on RMS density matrix=1.00D-08 within 128 cycles.
 Requested convergence on MAX density matrix=1.00D-06.
 Requested convergence on             energy=1.00D-06.
 No special actions if energy rises.
 Fock matrices will be formed incrementally for  20 cycles.

 Cycle   1  Pass 1  IDiag  1:
 FoFJK:  IHMeth= 1 ICntrl=       0 DoSepK=F KAlg= 0 I1Cent=           0 FoldK=F
 IRaf= 920000000 NMat=       1 IRICut=       1 DoRegI=T DoRafI=F ISym2E= 0 IDoP0=0 IntGTp=1.
 FoFCou: FMM=F IPFlag=           0 FMFlag=      100000 FMFlg1=           0
         NFxFlg=           0 DoJE=F BraDBF=F KetDBF=F FulRan=T
         wScrn=  0.000000 ICntrl=         0 IOpCl=  0 I1Cent=           0 NGrid=           0
         NMat0=    1 NMatS0=      1 NMatT0=    0 NMatD0=    1 NMtDS0=    0 NMtDT0=    0
 Symmetry not used in FoFCou.
 Defaulting to unpruned grid for atomic number  78.
 Defaulting to unpruned grid for atomic number  78.
 Defaulting to unpruned grid for atomic number  78.
 Defaulting to unpruned grid for atomic number  78.
 Defaulting to unpruned grid for atomic number  78.
 Defaulting to unpruned grid for atomic number  78.
 Defaulting to unpruned grid for atomic number  78.
 Defaulting to unpruned grid for atomic number  78.
 Defaulting to unpruned grid for atomic number  78.
 Defaulting to unpruned grid for atomic number  78.
 Defaulting to unpruned grid for atomic number  78.
 Defaulting to unpruned grid for atomic number  78.
 Defaulting to unpruned grid for atomic number  78.
 Defaulting to unpruned grid for atomic number  78.
 Defaulting to unpruned grid for atomic number  78.
 Defaulting to unpruned grid for atomic number  78.
 Defaulting to unpruned grid for atomic number  78.
 Defaulting to unpruned grid for atomic number  78.
 Defaulting to unpruned grid for atomic number  78.
 Defaulting to unpruned grid for atomic number  78.
 Defaulting to unpruned grid for atomic number  78.
 Defaulting to unpruned grid for atomic number  78.
 Defaulting to unpruned grid for atomic number  78.
 Defaulting to unpruned grid for atomic number  78.
 Inv3:  Mode=1 IEnd=    13041675.
 Iteration    1 A*A^-1 deviation from unit magnitude is 8.66D-15 for    464.
 Iteration    1 A*A^-1 deviation from orthogonality  is 4.97D-15 for   1848    256.
 Iteration    1 A^-1*A deviation from unit magnitude is 6.44D-15 for    464.
 Iteration    1 A^-1*A deviation from orthogonality  is 1.87D-15 for   2068   1886.
 E= -1041.09270417553    
 DIIS: error= 6.65D-02 at cycle   1 NSaved=   1.
 NSaved= 1 IEnMin= 1 EnMin= -1041.09270417553     IErMin= 1 ErrMin= 6.65D-02
 ErrMax= 6.65D-02  0.00D+00 EMaxC= 1.00D-01 BMatC= 6.45D-01 BMatP= 6.45D-01
 IDIUse=3 WtCom= 3.35D-01 WtEn= 6.65D-01
 Coeff-Com:  0.100D+01
 Coeff-En:   0.100D+01
 Coeff:      0.100D+01
 Gap=     0.325 Goal=   None    Shift=    0.000
 GapD=    0.325 DampG=1.000 DampE=0.250 DampFc=0.2500 IDamp=-1.
 Damping current iteration by 2.50D-01
 RMSDP=9.65D-03 MaxDP=3.90D-01              OVMax= 2.37D-01

 Cycle   2  Pass 1  IDiag  1:
 RMSU=  2.38D-03    CP:  9.87D-01
 E= -1041.32810167357     Delta-E=       -0.235397498042 Rises=F Damp=T
 DIIS: error= 3.03D-02 at cycle   2 NSaved=   2.
 NSaved= 2 IEnMin= 2 EnMin= -1041.32810167357     IErMin= 2 ErrMin= 3.03D-02
 ErrMax= 3.03D-02  0.00D+00 EMaxC= 1.00D-01 BMatC= 1.29D-01 BMatP= 6.45D-01
 IDIUse=3 WtCom= 6.97D-01 WtEn= 3.03D-01
 Coeff-Com: -0.715D+00 0.171D+01
 Coeff-En:   0.000D+00 0.100D+01
 Coeff:     -0.498D+00 0.150D+01
 Gap=     0.228 Goal=   None    Shift=    0.000
 RMSDP=6.96D-03 MaxDP=3.41D-01 DE=-2.35D-01 OVMax= 1.86D-01

 Cycle   3  Pass 1  IDiag  1:
 RMSU=  6.71D-03    CP:  9.24D-01  7.90D-01
 E= -1041.67546531179     Delta-E=       -0.347363638221 Rises=F Damp=F
 DIIS: error= 1.38D-02 at cycle   3 NSaved=   3.
 NSaved= 3 IEnMin= 3 EnMin= -1041.67546531179     IErMin= 3 ErrMin= 1.38D-02
 ErrMax= 1.38D-02  0.00D+00 EMaxC= 1.00D-01 BMatC= 3.44D-02 BMatP= 1.29D-01
 IDIUse=3 WtCom= 8.62D-01 WtEn= 1.38D-01
 Coeff-Com: -0.340D+00 0.900D+00 0.440D+00
 Coeff-En:   0.000D+00 0.000D+00 0.100D+01
 Coeff:     -0.293D+00 0.775D+00 0.517D+00
 Gap=     0.167 Goal=   None    Shift=    0.000
 RMSDP=3.52D-03 MaxDP=1.53D-01 DE=-3.47D-01 OVMax= 4.95D-02

 Cycle   4  Pass 1  IDiag  1:
 RMSU=  1.87D-03    CP:  9.33D-01  1.36D+00  6.05D-01
 E= -1041.70636906442     Delta-E=       -0.030903752625 Rises=F Damp=F
 DIIS: error= 5.99D-03 at cycle   4 NSaved=   4.
 NSaved= 4 IEnMin= 4 EnMin= -1041.70636906442     IErMin= 4 ErrMin= 5.99D-03
 ErrMax= 5.99D-03  0.00D+00 EMaxC= 1.00D-01 BMatC= 4.56D-03 BMatP= 3.44D-02
 IDIUse=3 WtCom= 9.40D-01 WtEn= 5.99D-02
 Coeff-Com:  0.223D-01 0.625D-02 0.279D+00 0.693D+00
 Coeff-En:   0.000D+00 0.000D+00 0.665D-01 0.934D+00
 Coeff:      0.210D-01 0.588D-02 0.266D+00 0.707D+00
 Gap=     0.160 Goal=   None    Shift=    0.000
 RMSDP=4.60D-04 MaxDP=1.63D-02 DE=-3.09D-02 OVMax= 1.65D-02

 Cycle   5  Pass 1  IDiag  1:
 RMSU=  3.03D-04    CP:  9.32D-01  1.28D+00  6.34D-01  8.87D-01
 E= -1041.71027692299     Delta-E=       -0.003907858570 Rises=F Damp=F
 DIIS: error= 5.86D-04 at cycle   5 NSaved=   5.
 NSaved= 5 IEnMin= 5 EnMin= -1041.71027692299     IErMin= 5 ErrMin= 5.86D-04
 ErrMax= 5.86D-04  0.00D+00 EMaxC= 1.00D-01 BMatC= 7.33D-05 BMatP= 4.56D-03
 IDIUse=3 WtCom= 9.94D-01 WtEn= 5.86D-03
 Coeff-Com:  0.170D-01-0.254D-01 0.727D-01 0.255D+00 0.680D+00
 Coeff-En:   0.000D+00 0.000D+00 0.000D+00 0.000D+00 0.100D+01
 Coeff:      0.169D-01-0.252D-01 0.723D-01 0.254D+00 0.682D+00
 Gap=     0.159 Goal=   None    Shift=    0.000
 RMSDP=1.55D-04 MaxDP=6.28D-03 DE=-3.91D-03 OVMax= 1.96D-03

 Cycle   6  Pass 1  IDiag  1:
 RMSU=  5.37D-05    CP:  9.31D-01  1.26D+00  6.50D-01  8.85D-01  7.11D-01
 E= -1041.71035254700     Delta-E=       -0.000075624016 Rises=F Damp=F
 DIIS: error= 7.69D-05 at cycle   6 NSaved=   6.
 NSaved= 6 IEnMin= 6 EnMin= -1041.71035254700     IErMin= 6 ErrMin= 7.69D-05
 ErrMax= 7.69D-05  0.00D+00 EMaxC= 1.00D-01 BMatC= 8.82D-07 BMatP= 7.33D-05
 IDIUse=1 WtCom= 1.00D+00 WtEn= 0.00D+00
 Coeff-Com:  0.307D-02-0.490D-02 0.884D-02 0.301D-01 0.138D+00 0.825D+00
 Coeff:      0.307D-02-0.490D-02 0.884D-02 0.301D-01 0.138D+00 0.825D+00
 Gap=     0.159 Goal=   None    Shift=    0.000
 RMSDP=2.53D-05 MaxDP=1.01D-03 DE=-7.56D-05 OVMax= 4.95D-04

 Cycle   7  Pass 1  IDiag  1:
 RMSU=  1.31D-05    CP:  9.31D-01  1.26D+00  6.53D-01  8.85D-01  7.10D-01
                    CP:  9.89D-01
 E= -1041.71035343836     Delta-E=       -0.000000891358 Rises=F Damp=F
 DIIS: error= 1.94D-05 at cycle   7 NSaved=   7.
 NSaved= 7 IEnMin= 7 EnMin= -1041.71035343836     IErMin= 7 ErrMin= 1.94D-05
 ErrMax= 1.94D-05  0.00D+00 EMaxC= 1.00D-01 BMatC= 1.08D-07 BMatP= 8.82D-07
 IDIUse=1 WtCom= 1.00D+00 WtEn= 0.00D+00
 Coeff-Com:  0.486D-03-0.963D-03 0.647D-03 0.305D-02 0.315D-01 0.344D+00
 Coeff-Com:  0.621D+00
 Coeff:      0.486D-03-0.963D-03 0.647D-03 0.305D-02 0.315D-01 0.344D+00
 Coeff:      0.621D+00
 Gap=     0.159 Goal=   None    Shift=    0.000
 RMSDP=9.16D-06 MaxDP=4.73D-04 DE=-8.91D-07 OVMax= 9.10D-05

 Cycle   8  Pass 1  IDiag  1:
 RMSU=  2.22D-06    CP:  9.31D-01  1.26D+00  6.52D-01  8.86D-01  7.16D-01
                    CP:  9.96D-01  7.92D-01
 E= -1041.71035357420     Delta-E=       -0.000000135842 Rises=F Damp=F
 DIIS: error= 5.18D-06 at cycle   8 NSaved=   8.
 NSaved= 8 IEnMin= 8 EnMin= -1041.71035357420     IErMin= 8 ErrMin= 5.18D-06
 ErrMax= 5.18D-06  0.00D+00 EMaxC= 1.00D-01 BMatC= 3.35D-09 BMatP= 1.08D-07
 IDIUse=1 WtCom= 1.00D+00 WtEn= 0.00D+00
 Coeff-Com: -0.210D-03 0.302D-03-0.588D-03-0.151D-02-0.146D-02 0.369D-01
 Coeff-Com:  0.156D+00 0.811D+00
 Coeff:     -0.210D-03 0.302D-03-0.588D-03-0.151D-02-0.146D-02 0.369D-01
 Coeff:      0.156D+00 0.811D+00
 Gap=     0.159 Goal=   None    Shift=    0.000
 RMSDP=1.06D-06 MaxDP=3.03D-05 DE=-1.36D-07 OVMax= 2.25D-05

 Cycle   9  Pass 1  IDiag  1:
 RMSU=  4.81D-07    CP:  9.31D-01  1.26D+00  6.52D-01  8.86D-01  7.15D-01
                    CP:  1.00D+00  8.03D-01  8.82D-01
 E= -1041.71035357829     Delta-E=       -0.000000004084 Rises=F Damp=F
 DIIS: error= 6.14D-07 at cycle   9 NSaved=   9.
 NSaved= 9 IEnMin= 9 EnMin= -1041.71035357829     IErMin= 9 ErrMin= 6.14D-07
 ErrMax= 6.14D-07  0.00D+00 EMaxC= 1.00D-01 BMatC= 3.99D-11 BMatP= 3.35D-09
 IDIUse=1 WtCom= 1.00D+00 WtEn= 0.00D+00
 Coeff-Com: -0.273D-05 0.767D-05-0.447D-04-0.179D-03-0.607D-03-0.624D-02
 Coeff-Com: -0.127D-01 0.135D-01 0.101D+01
 Coeff:     -0.273D-05 0.767D-05-0.447D-04-0.179D-03-0.607D-03-0.624D-02
 Coeff:     -0.127D-01 0.135D-01 0.101D+01
 Gap=     0.159 Goal=   None    Shift=    0.000
 RMSDP=1.84D-07 MaxDP=8.91D-06 DE=-4.08D-09 OVMax= 5.85D-06

 Cycle  10  Pass 1  IDiag  1:
 RMSU=  5.54D-08    CP:  9.31D-01  1.26D+00  6.52D-01  8.86D-01  7.16D-01
                    CP:  1.00D+00  8.03D-01  9.02D-01  1.11D+00
 E= -1041.71035357833     Delta-E=       -0.000000000047 Rises=F Damp=F
 DIIS: error= 7.26D-08 at cycle  10 NSaved=  10.
 NSaved=10 IEnMin=10 EnMin= -1041.71035357833     IErMin=10 ErrMin= 7.26D-08
 ErrMax= 7.26D-08  0.00D+00 EMaxC= 1.00D-01 BMatC= 1.27D-12 BMatP= 3.99D-11
 IDIUse=1 WtCom= 1.00D+00 WtEn= 0.00D+00
 Coeff-Com:  0.326D-05-0.357D-05-0.336D-05-0.300D-04-0.159D-03-0.240D-02
 Coeff-Com: -0.642D-02-0.934D-02 0.298D+00 0.720D+00
 Coeff:      0.326D-05-0.357D-05-0.336D-05-0.300D-04-0.159D-03-0.240D-02
 Coeff:     -0.642D-02-0.934D-02 0.298D+00 0.720D+00
 Gap=     0.159 Goal=   None    Shift=    0.000
 RMSDP=1.33D-08 MaxDP=4.39D-07 DE=-4.66D-11 OVMax= 7.40D-07

 Cycle  11  Pass 1  IDiag  1:
 RMSU=  1.10D-08    CP:  9.31D-01  1.26D+00  6.52D-01  8.86D-01  7.16D-01
                    CP:  1.00D+00  8.03D-01  9.02D-01  1.12D+00  1.04D+00
 E= -1041.71035357832     Delta-E=        0.000000000015 Rises=F Damp=F
 DIIS: error= 4.71D-08 at cycle  11 NSaved=  11.
 NSaved=11 IEnMin=10 EnMin= -1041.71035357833     IErMin=11 ErrMin= 4.71D-08
 ErrMax= 4.71D-08  0.00D+00 EMaxC= 1.00D-01 BMatC= 4.89D-13 BMatP= 1.27D-12
 IDIUse=1 WtCom= 1.00D+00 WtEn= 0.00D+00
 Coeff-Com:  0.176D-05-0.245D-05 0.456D-05 0.108D-04 0.105D-05-0.342D-03
 Coeff-Com: -0.154D-02-0.672D-02 0.120D-01 0.382D+00 0.615D+00
 Coeff:      0.176D-05-0.245D-05 0.456D-05 0.108D-04 0.105D-05-0.342D-03
 Coeff:     -0.154D-02-0.672D-02 0.120D-01 0.382D+00 0.615D+00
 Gap=     0.159 Goal=   None    Shift=    0.000
 RMSDP=6.01D-09 MaxDP=2.04D-07 DE= 1.48D-11 OVMax= 2.39D-07

 Error on total polarization charges =  0.04990
 SCF Done:  E(RB3LYP) =  -1041.71035358     A.U. after   11 cycles
            NFock= 11  Conv=0.60D-08     -V/T= 2.0849
 KE= 9.602273050346D+02 PE=-3.997201922729D+03 EE= 1.210601877419D+03
 SMD-CDS (non-electrostatic) energy       (kcal/mol) =       0.43
 (included in total energy above)
 Leave Link  502 at Wed Oct 30 13:05:56 2019, MaxMem=   140000000 cpu:            1034.4 elap:              44.8
 (Enter /usr/g16/l601.exe)
 Copying SCF densities to generalized density rwf, IOpCl= 0 IROHF=0.

 **********************************************************************

            Population analysis using the SCF density.

 **********************************************************************

 Orbital symmetries:
       Occupied  (A) (A) (A) (A) (A) (A) (A) (A) (A) (A) (A) (A)
                 (A) (A) (A) (A) (A) (A) (A) (A) (A) (A) (A) (A)
                 (A) (A) (A) (A) (A) (A) (A) (A) (A) (A) (A) (A)
                 (A) (A) (A) (A) (A) (A) (A) (A) (A) (A) (A) (A)
                 (A) (A) (A)
       Virtual   (A) (A) (A) (A) (A) (A) (A) (A) (A) (A) (A) (A)
                 (A) (A) (A) (A) (A) (A) (A) (A) (A) (A) (A) (A)
                 (A) (A) (A) (A) (A) (A) (A) (A) (A) (A) (A) (A)
                 (A) (A) (A) (A) (A) (A) (A) (A) (A) (A) (A) (A)
                 (A) (A) (A) (A) (A) (A) (A) (A) (A) (A) (A) (A)
                 (A) (A) (A) (A) (A) (A) (A) (A) (A) (A) (A) (A)
                 (A) (A) (A) (A) (A) (A) (A) (A) (A) (A) (A) (A)
                 (A) (A) (A) (A) (A) (A) (A) (A) (A) (A) (A) (A)
                 (A) (A) (A) (A) (A) (A) (A) (A) (A) (A) (A) (A)
                 (A) (A) (A) (A) (A) (A) (A) (A) (A) (A) (A) (A)
                 (A) (A) (A) (A) (A) (A) (A) (A) (A) (A) (A) (A)
                 (A) (A) (A) (A) (A) (A) (A) (A) (A) (A) (A) (A)
                 (A) (A) (A) (A) (A) (A) (A) (A) (A) (A) (A) (A)
                 (A) (A) (A) (A) (A) (A) (A) (A) (A) (A) (A) (A)
                 (A) (A) (A) (A) (A)
 The electronic state is 1-A.
 Alpha  occ. eigenvalues --  -77.07797 -77.07796 -10.16596 -10.16596 -10.16596
 Alpha  occ. eigenvalues --  -10.16595 -10.16594 -10.16593  -6.55735  -6.55734
 Alpha  occ. eigenvalues --   -4.71920  -4.71920  -4.71920  -4.71920  -4.71560
 Alpha  occ. eigenvalues --   -4.71559  -3.81468  -2.07728  -2.04786  -2.04784
 Alpha  occ. eigenvalues --   -0.77082  -0.76934  -0.70173  -0.70172  -0.70167
 Alpha  occ. eigenvalues --   -0.70165  -0.54387  -0.53489  -0.44546  -0.43962
 Alpha  occ. eigenvalues --   -0.43280  -0.43280  -0.43226  -0.43226  -0.40803
 Alpha  occ. eigenvalues --   -0.40802  -0.40754  -0.40753  -0.39617  -0.39613
 Alpha  occ. eigenvalues --   -0.34543  -0.34542  -0.34329  -0.34328  -0.31502
 Alpha  occ. eigenvalues --   -0.21621  -0.19182  -0.19178  -0.16370  -0.16236
 Alpha  occ. eigenvalues --   -0.16233
 Alpha virt. eigenvalues --   -0.00369   0.00193   0.00198   0.00568   0.03044
 Alpha virt. eigenvalues --    0.03333   0.03334   0.05365   0.05367   0.05565
 Alpha virt. eigenvalues --    0.06233   0.06307   0.06308   0.06487   0.06487
 Alpha virt. eigenvalues --    0.07327   0.08916   0.08917   0.08960   0.09930
 Alpha virt. eigenvalues --    0.09931   0.10607   0.11858   0.11858   0.11895
 Alpha virt. eigenvalues --    0.11988   0.12036   0.12596   0.12600   0.13418
 Alpha virt. eigenvalues --    0.13419   0.15324   0.15325   0.15785   0.15946
 Alpha virt. eigenvalues --    0.16097   0.16098   0.16161   0.16242   0.16243
 Alpha virt. eigenvalues --    0.16817   0.17939   0.17944   0.19834   0.19839
 Alpha virt. eigenvalues --    0.20082   0.21269   0.21844   0.21940   0.21941
 Alpha virt. eigenvalues --    0.23195   0.25614   0.25618   0.26452   0.26998
 Alpha virt. eigenvalues --    0.28453   0.28455   0.31083   0.31086   0.31485
 Alpha virt. eigenvalues --    0.31488   0.32497   0.34164   0.35746   0.35748
 Alpha virt. eigenvalues --    0.39621   0.39628   0.39669   0.42494   0.44719
 Alpha virt. eigenvalues --    0.48302   0.48557   0.48559   0.50789   0.50790
 Alpha virt. eigenvalues --    0.55235   0.58117   0.58121   0.60588   0.60589
 Alpha virt. eigenvalues --    0.69378   0.69382   0.69618   0.70850   0.70857
 Alpha virt. eigenvalues --    0.72357   0.72937   0.72939   0.75073   0.77079
 Alpha virt. eigenvalues --    0.79377   0.80373   0.80404   0.81035   0.81691
 Alpha virt. eigenvalues --    0.81700   0.83852   0.83854   0.86789   0.86793
 Alpha virt. eigenvalues --    0.90025   0.90029   0.91356   0.94087   0.94090
 Alpha virt. eigenvalues --    0.97763   0.97764   0.98594   0.99460   1.00079
 Alpha virt. eigenvalues --    1.00081   1.00377   1.01718   1.01721   1.03655
 Alpha virt. eigenvalues --    1.04365   1.04369   1.05948   1.05950   1.07100
 Alpha virt. eigenvalues --    1.07207   1.07210   1.18098   1.20140   1.21326
 Alpha virt. eigenvalues --    1.21330   1.22201   1.22206   1.34186   1.34187
 Alpha virt. eigenvalues --    1.36551   1.37487   1.37489   1.45930   1.47660
 Alpha virt. eigenvalues --    1.49513   1.49520   1.64934   1.64994   1.70475
 Alpha virt. eigenvalues --    1.70710   1.70713   1.71749   1.71753   1.83470
 Alpha virt. eigenvalues --    1.83475   1.85841   1.85946   1.87602   1.87605
 Alpha virt. eigenvalues --    2.15754   2.16389   2.29094   2.29095   2.30733
 Alpha virt. eigenvalues --    2.30734   2.31986   2.32119   2.32925   2.33131
 Alpha virt. eigenvalues --    2.33135   2.33446   2.33448   2.33964   2.34107
 Alpha virt. eigenvalues --    2.34109   2.35763   2.35765   2.73107  45.93792
 Alpha virt. eigenvalues --   45.93795  46.12788 114.39560
          Condensed to atoms (all electrons):
               1          2          3          4          5          6
     1  Pt  18.212940   0.604529   0.604531  -0.134628  -0.016609   0.023892
     2  P    0.604529  14.055365   0.122895  -0.006764  -0.015050  -0.036552
     3  P    0.604531   0.122895  14.055365  -0.013382  -0.001211   0.000569
     4  C   -0.134628  -0.006764  -0.013382   6.068921   0.375289   0.347555
     5  H   -0.016609  -0.015050  -0.001211   0.375289   0.441340  -0.027221
     6  H    0.023892  -0.036552   0.000569   0.347555  -0.027221   0.512512
     7  H   -0.016604  -0.015100  -0.001211   0.375280  -0.020045  -0.027228
     8  C   -0.134667  -0.007802  -0.013437  -0.096810  -0.006531  -0.011399
     9  H   -0.016637  -0.014970  -0.001219   0.011618  -0.000006  -0.000033
    10  H    0.023884  -0.036564   0.000570  -0.011432  -0.000068   0.002414
    11  H   -0.016575  -0.015073  -0.001204  -0.006471   0.000786  -0.000069
    12  C   -0.134801  -0.006931  -0.013424  -0.096717   0.011626  -0.011440
    13  H   -0.016618  -0.015132  -0.001217  -0.006526  -0.000006  -0.000069
    14  H    0.023909  -0.036571   0.000571  -0.011359  -0.000033   0.002423
    15  H   -0.016596  -0.015029  -0.001205   0.011609  -0.000032  -0.000033
    16  C   -0.134631  -0.013384  -0.006762   0.008300   0.000026  -0.000027
    17  H   -0.016606  -0.001212  -0.015064   0.000026  -0.000000   0.000000
    18  H    0.023892   0.000569  -0.036552  -0.000027   0.000000   0.000000
    19  H   -0.016607  -0.001210  -0.015086   0.000026   0.000000   0.000000
    20  C   -0.134777  -0.013482  -0.007553  -0.002987   0.000019   0.000025
    21  H    0.023885   0.000570  -0.036547   0.000025   0.000000  -0.000000
    22  H   -0.016612  -0.001211  -0.015012   0.000030  -0.000000  -0.000000
    23  H   -0.016591  -0.001210  -0.015089   0.000019   0.000000   0.000000
    24  C   -0.134689  -0.013377  -0.007180  -0.002994   0.000030   0.000025
    25  H   -0.016620  -0.001213  -0.014985   0.000030   0.000000  -0.000000
    26  H    0.023907   0.000571  -0.036587   0.000025  -0.000000  -0.000000
    27  H   -0.016602  -0.001211  -0.015113   0.000019  -0.000000   0.000000
               7          8          9         10         11         12
     1  Pt  -0.016604  -0.134667  -0.016637   0.023884  -0.016575  -0.134801
     2  P   -0.015100  -0.007802  -0.014970  -0.036564  -0.015073  -0.006931
     3  P   -0.001211  -0.013437  -0.001219   0.000570  -0.001204  -0.013424
     4  C    0.375280  -0.096810   0.011618  -0.011432  -0.006471  -0.096717
     5  H   -0.020045  -0.006531  -0.000006  -0.000068   0.000786   0.011626
     6  H   -0.027228  -0.011399  -0.000033   0.002414  -0.000069  -0.011440
     7  H    0.441439   0.011622  -0.000032  -0.000033  -0.000006  -0.006476
     8  C    0.011622   6.069796   0.375277   0.347539   0.375224  -0.096708
     9  H   -0.000032   0.375277   0.441299  -0.027232  -0.020030  -0.006549
    10  H   -0.000033   0.347539  -0.027232   0.512507  -0.027221  -0.011377
    11  H   -0.000006   0.375224  -0.020030  -0.027221   0.441422   0.011614
    12  C   -0.006476  -0.096708  -0.006549  -0.011377   0.011614   6.069157
    13  H    0.000784   0.011637  -0.000006  -0.000033  -0.000032   0.375363
    14  H   -0.000070  -0.011457  -0.000068   0.002418  -0.000033   0.347518
    15  H   -0.000006  -0.006473   0.000785  -0.000070  -0.000006   0.375209
    16  C    0.000026  -0.002999   0.000031   0.000025   0.000019  -0.002982
    17  H    0.000000   0.000030   0.000000  -0.000000  -0.000000   0.000019
    18  H    0.000000   0.000025  -0.000000  -0.000000   0.000000   0.000025
    19  H   -0.000000   0.000019  -0.000000   0.000000   0.000000   0.000030
    20  C    0.000030   0.008320   0.000026  -0.000027   0.000026  -0.002989
    21  H   -0.000000  -0.000027   0.000000   0.000000   0.000000   0.000025
    22  H    0.000000   0.000026   0.000000   0.000000  -0.000000   0.000019
    23  H   -0.000000   0.000026  -0.000000   0.000000   0.000000   0.000030
    24  C    0.000019  -0.002988   0.000019   0.000025   0.000030   0.008299
    25  H   -0.000000   0.000019   0.000000   0.000000  -0.000000   0.000026
    26  H    0.000000   0.000025   0.000000  -0.000000  -0.000000  -0.000027
    27  H    0.000000   0.000030  -0.000000  -0.000000   0.000000   0.000026
              13         14         15         16         17         18
     1  Pt  -0.016618   0.023909  -0.016596  -0.134631  -0.016606   0.023892
     2  P   -0.015132  -0.036571  -0.015029  -0.013384  -0.001212   0.000569
     3  P   -0.001217   0.000571  -0.001205  -0.006762  -0.015064  -0.036552
     4  C   -0.006526  -0.011359   0.011609   0.008300   0.000026  -0.000027
     5  H   -0.000006  -0.000033  -0.000032   0.000026  -0.000000   0.000000
     6  H   -0.000069   0.002423  -0.000033  -0.000027   0.000000   0.000000
     7  H    0.000784  -0.000070  -0.000006   0.000026   0.000000   0.000000
     8  C    0.011637  -0.011457  -0.006473  -0.002999   0.000030   0.000025
     9  H   -0.000006  -0.000068   0.000785   0.000031   0.000000  -0.000000
    10  H   -0.000033   0.002418  -0.000070   0.000025  -0.000000  -0.000000
    11  H   -0.000032  -0.000033  -0.000006   0.000019  -0.000000   0.000000
    12  C    0.375363   0.347518   0.375209  -0.002982   0.000019   0.000025
    13  H    0.441333  -0.027238  -0.020037   0.000019   0.000000   0.000000
    14  H   -0.027238   0.512537  -0.027208   0.000025   0.000000  -0.000000
    15  H   -0.020037  -0.027208   0.441387   0.000029  -0.000000  -0.000000
    16  C    0.000019   0.000025   0.000029   6.068919   0.375271   0.347555
    17  H    0.000000   0.000000  -0.000000   0.375271   0.441435  -0.027226
    18  H    0.000000  -0.000000  -0.000000   0.347555  -0.027226   0.512511
    19  H   -0.000000  -0.000000   0.000000   0.375297  -0.020045  -0.027223
    20  C    0.000031   0.000025   0.000019  -0.096725   0.011625  -0.011433
    21  H   -0.000000  -0.000000   0.000000  -0.011401  -0.000033   0.002418
    22  H   -0.000000   0.000000   0.000000   0.011614  -0.000032  -0.000033
    23  H    0.000000  -0.000000  -0.000000  -0.006497  -0.000006  -0.000069
    24  C    0.000026  -0.000027   0.000026  -0.096800  -0.006505  -0.011407
    25  H   -0.000000   0.000000   0.000000   0.011613  -0.000006  -0.000033
    26  H    0.000000   0.000000   0.000000  -0.011391  -0.000069   0.002419
    27  H    0.000000   0.000000  -0.000000  -0.006500   0.000785  -0.000069
              19         20         21         22         23         24
     1  Pt  -0.016607  -0.134777   0.023885  -0.016612  -0.016591  -0.134689
     2  P   -0.001210  -0.013482   0.000570  -0.001211  -0.001210  -0.013377
     3  P   -0.015086  -0.007553  -0.036547  -0.015012  -0.015089  -0.007180
     4  C    0.000026  -0.002987   0.000025   0.000030   0.000019  -0.002994
     5  H    0.000000   0.000019   0.000000  -0.000000   0.000000   0.000030
     6  H    0.000000   0.000025  -0.000000  -0.000000   0.000000   0.000025
     7  H   -0.000000   0.000030  -0.000000   0.000000  -0.000000   0.000019
     8  C    0.000019   0.008320  -0.000027   0.000026   0.000026  -0.002988
     9  H   -0.000000   0.000026   0.000000   0.000000  -0.000000   0.000019
    10  H    0.000000  -0.000027   0.000000   0.000000   0.000000   0.000025
    11  H    0.000000   0.000026   0.000000  -0.000000   0.000000   0.000030
    12  C    0.000030  -0.002989   0.000025   0.000019   0.000030   0.008299
    13  H   -0.000000   0.000031  -0.000000  -0.000000   0.000000   0.000026
    14  H   -0.000000   0.000025  -0.000000   0.000000  -0.000000  -0.000027
    15  H    0.000000   0.000019   0.000000   0.000000  -0.000000   0.000026
    16  C    0.375297  -0.096725  -0.011401   0.011614  -0.006497  -0.096800
    17  H   -0.020045   0.011625  -0.000033  -0.000032  -0.000006  -0.006505
    18  H   -0.027223  -0.011433   0.002418  -0.000033  -0.000069  -0.011407
    19  H    0.441344  -0.006503  -0.000069  -0.000006   0.000785   0.011622
    20  C   -0.006503   6.069599   0.347520   0.375250   0.375283  -0.096712
    21  H   -0.000069   0.347520   0.512508  -0.027223  -0.027229  -0.011412
    22  H   -0.000006   0.375250  -0.027223   0.441335  -0.020031  -0.006507
    23  H    0.000785   0.375283  -0.027229  -0.020031   0.441384   0.011623
    24  C    0.011622  -0.096712  -0.011412  -0.006507   0.011623   6.069354
    25  H   -0.000032  -0.006515  -0.000069   0.000785  -0.000006   0.375233
    26  H   -0.000033  -0.011423   0.002418  -0.000069  -0.000033   0.347537
    27  H   -0.000006   0.011628  -0.000033  -0.000006  -0.000032   0.375304
              25         26         27
     1  Pt  -0.016620   0.023907  -0.016602
     2  P   -0.001213   0.000571  -0.001211
     3  P   -0.014985  -0.036587  -0.015113
     4  C    0.000030   0.000025   0.000019
     5  H    0.000000  -0.000000  -0.000000
     6  H   -0.000000  -0.000000   0.000000
     7  H   -0.000000   0.000000   0.000000
     8  C    0.000019   0.000025   0.000030
     9  H    0.000000   0.000000  -0.000000
    10  H    0.000000  -0.000000  -0.000000
    11  H   -0.000000  -0.000000   0.000000
    12  C    0.000026  -0.000027   0.000026
    13  H   -0.000000   0.000000   0.000000
    14  H    0.000000   0.000000   0.000000
    15  H    0.000000   0.000000  -0.000000
    16  C    0.011613  -0.011391  -0.006500
    17  H   -0.000006  -0.000069   0.000785
    18  H   -0.000033   0.002419  -0.000069
    19  H   -0.000032  -0.000033  -0.000006
    20  C   -0.006515  -0.011423   0.011628
    21  H   -0.000069   0.002418  -0.000033
    22  H    0.000785  -0.000069  -0.000006
    23  H   -0.000006  -0.000033  -0.000032
    24  C    0.375233   0.347537   0.375304
    25  H    0.441353  -0.027217  -0.020036
    26  H   -0.027217   0.512536  -0.027230
    27  H   -0.020036  -0.027230   0.441372
 Mulliken charges:
               1
     1  Pt  -0.557897
     2  P    0.484548
     3  P    0.484541
     4  C   -0.808674
     5  H    0.257697
     6  H    0.224657
     7  H    0.257611
     8  C   -0.808317
     9  H    0.257728
    10  H    0.224676
    11  H    0.257598
    12  C   -0.808566
    13  H    0.257721
    14  H    0.224639
    15  H    0.257632
    16  C   -0.808672
    17  H    0.257612
    18  H    0.224658
    19  H    0.257696
    20  C   -0.808301
    21  H    0.224673
    22  H    0.257684
    23  H    0.257644
    24  C   -0.808576
    25  H    0.257674
    26  H    0.224642
    27  H    0.257675
 Sum of Mulliken charges =  -0.00000
 Mulliken charges with hydrogens summed into heavy atoms:
               1
     1  Pt  -0.557897
     2  P    0.484548
     3  P    0.484541
     4  C   -0.068709
     8  C   -0.068315
    12  C   -0.068575
    16  C   -0.068707
    20  C   -0.068301
    24  C   -0.068585
 Electronic spatial extent (au):  <R**2>=           3206.5778
 Charge=             -0.0000 electrons
 Dipole moment (field-independent basis, Debye):
    X=             -0.0000    Y=              0.0000    Z=              0.0000  Tot=              0.0000
 Quadrupole moment (field-independent basis, Debye-Ang):
   XX=            -75.5970   YY=            -88.7572   ZZ=            -84.4725
   XY=             -4.4259   XZ=             -9.0465   YZ=              2.7580
 Traceless Quadrupole moment (field-independent basis, Debye-Ang):
   XX=              7.3452   YY=             -5.8149   ZZ=             -1.5303
   XY=             -4.4259   XZ=             -9.0465   YZ=              2.7580
 Octapole moment (field-independent basis, Debye-Ang**2):
  XXX=             -0.0012  YYY=             -0.0011  ZZZ=             -0.0004  XYY=              0.0005
  XXY=             -0.0010  XXZ=              0.0004  XZZ=              0.0014  YZZ=              0.0054
  YYZ=              0.0001  XYZ=              0.0004
 Hexadecapole moment (field-independent basis, Debye-Ang**3):
 XXXX=          -2323.8670 YYYY=           -750.4807 ZZZZ=          -1285.5233 XXXY=            249.4645
 XXXZ=            526.4213 YYYX=            280.1378 YYYZ=           -167.3512 ZZZX=            548.0409
 ZZZY=           -168.5212 XXYY=           -521.7551 XXZZ=           -581.8558 YYZZ=           -328.4062
 XXYZ=            -47.6597 YYXZ=            181.4876 ZZXY=             85.5705
 N-N= 7.846623866971D+02 E-N=-3.997201923084D+03  KE= 9.602273050346D+02
 No NMR shielding tensors so no spin-rotation constants.
 Leave Link  601 at Wed Oct 30 13:05:56 2019, MaxMem=   140000000 cpu:               6.6 elap:               0.3
 (Enter /usr/g16/l701.exe)
 ... and contract with generalized density number  0.
 Compute integral first derivatives.
 R6Disp: Adding Grimme-D3(BJ) dispersion energy 1st derivatives to the gradient.
   1 Symmetry operations used in ECPInt.
 ECPInt:  NShTT=    4278 NPrTT=   20540 LenC2=    4071 LenP2D=   13436.
 LDataN:  DoStor=T MaxTD1= 8 Len=  415
 Number of processors reduced to  20 by ecpmxn.
 D1PCM: PCM CHGder 1st derivatives, ID1Alg=3 FixD1E=F DoIter=F DoCFld=F I1PDM=0.
 GePol: Maximum number of non-zero 1st derivatives   =     256
 Leave Link  701 at Wed Oct 30 13:05:59 2019, MaxMem=   140000000 cpu:              57.0 elap:               2.5
 (Enter /usr/g16/l702.exe)
 L702 exits ... SP integral derivatives will be done elsewhere.
 Leave Link  702 at Wed Oct 30 13:05:59 2019, MaxMem=   140000000 cpu:               2.5 elap:               0.1
 (Enter /usr/g16/l703.exe)
 Integral derivatives from FoFJK, PRISM(SPDF).
 Compute integral first derivatives, UseDBF=F ICtDFT=           0.
 Calling FoFJK, ICntrl=      2127 FMM=F ISym2X=0 I1Cent= 0 IOpClX= 0 NMat=1 NMatS=1 NMatT=0.
 FoFJK:  IHMeth= 1 ICntrl=    2127 DoSepK=F KAlg= 0 I1Cent=           0 FoldK=F
 IRaf=         0 NMat=       1 IRICut=       1 DoRegI=T DoRafI=F ISym2E= 0 IDoP0=0 IntGTp=1.
 FoFCou: FMM=F IPFlag=           0 FMFlag=      100000 FMFlg1=         800
         NFxFlg=           0 DoJE=F BraDBF=F KetDBF=F FulRan=T
         wScrn=  0.000000 ICntrl=      2127 IOpCl=  0 I1Cent=           0 NGrid=           0
         NMat0=    1 NMatS0=      1 NMatT0=    0 NMatD0=    1 NMtDS0=    0 NMtDT0=    0
 Symmetry not used in FoFCou.
 Defaulting to unpruned grid for atomic number  78.
 Defaulting to unpruned grid for atomic number  78.
 Defaulting to unpruned grid for atomic number  78.
 Defaulting to unpruned grid for atomic number  78.
 Defaulting to unpruned grid for atomic number  78.
 Defaulting to unpruned grid for atomic number  78.
 Defaulting to unpruned grid for atomic number  78.
 Defaulting to unpruned grid for atomic number  78.
 Defaulting to unpruned grid for atomic number  78.
 Defaulting to unpruned grid for atomic number  78.
 Defaulting to unpruned grid for atomic number  78.
 Defaulting to unpruned grid for atomic number  78.
 Defaulting to unpruned grid for atomic number  78.
 Defaulting to unpruned grid for atomic number  78.
 Defaulting to unpruned grid for atomic number  78.
 Defaulting to unpruned grid for atomic number  78.
 Defaulting to unpruned grid for atomic number  78.
 Defaulting to unpruned grid for atomic number  78.
 Defaulting to unpruned grid for atomic number  78.
 Defaulting to unpruned grid for atomic number  78.
 Defaulting to unpruned grid for atomic number  78.
 Defaulting to unpruned grid for atomic number  78.
 Defaulting to unpruned grid for atomic number  78.
 Defaulting to unpruned grid for atomic number  78.
 Leave Link  703 at Wed Oct 30 13:06:07 2019, MaxMem=   140000000 cpu:             204.9 elap:               8.6
 (Enter /usr/g16/l716.exe)
 Dipole        =-4.54081725D-06 5.12233566D-06 5.03654622D-06
 ***** Axes restored to original set *****
 -------------------------------------------------------------------
 Center     Atomic                   Forces (Hartrees/Bohr)
 Number     Number              X              Y              Z
 -------------------------------------------------------------------
      1       78          -0.000000079    0.000000333    0.000003824
      2       15          -0.067924429   -0.000121733   -0.000067502
      3       15           0.067923859    0.000122144    0.000074885
      4        6           0.012083529   -0.018551180    0.000638844
      5        1          -0.006896618    0.007405035    0.012970943
      6        1           0.021492434    0.005821007   -0.000202302
      7        1          -0.006896578    0.006474466   -0.013451860
      8        6           0.012129774    0.008717980   -0.016416948
      9        1          -0.006923268   -0.014910578   -0.000052588
     10        1           0.021479414   -0.002763665    0.005132953
     11        1          -0.006874643    0.008419251    0.012356230
     12        6           0.012137593    0.009920751    0.015733752
     13        1          -0.006923755    0.007509331   -0.012876528
     14        1           0.021449283   -0.003092106   -0.004966026
     15        1          -0.006866856   -0.014905448    0.001120062
     16        6          -0.012083467    0.018551244   -0.000638066
     17        1           0.006897234   -0.006477159    0.013449466
     18        1          -0.021492395   -0.005821017    0.000201352
     19        1           0.006895999   -0.007402593   -0.012973416
     20        6          -0.012126664   -0.008736686    0.016406586
     21        1          -0.021479289    0.002742176   -0.005143458
     22        1           0.006901888    0.014925937    0.000065773
     23        1           0.006896561   -0.008399308   -0.012351569
     24        6          -0.012141343   -0.009903364   -0.015744703
     25        1           0.006887848    0.014891357   -0.001106027
     26        1          -0.021449380    0.003112221    0.004954253
     27        1           0.006903348   -0.007528393    0.012882067
 -------------------------------------------------------------------
 Cartesian Forces:  Max     0.067924429 RMS     0.015070684
 Leave Link  716 at Wed Oct 30 13:06:08 2019, MaxMem=   140000000 cpu:               2.1 elap:               0.1
 (Enter /usr/g16/l103.exe)

 GradGradGradGradGradGradGradGradGradGradGradGradGradGradGradGradGradGrad
 Berny optimization.
 FormGI is forming the generalized inverse of G from B-inverse, IUseBI=4.
 Internal  Forces:  Max     0.021490858 RMS     0.007829699
 Search for a local minimum.
 Step number   1 out of a maximum of  149
 All quantities printed in internal units (Hartrees-Bohrs-Radians)
 RMS Force = .78297D-02 SwitMx=.10000D-02 MixMth= 1
 Mixed Optimization -- RFO/linear search
 Second derivative matrix not updated -- first step.
 ITU=  0
     Eigenvalues ---    0.00230   0.00230   0.00230   0.00900   0.00900
     Eigenvalues ---    0.00900   0.00900   0.00900   0.00900   0.05075
     Eigenvalues ---    0.05075   0.05252   0.05282   0.05282   0.05425
     Eigenvalues ---    0.06152   0.06152   0.06152   0.06152   0.06152
     Eigenvalues ---    0.06152   0.06152   0.06152   0.06152   0.06152
     Eigenvalues ---    0.06152   0.06152   0.14601   0.14601   0.14781
     Eigenvalues ---    0.14971   0.16000   0.16000   0.16000   0.16000
     Eigenvalues ---    0.16000   0.16000   0.16000   0.16000   0.16000
     Eigenvalues ---    0.16000   0.16000   0.16000   0.16000   0.16000
     Eigenvalues ---    0.16000   0.16000   0.16000   0.16000   0.18631
     Eigenvalues ---    0.18631   0.24602   0.24602   0.24602   0.24602
     Eigenvalues ---    0.24602   0.24602   0.37230   0.37230   0.37230
     Eigenvalues ---    0.37230   0.37230   0.37230   0.37230   0.37230
     Eigenvalues ---    0.37230   0.37230   0.37230   0.37230   0.37230
     Eigenvalues ---    0.37230   0.37230   0.37230   0.37230   0.37230
 RFO step:  Lambda=-3.52533734D-02 EMin= 2.30000000D-03
 Linear search not attempted -- first point.
 Maximum step size (   0.300) exceeded in Quadratic search.
    -- Step size scaled by   0.967
 Iteration  1 RMS(Cart)=  0.05763285 RMS(Int)=  0.00171523
 Iteration  2 RMS(Cart)=  0.00324561 RMS(Int)=  0.00095207
 Iteration  3 RMS(Cart)=  0.00000531 RMS(Int)=  0.00095207
 Iteration  4 RMS(Cart)=  0.00000001 RMS(Int)=  0.00095207
 ITry= 1 IFail=0 DXMaxC= 1.80D-01 DCOld= 1.00D+10 DXMaxT= 3.00D-01 DXLimC= 3.00D+00 Rises=F
 Variable       Old X    -DE/DX   Delta X   Delta X   Delta X     New X
                                 (Linear)    (Quad)   (Total)
    R1        4.42196  -0.00853   0.00000  -0.03725  -0.03725   4.38471
    R2        4.42196  -0.00853   0.00000  -0.03725  -0.03725   4.38471
    R3        3.43930   0.00769   0.00000   0.02643   0.02643   3.46573
    R4        3.43930   0.00770   0.00000   0.02647   0.02647   3.46577
    R5        3.43930   0.00766   0.00000   0.02633   0.02633   3.46563
    R6        3.43930   0.00769   0.00000   0.02643   0.02643   3.46573
    R7        3.43930   0.00770   0.00000   0.02647   0.02647   3.46577
    R8        3.43930   0.00766   0.00000   0.02633   0.02633   3.46563
    R9        2.02201   0.01637   0.00000   0.03885   0.03885   2.06086
   R10        2.02201   0.02149   0.00000   0.05100   0.05100   2.07301
   R11        2.02201   0.01636   0.00000   0.03883   0.03883   2.06083
[...]
 04017,0.00000842,0.00001354,0.00000929,0.00005854,0.00007306,0.0000198
 1,-0.00001349,-0.00002886,-0.00000138,0.00005045,0.00002192,-0.0000262
 6,-0.00001342,-0.00000008,-0.00000608,0.00003250,-0.00000869,0.0000212
 9,-0.00001055,0.00000322,0.00000603,0.00031011,0.00000252,0.00005799,-
 0.00000989,0.00002608,0.00001410,0.00006993,-0.00007085,-0.00008587,0.
 00000434,-0.00001434,0.00000784,-0.00118505,0.00119836,-0.00002714,-0.
 00041912,-0.00054881,0.00038196,-0.00022585,-0.00071099,-0.00016056,0.
 00001602,0.00009573,0.00025452,-0.05644525,0.05479838,0.44633257,-0.00
 124809,0.00094430,-0.00178362,0.00094673,-0.00022355,0.00042418,-0.010
 44185,-0.00021257,0.00052194,-0.00027038,0.00006995,-0.00001553,0.0000
 0872,0.00000196,-0.00000548,-0.00007302,-0.00009379,-0.00000586,0.0000
 1916,0.00001538,0.00000485,-0.00011458,-0.00001492,0.00003228,0.000016
 52,-0.00000624,0.00000425,-0.00006330,0.00001865,-0.00003553,0.0000184
 2,-0.00000088,0.00000729,-0.00027093,-0.00002882,-0.00006585,0.0000198
 3,-0.00001326,-0.00000957,-0.00007400,0.00005714,0.00007510,0.00000831
 ,0.00000328,-0.00000489,0.00104722,-0.00050284,0.00049709,0.00025041,-
 0.00016972,0.00004260,0.00043274,0.00067736,-0.00009845,-0.00005028,-0
 .00000955,-0.00002060,-0.31127360,-0.01298037,0.02438961,0.33394377,0.
 00035886,-0.00018029,0.00161154,-0.00029615,0.00012407,-0.00053406,0.0
 1154539,-0.00111863,0.00070220,0.00013430,-0.00002823,0.00002765,0.000
 00113,0.00000317,0.00000473,0.00003569,0.00004949,0.00000644,-0.000001
 27,-0.00001324,-0.00000472,0.00000707,0.00000912,-0.00000859,-0.000002
 66,-0.00000525,0.00000317,0.00001863,-0.00000700,0.00000750,-0.0000065
 6,-0.00000140,0.00000128,0.00024296,0.00002547,0.00006219,-0.00001117,
 0.00001090,0.00000896,0.00005176,-0.00005413,-0.00006650,-0.00000191,-
 0.00000762,0.00000222,0.00045483,0.00063680,-0.00086927,-0.00017281,0.
 00030676,-0.00009666,-0.00037500,-0.00031398,0.00031511,0.00001381,-0.
 00010406,0.00002789,-0.00854921,-0.04722714,-0.00214082,0.01305003,0.0
 4606240,-0.00068479,0.00161187,-0.00235559,0.00056327,-0.00053440,0.00
 084737,-0.02160064,0.00067450,-0.00207985,-0.00038490,0.00009850,-0.00
 003631,0.00000205,-0.00000506,-0.00001223,-0.00008668,-0.00013661,-0.0
 0001400,0.00001433,0.00002545,0.00000761,-0.00001440,-0.00000711,0.000
 02125,0.00000897,0.00000360,-0.00000458,-0.00003558,0.00000759,-0.0000
 1748,0.00000843,0.00000028,-0.00000819,-0.00032823,-0.00000950,-0.0000
 8876,0.00000960,-0.00002138,-0.00001607,-0.00007907,0.00007652,0.00009
 075,0.00000006,0.00001179,-0.00000182,0.00037113,-0.00134139,0.0011125
 9,0.00004202,-0.00051044,0.00001367,0.00055407,0.00044260,0.00003848,0
 .00008111,0.00000275,-0.00002348,0.01601483,-0.00211056,-0.04426750,-0
 .02466141,-0.00058098,0.04690693,-0.00012057,-0.00030648,0.00009282,-0
 .00013049,0.00005759,-0.00000233,0.00296564,0.01131457,0.00072105,0.00
 005973,-0.00001217,-0.00000387,-0.00000662,-0.00000005,-0.00000205,0.0
 0001793,0.00001278,0.00000500,-0.00001985,-0.00000758,0.00000611,0.000
 03529,0.00000231,-0.00001338,-0.00000320,0.00000349,-0.00000063,0.0000
 1655,-0.00000271,0.00000892,-0.00000614,0.00000109,-0.00000424,0.00000
 526,-0.00000697,-0.00000475,-0.00000569,0.00000609,0.00000564,0.000008
 19,-0.00000194,0.00000019,0.00000340,-0.00000194,0.00000016,-0.0011692
 0,0.00084518,-0.00270711,0.00078107,0.00089193,-0.00013880,0.00025522,
 0.00011353,-0.00013593,-0.00015995,-0.00032008,0.00004953,-0.06844838,
 -0.07371564,0.00675864,-0.00725936,-0.03129907,0.00234613,0.07113992,-
 0.00016410,0.00070510,-0.00011631,0.00011258,-0.00004296,-0.00007099,-
 0.00365513,-0.00893418,-0.00123734,-0.00001622,0.00000634,0.00001300,0
 .00000234,0.00000071,0.00000063,-0.00000213,-0.00000444,-0.00000053,0.
 00001025,0.00000104,-0.00000177,0.00000081,0.00000877,-0.00000004,0.00
 000352,-0.00000685,0.00000180,-0.00000596,-0.00000524,0.00000354,0.000
 00321,-0.00000047,0.00000430,0.00003657,0.00000843,0.00001456,0.000002
 07,-0.00000429,-0.00000323,0.00000325,-0.00000838,-0.00001128,-0.00000
 192,-0.00000031,-0.00000204,0.00170060,-0.00053808,0.00242017,-0.00051
 512,-0.00062293,-0.00014232,0.00011447,0.00030812,-0.00009486,0.000042
 61,0.00026626,-0.00013295,-0.07731234,-0.29695834,0.01668371,0.0004064
 7,0.00133379,-0.00024893,0.08334290,0.31713764,0.00029663,-0.00088760,
 0.00019437,-0.00017230,0.00017488,-0.00004594,0.00692410,0.01959356,-0
 .00121395,0.00009286,-0.00003091,0.00000466,-0.00000787,-0.00000159,-0
 .00000485,0.00001592,0.00002965,-0.00000113,-0.00000542,0.00000290,0.0
 0000137,-0.00001885,-0.00000560,-0.00000620,-0.00000070,0.00000177,0.0
 0000092,0.00000435,0.00000318,-0.00000446,-0.00000328,0.00000212,-0.00
 000442,0.00000559,-0.00001292,0.00000794,0.00000066,-0.00000096,-0.000
 00035,0.00000441,-0.00000167,-0.00000064,0.00000007,0.00000159,-0.0000
 0575,-0.00268324,0.00201610,-0.00489054,0.00074113,0.00179408,0.000180
 67,-0.00013615,-0.00050824,0.00001158,-0.00016341,-0.00002903,0.000155
 67,0.00919037,0.02253135,-0.04385757,0.00051842,0.00230073,-0.00127068
 ,-0.00615574,-0.01896936,0.04654696,-0.00009743,0.00009759,0.00033390,
 -0.00015284,-0.00003067,-0.00004632,0.00299434,-0.00698625,-0.00910552
 ,0.00000874,0.00000743,0.00000445,0.00000309,0.00000076,0.00000175,0.0
 0000948,0.00000181,0.00000173,-0.00000606,-0.00000870,-0.00000141,0.00
 003966,0.00000938,-0.00001044,-0.00000605,0.00000325,-0.00000329,0.000
 01827,-0.00000654,0.00000827,-0.00000430,-0.00000116,-0.00000369,0.000
 06438,0.00001177,0.00000768,-0.00002143,0.00000092,0.00000895,0.000019
 87,-0.00001190,-0.00000875,-0.00000591,0.00000184,-0.00000049,-0.00001
 876,-0.00029377,0.00063993,-0.00016077,-0.00016524,-0.00003056,-0.0000
 4900,0.00006711,0.00004831,0.00019251,0.00008978,0.00004620,-0.0683649
 3,0.03554075,0.06461982,-0.00723919,0.01560934,0.02726378,0.00209728,-
 0.00410024,-0.00868239,0.07099125,-0.00015897,-0.00011368,-0.00033100,
 0.00008799,0.00000387,0.00014366,-0.00371059,0.00500334,0.01029087,-0.
 00002627,0.00000851,-0.00001308,0.00000137,-0.00000406,0.00000429,-0.0
 0000607,-0.00000938,-0.00000115,-0.00000134,-0.00000342,-0.00000136,0.
 00001329,-0.00000410,0.00000327,0.00000108,-0.00000049,0.00000213,-0.0
 0000083,-0.00000144,0.00000027,-0.00000121,0.00000004,-0.00000276,-0.0
 0006992,-0.00000347,-0.00002540,-0.00000135,0.00000164,0.00000154,-0.0
 0001259,0.00001143,0.00001929,0.00000517,-0.00000397,0.00000098,-0.000
 36029,0.00062779,-0.00083683,0.00018524,0.00023999,-0.00014748,-0.0000
 1291,-0.00005139,0.00005082,0.00000183,-0.00056327,0.00035081,0.035556
 35,-0.10532880,-0.10726803,-0.00065040,0.00048954,0.00284381,0.0094743
 3,-0.01346609,-0.02701588,-0.04141487,0.11399402,0.00030711,0.00044021
 ,0.00102218,-0.00019013,-0.00010264,-0.00009199,0.00687462,-0.01059823
 ,-0.01508657,-0.00002688,0.00001434,0.00000795,0.00000165,0.00000066,-
 0.00000181,-0.00000038,-0.00001076,0.00000001,-0.00000115,-0.00000338,
 -0.00000113,-0.00001123,0.00000808,0.00000594,-0.00000431,0.00000417,-
 0.00000437,0.00000738,0.00000124,-0.00000809,-0.00000372,-0.00000279,-
 0.00000590,0.00006637,0.00001995,0.00001437,-0.00001058,-0.00000302,0.
 00000021,0.00001101,-0.00001137,-0.00001747,-0.00000635,0.00000334,-0.
 00000084,0.00031835,-0.00034802,0.00113121,-0.00026784,-0.00004280,0.0
 0018405,-0.00001898,0.00002935,-0.00007616,0.00009915,0.00074120,-0.00
 004050,0.06891246,-0.11304870,-0.23578530,-0.00004279,0.00030500,-0.00
 045071,-0.00146700,0.00188800,0.00354367,-0.07218324,0.11849054,0.2499
 5561,-0.00442605,0.00631461,0.01010700,0.00188644,-0.00183140,-0.00293
 373,-0.07035669,0.03049263,0.04865893,-0.00115467,0.00029065,0.0000940
 9,0.00006206,0.00008918,-0.00003354,-0.00026880,-0.00040069,0.00007458
 ,0.00000697,-0.00001110,0.00003537,-0.00115183,-0.00003729,0.00030953,
 0.00000505,0.00003638,0.00000564,-0.00027035,0.00024263,-0.00032687,0.
 00006440,-0.00007006,0.00006622,0.00003981,-0.00002993,-0.00004341,0.0
 0003932,0.00001386,0.00001164,-0.00011509,0.00000845,0.00001400,0.0000
 3554,0.00000298,0.00001769,0.00392063,-0.00590422,-0.00808155,-0.00001
 963,0.00045183,0.00014568,0.00105425,0.00004700,-0.00060450,-0.0011901
 5,-0.00317563,-0.00013310,0.00385311,-0.00462821,-0.00891483,0.0010361
 1,-0.00055349,-0.00024229,-0.00002340,-0.00006519,0.00048489,-0.001184
 59,0.00126758,-0.00290589,0.51628628,0.00021954,0.00208311,0.00008418,
 0.00024320,-0.00052329,-0.00010851,0.01755772,-0.06976597,-0.03277664,
 -0.00024694,0.00005250,0.00001023,0.00000246,0.00001324,-0.00001681,-0
 .00004807,-0.00008865,0.00000697,-0.00000002,0.00000762,0.00001363,-0.
 00006303,0.00003228,0.00000224,-0.00000690,0.00000839,-0.00001298,-0.0
 0002854,0.00002533,-0.00000934,0.00001179,-0.00000344,0.00001989,-0.00
 003047,0.00000070,-0.00002291,0.00001064,-0.00000504,-0.00000743,-0.00
 001943,0.00001118,0.00000916,0.00000367,0.00000868,0.00000409,0.009975
 58,-0.01233552,-0.02025559,0.00069766,0.00149738,0.00032313,0.00070394
 ,0.00194518,0.00010461,-0.00276173,-0.00572769,0.00057380,-0.00396809,
 0.00700971,0.00916234,-0.00014002,-0.00005858,-0.00040514,-0.00035286,
 0.00043332,-0.00073238,0.00177068,-0.00146087,0.00305617,0.03403051,0.
 51274532,0.00036224,0.00010087,0.00217457,0.00036738,-0.00010888,-0.00
 062824,0.02794176,-0.03278913,-0.10179580,-0.00018712,0.00001056,0.000
 03667,0.00001319,0.00002744,-0.00000186,-0.00005352,-0.00006425,0.0000
 2432,-0.00000868,-0.00001379,0.00000903,-0.00030042,0.00000146,0.00005
 812,-0.00000461,0.00001452,0.00000782,-0.00006591,0.00006221,-0.000088
 75,0.00000781,-0.00002538,0.00001426,-0.00004348,-0.00002292,-0.000021
 67,0.00000894,-0.00000253,0.00000747,-0.00002905,0.00000820,0.00001896
 ,0.00001257,-0.00000085,-0.00000630,0.00034833,-0.00020499,0.00164493,
 -0.00006428,-0.00015488,0.00024372,0.00020239,0.00058306,-0.00019515,0
 .00062310,0.00097816,0.00029286,0.00915721,-0.01087968,-0.01785320,0.0
 0068683,-0.00088614,0.00179258,0.00059299,-0.00020787,0.00133619,-0.00
 221863,0.00264568,-0.00395889,0.05456444,-0.05976921,0.45476635,-0.000
 11033,-0.00032866,-0.00006861,-0.00013168,0.00005569,-0.00000124,0.002
 97097,0.01130303,-0.00149933,0.00006057,-0.00001154,0.00000600,-0.0000
 1896,-0.00000822,-0.00000525,0.00001842,0.00001241,-0.00000581,-0.0000
 0503,-0.00000005,0.00000178,0.00000530,-0.00000803,0.00000437,0.000003
 45,-0.00000200,0.00000010,0.00000836,-0.00000190,-0.00000008,-0.000005
 93,0.00000522,-0.00000624,0.00003557,0.00000353,0.00001242,-0.00000574
 ,0.00000126,0.00000381,0.00001669,-0.00000324,-0.00000881,-0.00000322,
 0.00000350,0.00000050,-0.00118389,0.00102879,0.00263558,-0.00015881,-0
 .00032224,-0.00002670,0.00025763,0.00012227,0.00012891,0.00078095,0.00
 090050,0.00007628,-0.00001943,-0.00040520,-0.00056115,-0.00004914,-0.0
 0007547,0.00003586,0.00017385,-0.00008365,0.00004786,-0.00015975,0.000
 11029,-0.00012697,-0.06850360,-0.07395150,-0.00144380,0.07117700,-0.00
 018532,0.00077911,0.00007216,0.00012215,-0.00004861,0.00007122,-0.0041
 4666,-0.01016525,0.00187809,-0.00002184,0.00000760,-0.00001343,0.00001
 019,0.00000005,0.00000225,-0.00000341,-0.00000647,0.00000084,0.0000032
 2,0.00000031,-0.00000104,0.00003696,0.00000905,-0.00001425,-0.00000192
 ,-0.00000028,0.00000164,0.00000307,-0.00000767,0.00001173,0.00000180,-
 0.00000400,0.00000336,0.00000314,0.00000858,-0.00000099,0.00000336,-0.
 00000083,-0.00000430,-0.00000618,-0.00000578,-0.00000366,0.00000346,-0
 .00000691,-0.00000106,0.00189127,-0.00087211,-0.00272276,0.00005400,0.
 00027786,0.00012274,0.00012452,0.00035016,0.00007174,-0.00056743,-0.00
 073863,0.00020587,-0.00009508,0.00048981,0.00026383,0.00002240,-0.0000
 3439,-0.00001809,-0.00008219,0.00030089,-0.00023502,0.00013848,0.00011
 523,-0.00003034,-0.07770073,-0.29852223,0.00134182,0.08350747,0.318506
 83,-0.00029552,0.00086822,0.00012593,0.00016681,-0.00017416,-0.0000391
 1,-0.00661820,-0.01900208,-0.00000081,-0.00009283,0.00003133,0.0000030
 0,0.00000417,-0.00000322,0.00000148,-0.00001623,-0.00002957,0.00000079
 ,0.00000794,0.00000103,-0.00000520,-0.00000816,0.00001291,0.00000791,0
 .00000015,-0.00000201,-0.00000568,-0.00000501,0.00000217,-0.00000180,-
 0.00000055,0.00000100,-0.00000082,0.00001792,0.00000398,-0.00000642,0.
 00000299,-0.00000228,-0.00000382,-0.00000422,-0.00000285,-0.00000386,0
 .00000043,-0.00000108,0.00000116,0.00255595,-0.00230248,-0.00455861,0.
 00015965,0.00002094,0.00014575,0.00012826,0.00048469,-0.00002910,-0.00
 070316,-0.00172954,0.00029131,-0.00046609,0.00076342,0.00127409,-0.000
 00335,-0.00004027,-0.00008584,-0.00003789,0.00015105,-0.00089128,0.000
 29367,0.00007318,0.00030783,-0.00364091,-0.00446748,-0.04257773,0.0001
 3726,-0.00027469,0.04548738,-0.00124801,0.00107010,0.00171040,0.000947
 52,-0.00025377,-0.00040714,-0.01049042,-0.00027912,-0.00050404,-0.0002
 7121,0.00007093,0.00000765,0.00001902,0.00001499,-0.00000628,-0.000073
 32,-0.00009346,0.00001192,0.00000908,0.00000231,0.00000501,-0.00027049
 ,-0.00002178,0.00006968,0.00000815,0.00000325,0.00000431,-0.00007383,0
 .00005171,-0.00007870,0.00001999,-0.00001263,0.00001086,-0.00011528,-0
 .00001917,-0.00002884,0.00001822,-0.00000136,-0.00000681,-0.00006369,0
 .00002114,0.00003423,0.00001679,-0.00000617,-0.00000429,0.00105089,-0.
 00054488,-0.00047720,-0.00004838,-0.00000793,0.00002063,0.00041846,0.0
 0068239,0.00006616,0.00025306,-0.00017296,-0.00003101,0.00104313,-0.00
 018534,-0.00067465,0.00042335,-0.00024160,0.00063938,-0.00004841,0.000
 02255,0.00000327,0.00025296,0.00004855,-0.00016977,-0.31119424,-0.0146
 1061,-0.02348841,-0.00726153,0.00036863,-0.00054769,0.33391414,0.00040
 747,-0.00041811,-0.00174876,-0.00033650,0.00020345,0.00058021,0.012941
 27,-0.00123034,-0.00077203,0.00016222,-0.00003727,-0.00002639,-0.00000
 220,-0.00001479,0.00000645,0.00004180,0.00005866,-0.00001130,0.0000008
 4,0.00000298,-0.00000570,0.00026536,0.00002069,-0.00007091,-0.00000196
 ,-0.00000837,-0.00000162,0.00005712,-0.00005425,0.00007651,-0.00001199
 ,0.00001146,-0.00001136,0.00000872,0.00001108,0.00000821,-0.00000706,-
 0.00000149,-0.00000185,0.00002132,-0.00000822,-0.00000829,-0.00000336,
 -0.00000580,-0.00000286,0.00046991,0.00079350,0.00093057,0.00000480,-0
 .00010378,-0.00002028,-0.00040423,-0.00036615,-0.00030245,-0.00017550,
 0.00034782,0.00007374,-0.00056168,0.00004305,0.00101142,-0.00028083,0.
 00027852,-0.00010051,-0.00007580,-0.00003013,0.00003785,0.00005179,-0.
 00017556,0.00023162,-0.00956118,-0.04689881,0.00231689,-0.03138887,0.0
 0117677,-0.00247732,0.01473487,0.04615142,0.00065525,-0.00174881,-0.00
 211850,-0.00053937,0.00057950,0.00076841,0.02067889,-0.00078376,-0.001
 92750,0.00037488,-0.00009827,-0.00002531,-0.00001406,-0.00002389,0.000
 00916,0.00008399,0.00013179,-0.00002229,-0.00000220,0.00000400,-0.0000
 1199,0.00030905,0.00000094,-0.00008563,0.00000020,-0.00001127,-0.00000
 056,0.00007492,-0.00006637,0.00009028,-0.00000882,0.00001927,-0.000017
 32,0.00001414,0.00000891,0.00001883,-0.00000770,-0.00000073,-0.0000083
 6,0.00003421,-0.00000818,-0.00001648,-0.00000887,-0.00000364,-0.000003
 81,-0.00038817,0.00136434,0.00097896,-0.00008037,0.00000225,-0.0000224
 0,-0.00050430,-0.00041815,0.00008231,-0.00002748,0.00048524,-0.0000269
 4,0.00027914,0.00054508,0.00167372,-0.00061812,0.00002547,-0.00059462,
 -0.00003100,0.00001544,-0.00009476,-0.00016803,-0.00018249,0.00049544,
 -0.01544311,0.00233643,-0.04455336,-0.00012358,0.00007623,-0.00111593,
 0.02375922,0.00063778,0.04676469,-0.00009240,0.00007527,-0.00034280,-0
 .00015046,-0.00002743,0.00004985,0.00294551,-0.00630439,0.00952339,0.0
 0000889,0.00000746,-0.00000428,-0.00000555,-0.00000823,0.00000197,0.00
 000936,0.00000168,-0.00000180,0.00000311,0.00000071,-0.00000188,0.0000
 6452,0.00000968,-0.00000979,-0.00000562,0.00000205,0.00000069,0.000019
 64,-0.00001118,0.00000954,-0.00002145,-0.00000129,-0.00001058,0.000039
 37,0.00001053,0.00000885,-0.00000407,-0.00000088,0.00000351,0.00001825
 ,-0.00000702,-0.00000773,-0.00000581,0.00000333,0.00000299,-0.00002095
 ,-0.00033401,-0.00061213,0.00020913,0.00009236,-0.00005101,-0.00004775
 ,0.00006294,-0.00005214,-0.00016059,-0.00016297,0.00004258,-0.00118641
 ,0.00191584,0.00208660,0.00025642,0.00006260,0.00016296,-0.00015809,0.
 00011782,-0.00030116,0.00077918,-0.00032545,0.00083915,-0.06843090,0.0
 3100082,-0.06698129,0.00210829,-0.00348333,0.00896462,-0.00723595,0.01
 364366,-0.02829870,0.07106432,-0.00017708,-0.00010310,0.00041437,0.000
 10238,0.00000071,-0.00015080,-0.00414553,0.00485708,-0.01172608,-0.000
 02464,0.00000880,0.00001288,-0.00000110,-0.00000307,0.00000132,-0.0000
 0620,-0.00000863,0.00000178,0.00000122,-0.00000441,-0.00000408,-0.0000
 7417,-0.00000341,0.00002618,0.00000614,-0.00000423,-0.00000100,-0.0000
 1341,0.00001094,-0.00002143,0.00000096,0.00000170,-0.00000303,0.000013
 95,-0.00000510,-0.00000262,-0.00000085,0.00000043,0.00000234,-0.000001
 43,-0.00000146,-0.00000070,0.00000128,-0.00000079,-0.00000224,-0.00038
 175,0.00070826,0.00088790,0.00000072,-0.00063477,-0.00028920,-0.000010
 35,-0.00005503,-0.00004898,0.00020415,0.00025424,0.00014151,0.00147228
 ,-0.00187936,-0.00278439,0.00006087,-0.00017607,0.00023083,0.00011970,
 0.00011229,-0.00005860,-0.00038335,0.00069460,-0.00103183,0.03068083,-
 0.09048386,0.09703962,0.00953660,-0.01160909,0.02809511,-0.00064064,0.
 00025368,-0.00288713,-0.03634057,0.09806965,-0.00028695,-0.00035806,0.
 00101760,0.00017588,0.00009579,-0.00008737,-0.00659408,0.00917244,-0.0
 1483483,0.00003022,-0.00001460,0.00000779,0.00000068,0.00000331,-0.000
 00135,0.00000133,0.00001179,-0.00000089,-0.00000198,-0.00000048,-0.000
 00142,-0.00005928,-0.00001791,0.00001412,0.00000564,-0.00000325,-0.000
 00033,-0.00000963,0.00000893,-0.00001613,0.00000886,0.00000154,0.00000
 027,0.00001188,-0.00000760,0.00000728,0.00000356,0.00000233,-0.0000061
 7,-0.00000684,-0.00000177,-0.00000835,0.00000376,-0.00000422,-0.000003
 72,-0.00029345,0.00036063,0.00105799,-0.00010652,-0.00069908,0.0000377
 7,0.00002014,-0.00003013,-0.00006810,0.00025163,0.00003581,0.00016825,
 0.00281515,-0.00320163,-0.00355101,0.00016658,-0.00018407,0.00049648,0
 .00011754,0.00004362,0.00030852,-0.00081568,0.00090432,-0.00113875,-0.
 07128599,0.10287755,-0.25074691,0.00078685,-0.00080389,0.00167935,0.00
 008213,-0.00034964,-0.00023605,0.07497859,-0.10784174,0.26590598\\0.00
 000022,0.00000493,-0.00000428,-0.00001428,-0.00000309,0.00000803,0.000
 00864,-0.00000723,-0.00000834,-0.00000965,-0.00001643,0.00001838,-0.00
 000496,-0.00000686,0.00000096,-0.00000223,-0.00000261,0.00000327,0.000
 00524,0.00000159,0.00000970,0.00001975,-0.00000686,-0.00002698,-0.0000
 1494,0.00000980,0.00000810,-0.00001225,0.00000534,0.00000957,0.0000116
 8,-0.00000707,-0.00000330,0.00001246,0.00002551,0.00001767,0.00000279,
 -0.00000884,-0.00002349,0.00000387,-0.00000135,-0.00001008,0.00000174,
 -0.00000021,-0.00000802,0.00000519,0.00001653,-0.00001908,-0.00000283,
 0.00000124,-0.00000946,0.00000222,0.00000068,-0.00000366,0.00000374,0.
 00000543,-0.00000044,-0.00001553,0.00000678,0.00003003,0.00001247,-0.0
 0000611,-0.00001072,0.00001673,-0.00000949,-0.00000620,-0.00001143,0.0
 0000890,0.00000278,-0.00000999,-0.00002022,-0.00001433,-0.00000110,0.0
 0000039,0.00000944,-0.00000372,0.00000112,0.00000768,-0.00000382,0.000
 00815,0.00002279\\\@


            ARSENIC

 FOR SMELTER FUMES HAVE I BEEN NAMED,
    I AM AN EVIL POISONOUS SMOKE...
 BUT WHEN FROM POISON I AM FREED,
    THROUGH ART AND SLEIGHT OF HAND,
 THEN CAN I CURE BOTH MAN AND BEAST,
    FROM DIRE DISEASE OFTTIMES DIRECT THEM;
 BUT PREPARE ME CORRECTLY, AND TAKE GREAT CARE
    THAT YOU FAITHFULLY KEEP WATCHFUL GUARD OVER ME;
 FOR ELSE I AM POISON, AND POISON REMAIN,
    THAT PIERCES THE HEART OF MANY A ONE.

 ATTRIBUTED TO THE PROBABLY MYTHICAL 15TH
 CENTURY MONK, BASILIUS VALENTINUS
 Job cpu time:       0 days  3 hours 32 minutes 34.8 seconds.
 Elapsed time:       0 days  0 hours  8 minutes 56.1 seconds.
 File lengths (MBytes):  RWF=    238 Int=      0 D2E=      0 Chk=     13 Scr=      1
 Normal termination of Gaussian 16 at Wed Oct 30 13:23:56 2019.
