 Entering Gaussian System, Link 0=g16
 Input=Pt_tsscan.gjf
 Output=Pt_tsscan.log
 Initial command:
 /usr/g16/l1.exe "/scratch/wsr/gaussian/Gau-41476.inp" -scrdir="/scratch/wsr/gaussian/"
 Entering Link 1 = /usr/g16/l1.exe PID=     41477.
  
 Copyright (c) 1988,1990,1992,1993,1995,1998,2003,2009,2016,
            Gaussian, Inc.  All Rights Reserved.
  
 This is part of the Gaussian(R) 16 program.  It is based on
 the Gaussian(R) 09 system (copyright 2009, Gaussian, Inc.),
 the Gaussian(R) 03 system (copyright 2003, Gaussian, Inc.),
 the Gaussian(R) 98 system (copyright 1998, Gaussian, Inc.),
 the Gaussian(R) 94 system (copyright 1995, Gaussian, Inc.),
 the Gaussian 92(TM) system (copyright 1992, Gaussian, Inc.),
 the Gaussian 90(TM) system (copyright 1990, Gaussian, Inc.),
 the Gaussian 88(TM) system (copyright 1988, Gaussian, Inc.),
 the Gaussian 86(TM) system (copyright 1986, Carnegie Mellon
 University), and the Gaussian 82(TM) system (copyright 1983,
 Carnegie Mellon University). Gaussian is a federally registered
 trademark of Gaussian, Inc.
  
 This software contains proprietary and confidential information,
 including trade secrets, belonging to Gaussian, Inc.
  
 This software is provided under written license and may be
 used, copied, transmitted, or stored only in accord with that
 written license.
  
 The following legend is applicable only to US Government
 contracts under FAR:
  
                    RESTRICTED RIGHTS LEGEND
  
 Use, reproduction and disclosure by the US Government is
 subject to restrictions as set forth in subparagraphs (a)
 and (c) of the Commercial Computer Software - Restricted
 Rights clause in FAR 52.227-19.
  
 Gaussian, Inc.
 340 Quinnipiac St., Bldg. 40, Wallingford CT 06492
  
  
 ---------------------------------------------------------------
 Warning -- This program may not be used in any manner that
 competes with the business of Gaussian, Inc. or will provide
 assistance to any competitor of Gaussian, Inc.  The licensee
 of this program is prohibited from giving any competitor of
 Gaussian, Inc. access to this program.  By using this program,
 the user acknowledges that Gaussian, Inc. is engaged in the
 business of creating and licensing software in the field of
 computational chemistry and represents and warrants to the
 licensee that it is not a competitor of Gaussian, Inc. and that
 it will not use this program in any manner prohibited above.
 ---------------------------------------------------------------
  

 Cite this work as:
 Gaussian 16, Revision A.03,
 M. J. Frisch, G. W. Trucks, H. B. Schlegel, G. E. Scuseria, 
 M. A. Robb, J. R. Cheeseman, G. Scalmani, V. Barone, 
 G. A. Petersson, H. Nakatsuji, X. Li, M. Caricato, A. V. Marenich, 
 J. Bloino, B. G. Janesko, R. Gomperts, B. Mennucci, H. P. Hratchian, 
 J. V. Ortiz, A. F. Izmaylov, J. L. Sonnenberg, D. Williams-Young, 
 F. Ding, F. Lipparini, F. Egidi, J. Goings, B. Peng, A. Petrone, 
 T. Henderson, D. Ranasinghe, V. G. Zakrzewski, J. Gao, N. Rega, 
 G. Zheng, W. Liang, M. Hada, M. Ehara, K. Toyota, R. Fukuda, 
 J. Hasegawa, M. Ishida, T. Nakajima, Y. Honda, O. Kitao, H. Nakai, 
 T. Vreven, K. Throssell, J. A. Montgomery, Jr., J. E. Peralta, 
 F. Ogliaro, M. J. Bearpark, J. J. Heyd, E. N. Brothers, K. N. Kudin, 
 V. N. Staroverov, T. A. Keith, R. Kobayashi, J. Normand, 
 K. Raghavachari, A. P. Rendell, J. C. Burant, S. S. Iyengar, 
 J. Tomasi, M. Cossi, J. M. Millam, M. Klene, C. Adamo, R. Cammi, 
 J. W. Ochterski, R. L. Martin, K. Morokuma, O. Farkas, 
 J. B. Foresman, and D. J. Fox, Gaussian, Inc., Wallingford CT, 2016.
 
 ******************************************
 Gaussian 16:  ES64L-G16RevA.03 25-Dec-2016
                30-Oct-2019 
 ******************************************
 %chk=Pt_tsscan.chk
 %nprocshared=24
 Will use up to   24 processors via shared memory.
 --------------------------------------------------------
 #p scan b3lyp/genecp scrf=(smd,solvent=benzene) em=gd3bj
 --------------------------------------------------------
 1/38=1,60=1,172=1/1,8;
 2/12=2,17=6,18=5,29=3,40=1/2;
 3/5=7,11=2,16=1,17=8,25=1,30=1,70=32201,72=12,74=-5,124=41/1,2,3;
 4//1;
 5/5=2,38=5,53=12/2;
 6/7=2,8=2,9=2,10=2,18=1,28=1/1;
 1/60=1/8(1);
 99/9=1/99;
 2/29=3/2;
 3/5=7,6=1,11=2,16=1,17=8,25=1,30=1,70=32205,72=12,74=-5,82=7,124=41/1,2,3;
 4/5=5,16=3,69=1/1;
 5/5=2,38=5,53=12/2;
 1/60=1/8(-4);
 99/9=1/99;
 Leave Link    1 at Wed Oct 30 14:41:47 2019, MaxMem=           0 cpu:               3.4 elap:               0.2
 (Enter /usr/g16/l101.exe)
 -------------------
 Title Card Required
 -------------------
 Symbolic Z-matrix:
 Charge =  0 Multiplicity = 1
 Pt
 P                    1    B1
 P                    1    B2       2    A1
 C                    2    B3       1    A2       3    D1       0
 H                    4    B4       2    A3       1    D2       0
 H                    4    B5       2    A4       1    D3       0
 H                    4    B6       2    A5       1    D4       0
 C                    2    B7       1    A6       3    D5       0
 H                    8    B8       2    A7       1    D6       0
 H                    8    B9       2    A8       1    D7       0
 H                    8    B10      2    A9       1    D8       0
 C                    2    B11      1    A10      3    D9       0
 H                    12   B12      2    A11      1    D10      0
 H                    12   B13      2    A12      1    D11      0
 H                    12   B14      2    A13      1    D12      0
 C                    3    B15      1    A14      2    D13      0
 H                    16   B16      3    A15      1    D14      0
 H                    16   B17      3    A16      1    D15      0
 H                    16   B18      3    A17      1    D16      0
 C                    3    B19      1    A18      2    D17      0
 H                    20   B20      3    A19      1    D18      0
 H                    20   B21      3    A20      1    D19      0
 H                    20   B22      3    A21      1    D20      0
 C                    3    B23      1    A22      2    D21      0
 H                    24   B24      3    A23      1    D22      0
 H                    24   B25      3    A24      1    D23      0
 H                    24   B26      3    A25      1    D24      0
 H                    1    B27      2    A26      3    D25      0
 H                    1    B28      2    A27      3    D26      0
       Variables:
  B1                    2.27881                  
  B2                    2.27882                  
  B3                    1.84536                  
  B4                    1.09511                  
  B5                    1.09735                  
  B6                    1.09511                  
  B7                    1.84542                  
  B8                    1.09511                  
  B9                    1.09733                  
  B10                   1.09512                  
  B11                   1.8454                   
  B12                   1.09513                  
  B13                   1.09735                  
  B14                   1.09512                  
  B15                   1.84535                  
  B16                   1.09511                  
  B17                   1.09735                  
  B18                   1.09511                  
  B19                   1.84541                  
  B20                   1.09733                  
  B21                   1.09511                  
  B22                   1.09512                  
  B23                   1.8454                   
  B24                   1.09511                  
  B25                   1.09735                  
  B26                   1.09513                  
  B27                   1.85                     
  B28                   1.85                     
  A1                  179.97884                  
  A2                  116.24477                  
  A3                  109.38805                  
  A4                  111.54723                  
  A5                  109.40538                  
  A6                  116.26334                  
  A7                  109.4081                   
  A8                  111.54499                  
  A9                  109.40341                  
  A10                 116.25837                  
  A11                 109.40349                  
  A12                 111.55033                  
  A13                 109.39867                  
  A14                 116.26604                  
  A15                 109.40192                  
  A16                 111.54883                  
  A17                 109.38972                  
  A18                 116.24587                  
  A19                 111.54765                  
  A20                 109.40382                  
  A21                 109.40458                  
  A22                 116.25022                  
  A23                 109.39939                  
  A24                 111.54869                  
  A25                 109.40354                  
  A26                  90.01058                  
  A27                  89.99964                  
  D1                    3.80398                  
  D2                   59.06015                  
  D3                  179.98562                  
  D4                  -59.07723                  
  D5                  123.78739                  
  D6                   59.04692                  
  D7                  179.98211                  
  D8                  -59.09469                  
  D9                 -116.20222                  
  D10                  59.05109                  
  D11                 179.98285                  
  D12                 -59.0852                   
  D13                 176.26369                  
  D14                  59.07517                  
  D15                -179.98831                  
  D16                 -59.06113                  
  D17                  56.26997                  
  D18                -179.98035                  
  D19                 -59.04555                  
  D20                  59.09374                  
  D21                 -63.71898                  
  D22                  59.03857                  
  D23                 179.97106                  
  D24                 -59.09841                  
  D25                 180.                       
       Constants:
  D26                  22.1477 Scan 14   10.     
 
 ITRead=  0  0  0  0  0  0  0  0  0  0  0  0  0  0  0  0  0  0  0  0
 ITRead=  0  0  0  0  0  0  0  0  0
 MicOpt= -1 -1 -1 -1 -1 -1 -1 -1 -1 -1 -1 -1 -1 -1 -1 -1 -1 -1 -1 -1
 MicOpt= -1 -1 -1 -1 -1 -1 -1 -1 -1
 NAtoms=     29 NQM=       29 NQMF=       0 NMMI=      0 NMMIF=      0
                NMic=       0 NMicF=      0.
                    Isotopes and Nuclear Properties:
 (Nuclear quadrupole moments (NQMom) in fm**2, nuclear magnetic moments (NMagM)
  in nuclear magnetons)

  Atom         1           2           3           4           5           6           7           8           9          10
 IAtWgt=         195          31          31          12           1           1           1          12           1           1
 AtmWgt= 194.9648000  30.9737634  30.9737634  12.0000000   1.0078250   1.0078250   1.0078250  12.0000000   1.0078250   1.0078250
 NucSpn=           1           1           1           0           1           1           1           0           1           1
 AtZEff=  -0.0000000  -0.0000000  -0.0000000  -0.0000000  -0.0000000  -0.0000000  -0.0000000  -0.0000000  -0.0000000  -0.0000000
 NQMom=    0.0000000   0.0000000   0.0000000   0.0000000   0.0000000   0.0000000   0.0000000   0.0000000   0.0000000   0.0000000
 NMagM=    0.6095000   1.1316000   1.1316000   0.0000000   2.7928460   2.7928460   2.7928460   0.0000000   2.7928460   2.7928460
 AtZNuc=  78.0000000  15.0000000  15.0000000   6.0000000   1.0000000   1.0000000   1.0000000   6.0000000   1.0000000   1.0000000

  Atom        11          12          13          14          15          16          17          18          19          20
 IAtWgt=           1          12           1           1           1          12           1           1           1          12
 AtmWgt=   1.0078250  12.0000000   1.0078250   1.0078250   1.0078250  12.0000000   1.0078250   1.0078250   1.0078250  12.0000000
 NucSpn=           1           0           1           1           1           0           1           1           1           0
 AtZEff=  -0.0000000  -0.0000000  -0.0000000  -0.0000000  -0.0000000  -0.0000000  -0.0000000  -0.0000000  -0.0000000  -0.0000000
 NQMom=    0.0000000   0.0000000   0.0000000   0.0000000   0.0000000   0.0000000   0.0000000   0.0000000   0.0000000   0.0000000
 NMagM=    2.7928460   0.0000000   2.7928460   2.7928460   2.7928460   0.0000000   2.7928460   2.7928460   2.7928460   0.0000000
 AtZNuc=   1.0000000   6.0000000   1.0000000   1.0000000   1.0000000   6.0000000   1.0000000   1.0000000   1.0000000   6.0000000

  Atom        21          22          23          24          25          26          27          28          29
 IAtWgt=           1           1           1          12           1           1           1           1           1
 AtmWgt=   1.0078250   1.0078250   1.0078250  12.0000000   1.0078250   1.0078250   1.0078250   1.0078250   1.0078250
 NucSpn=           1           1           1           0           1           1           1           1           1
 AtZEff=  -0.0000000  -0.0000000  -0.0000000  -0.0000000  -0.0000000  -0.0000000  -0.0000000  -0.0000000  -0.0000000
 NQMom=    0.0000000   0.0000000   0.0000000   0.0000000   0.0000000   0.0000000   0.0000000   0.0000000   0.0000000
 NMagM=    2.7928460   2.7928460   2.7928460   0.0000000   2.7928460   2.7928460   2.7928460   2.7928460   2.7928460
 AtZNuc=   1.0000000   1.0000000   1.0000000   6.0000000   1.0000000   1.0000000   1.0000000   1.0000000   1.0000000
 Leave Link  101 at Wed Oct 30 14:41:48 2019, MaxMem=   140000000 cpu:              11.0 elap:               0.5
 (Enter /usr/g16/l108.exe)
 Scan the potential surface.
 Variable   Value     No. Steps Step-Size
 -------- ----------- --------- ---------
    81      22.147699      14     10.0000
 A total of     15 points will be computed.
 Leave Link  108 at Wed Oct 30 14:41:48 2019, MaxMem=   140000000 cpu:               0.7 elap:               0.0
 (Enter /usr/g16/l202.exe)
 ---------------------------------------------------------------------------------------------------
                            Z-MATRIX (ANGSTROMS AND DEGREES)
   CD    Cent   Atom    N1       Length/X        N2       Alpha/Y        N3        Beta/Z          J
 ---------------------------------------------------------------------------------------------------
      1      1  Pt
      2      2  P        1   2.278808(     1)
      3      3  P        1   2.278817(     2)      2  179.979(    29)
      4      4  C        2   1.845358(     3)      1  116.245(    30)      3    3.804(    56)      0
      5      5  H        4   1.095105(     4)      2  109.388(    31)      1   59.060(    57)      0
      6      6  H        4   1.097352(     5)      2  111.547(    32)      1  179.986(    58)      0
      7      7  H        4   1.095108(     6)      2  109.405(    33)      1  -59.077(    59)      0
      8      8  C        2   1.845421(     7)      1  116.263(    34)      3  123.787(    60)      0
      9      9  H        8   1.095112(     8)      2  109.408(    35)      1   59.047(    61)      0
     10     10  H        8   1.097331(     9)      2  111.545(    36)      1  179.982(    62)      0
     11     11  H        8   1.095118(    10)      2  109.403(    37)      1  -59.095(    63)      0
     12     12  C        2   1.845396(    11)      1  116.258(    38)      3 -116.202(    64)      0
     13     13  H       12   1.095127(    12)      2  109.403(    39)      1   59.051(    65)      0
     14     14  H       12   1.097352(    13)      2  111.550(    40)      1  179.983(    66)      0
     15     15  H       12   1.095116(    14)      2  109.399(    41)      1  -59.085(    67)      0
     16     16  C        3   1.845352(    15)      1  116.266(    42)      2  176.264(    68)      0
     17     17  H       16   1.095109(    16)      3  109.402(    43)      1   59.075(    69)      0
     18     18  H       16   1.097349(    17)      3  111.549(    44)      1 -179.988(    70)      0
     19     19  H       16   1.095106(    18)      3  109.390(    45)      1  -59.061(    71)      0
     20     20  C        3   1.845406(    19)      1  116.246(    46)      2   56.270(    72)      0
     21     21  H       20   1.097333(    20)      3  111.548(    47)      1 -179.980(    73)      0
     22     22  H       20   1.095112(    21)      3  109.404(    48)      1  -59.046(    74)      0
     23     23  H       20   1.095116(    22)      3  109.405(    49)      1   59.094(    75)      0
     24     24  C        3   1.845401(    23)      1  116.250(    50)      2  -63.719(    76)      0
     25     25  H       24   1.095113(    24)      3  109.399(    51)      1   59.039(    77)      0
     26     26  H       24   1.097353(    25)      3  111.549(    52)      1  179.971(    78)      0
     27     27  H       24   1.095126(    26)      3  109.404(    53)      1  -59.098(    79)      0
     28     28  H        1   1.850000(    27)      2   90.011(    54)      3  180.000(    80)      0
     29     29  H        1   1.850000(    28)      2   90.000(    55)      3   22.148(    81)      0
 ---------------------------------------------------------------------------------------------------
                         Z-Matrix orientation:                         
 ---------------------------------------------------------------------
 Center     Atomic      Atomic             Coordinates (Angstroms)
 Number     Number       Type             X           Y           Z
 ---------------------------------------------------------------------
      1         78           0        0.000000    0.000000    0.000000
      2         15           0        0.000000    0.000000    2.278808
      3         15           0        0.000842    0.000000   -2.278817
      4          6           0        1.651479    0.109806    3.094838
      5          1           0        2.152381    1.031083    2.779239
      6          1           0        1.561792    0.104100    4.188503
      7          1           0        2.270088   -0.737101    2.779664
      8          6           0       -0.920321    1.375413    3.095402
      9          1           0       -1.968713    1.349407    2.780019
     10          1           0       -0.870389    1.300217    4.189015
     11          1           0       -0.495731    2.334540    2.780629
     12          6           0       -0.730735   -1.484904    3.095247
     13          1           0       -0.183735   -2.379665    2.779819
     14          1           0       -0.690691   -1.404225    4.188897
     15          1           0       -1.773565   -1.596950    2.780242
     16          6           0       -1.650157   -0.107836   -3.096069
     17          1           0       -2.267961    0.739797   -2.781265
     18          1           0       -1.559687   -0.102163   -4.189667
     19          1           0       -2.152398   -1.028529   -2.780896
     20          6           0        0.920217   -1.376530   -3.094560
     21          1           0        0.871004   -1.301586   -4.188225
     22          1           0        1.968444   -1.351443   -2.778553
     23          1           0        0.494525   -2.335161   -2.779773
     24          6           0        0.733973    1.484006   -3.094753
     25          1           0        1.776573    1.595065   -2.778645
     26          1           0        0.695014    1.403130   -4.188427
     27          1           0        0.187532    2.379383   -2.780103
     28          1           0       -1.850000   -0.000000   -0.000342
     29          1           0        1.713498   -0.697442    0.000012
 ---------------------------------------------------------------------
                    Distance matrix (angstroms):
                    1          2          3          4          5
     1  Pt   0.000000
     2  P    2.278808   0.000000
     3  P    2.278817   4.557625   0.000000
     4  C    3.509624   1.845358   5.622528   0.000000
     5  H    3.663339   2.438505   5.592512   1.095105   0.000000
     6  H    4.471419   2.469204   6.653844   1.097352   1.787210
     7  H    3.663762   2.438744   5.592944   1.095108   1.772097
     8  C    3.510024   1.845421   5.623392   2.866342   3.108057
     9  H    3.664047   2.438841   5.593914   3.839468   4.133371
    10  H    4.471687   2.469217   6.654506   2.995683   3.346197
    11  H    3.664386   2.438781   5.594162   3.107842   2.951526
    12  C    3.509910   1.845396   5.623229   2.866713   3.839584
    13  H    3.663872   2.438765   5.593449   3.108812   4.134083
    14  H    4.471662   2.469280   6.654426   2.995834   4.000115
    15  H    3.664086   2.438692   5.594001   3.839650   4.724364
    16  C    3.510027   5.623517   1.845352   7.019650   7.090534
    17  H    3.664203   5.594219   2.438692   7.091367   7.109394
    18  H    4.471730   6.654640   2.469218   7.963701   7.976801
    19  H    3.663887   5.593862   2.438524   7.091511   7.327225
    20  C    3.509692   5.622697   1.845406   6.407229   6.466556
    21  H    4.471465   6.653968   2.469240   7.459502   7.458473
    22  H    3.663540   5.592680   2.438769   6.060729   6.049737
    23  H    3.663969   5.593458   2.438782   6.467415   6.706915
    24  C    3.509770   5.622823   1.845401   6.406346   6.059769
    25  H    3.663511   5.592698   2.438705   6.059657   5.599052
    26  H    4.471548   6.654093   2.469263   7.458784   7.128164
    27  H    3.664096   5.593676   2.438771   6.465991   6.048540
    28  H    1.850000   2.935477   2.935484   4.674671   4.980789
    29  H    1.850000   2.935202   2.934736   3.198975   3.302200
                    6          7          8          9         10
     6  H    0.000000
     7  H    1.787213   0.000000
     8  C    2.995328   3.839416   0.000000
     9  H    3.999886   4.724505   1.095112   0.000000
    10  H    2.710387   3.999940   1.097331   1.787178   0.000000
    11  H    3.345202   4.133369   1.095118   1.772051   1.787105
    12  C    2.995967   3.108655   2.866593   3.108903   2.995451
    13  H    3.346691   2.952840   3.839631   4.134263   3.999858
    14  H    2.710853   3.346222   2.995806   3.346755   2.710406
    15  H    4.000172   4.134062   3.108423   2.952812   3.345735
    16  C    7.964077   7.091440   6.408354   6.062462   7.460770
    17  H    7.978019   7.327964   6.062620   5.602594   7.131065
    18  H    8.943149   7.977588   7.460848   7.130980   8.523152
    19  H    7.978131   7.110776   6.467444   6.050793   7.459642
    20  C    7.459685   6.061150   7.019716   7.091356   7.963775
    21  H    8.521896   7.129345   7.964068   7.977981   8.943152
    22  H    7.129084   5.600195   7.091125   7.327587   7.977297
    23  H    7.459620   6.050931   7.091392   7.110195   7.977654
    24  C    7.458904   6.465426   6.408315   6.468042   7.460631
    25  H    7.128132   6.047921   6.467295   6.707180   7.459331
    26  H    8.521253   7.457597   7.460848   7.460400   8.523063
    27  H    7.458349   6.705260   6.062743   6.051876   7.131087
    28  H    5.403479   5.024627   3.512790   3.092798   4.494542
    29  H    4.267194   2.835107   4.562365   5.047446   5.311766
                   11         12         13         14         15
    11  H    0.000000
    12  C    3.839579   0.000000
    13  H    4.724519   1.095127   0.000000
    14  H    3.999950   1.097352   1.787174   0.000000
    15  H    4.133942   1.095116   1.772063   1.787195   0.000000
    16  C    6.467880   6.408904   6.468203   7.461362   6.063309
    17  H    6.051336   6.468829   6.708256   7.461084   6.052700
    18  H    7.460198   7.461174   7.460161   8.523547   7.131603
    19  H    6.707111   6.062875   6.051673   7.131321   5.602934
    20  C    7.091882   6.407114   6.060802   7.459527   6.466711
    21  H    7.978364   7.459768   7.129401   8.522065   7.459257
    22  H    7.110776   6.465672   6.048521   7.457825   6.705454
    23  H    7.328355   6.061358   5.600989   7.129779   6.050038
    24  C    6.062647   7.019679   7.090891   7.963862   7.091939
    25  H    6.051092   7.090515   7.108995   7.976827   7.327596
    26  H    7.131139   7.964007   7.977355   8.943209   7.978516
    27  H    5.602731   7.091944   7.327967   7.978341   7.111579
    28  H    3.875296   3.611145   4.021012   4.567884   3.207450
    29  H    4.669630   4.021797   3.762538   4.881233   4.549550
                   16         17         18         19         20
    16  C    0.000000
    17  H    1.095109   0.000000
    18  H    1.097349   1.787217   0.000000
    19  H    1.095106   1.772098   1.787204   0.000000
    20  C    2.866428   3.839463   2.995529   3.108127   0.000000
    21  H    2.995679   3.999985   2.710512   3.346057   1.097333
    22  H    3.839486   4.724450   3.999957   4.133476   1.095112
    23  H    3.108164   4.133606   3.345724   2.951862   1.095116
    24  C    2.866712   3.108654   2.995938   3.839593   2.866592
    25  H    3.839675   4.133975   4.000275   4.724412   3.108621
    26  H    2.996012   3.346541   2.711012   4.000234   2.995625
    27  H    3.108567   2.952574   3.346299   4.133901   3.839608
    28  H    3.104044   2.907839   4.200615   2.980067   4.375286
    29  H    4.609503   5.064896   5.349907   4.773701   3.266011
                   21         22         23         24         25
    21  H    0.000000
    22  H    1.787187   0.000000
    23  H    1.787107   1.772045   0.000000
    24  C    2.995660   3.108644   3.839607   0.000000
    25  H    3.346275   2.952749   4.134045   1.095113   0.000000
    26  H    2.710435   3.346198   3.999916   1.097353   1.787203
    27  H    3.999933   4.134091   4.724528   1.095126   1.772063
    28  H    5.161041   4.911759   4.321459   4.295878   4.838929
    29  H    4.314639   2.865857   3.448945   3.910978   3.602846
                   26         27         28         29
    26  H    0.000000
    27  H    1.787172   0.000000
    28  H    5.097640   4.188087   0.000000
    29  H    4.795074   4.418649   3.631108   0.000000
 Stoichiometry    C6H20P2Pt
 Framework group  C1[X(C6H20P2Pt)]
 Deg. of freedom    81
 Full point group                 C1      NOp   1
 Largest Abelian subgroup         C1      NOp   1
 Largest concise Abelian subgroup C1      NOp   1
                         Standard orientation:                         
 ---------------------------------------------------------------------
 Center     Atomic      Atomic             Coordinates (Angstroms)
 Number     Number       Type             X           Y           Z
 ---------------------------------------------------------------------
      1         78           0       -0.000004   -0.000317    0.004273
      2         15           0        2.278804    0.000137    0.004275
      3         15           0       -2.278821    0.000055    0.004431
      4          6           0        3.094514    1.600492    0.427155
      5          1           0        2.778852    1.916357    1.427076
      6          1           0        4.188197    1.513759    0.404443
      7          1           0        2.779188    2.369257   -0.286169
      8          6           0        3.095630   -1.165533    1.178833
      9          1           0        2.780451   -2.189769    0.953279
     10          1           0        4.189230   -1.101954    1.114546
     11          1           0        2.780809   -0.931801    2.201349
     12          6           0        3.095331   -0.433703   -1.592770
     13          1           0        2.779762    0.273900   -2.366731
     14          1           0        4.188976   -0.409570   -1.505932
     15          1           0        2.780526   -1.436062   -1.901722
     16          6           0       -3.095753   -1.600204   -0.416423
     17          1           0       -2.780797   -2.368319    0.297767
     18          1           0       -4.189369   -1.512697   -0.393594
     19          1           0       -2.780516   -1.917495   -1.416027
     20          6           0       -3.094795    1.165011   -1.171403
     21          1           0       -4.188447    1.102185   -1.107226
     22          1           0       -2.778992    2.189259   -0.946782
     23          1           0       -2.779960    0.930101   -2.193643
     24          6           0       -3.094845    0.436419    1.601052
     25          1           0       -2.778937    1.438740    1.908992
     26          1           0       -4.188515    0.413388    1.514228
     27          1           0       -2.780055   -0.270753    2.375724
     28          1           0        0.000017   -1.816333   -0.348694
     29          1           0       -0.000354    1.814771   -0.353434
 ---------------------------------------------------------------------
 Rotational constants (GHZ):           1.7559527           0.3738763           0.3721236
 Leave Link  202 at Wed Oct 30 14:41:48 2019, MaxMem=   140000000 cpu:               1.1 elap:               0.1
 (Enter /usr/g16/l301.exe)
 General basis read from cards:  (5D, 7F)
 Centers:       1
 SDD
 ****
 Centers:       2      3      4      8     12     16     20     24      5      6
 Centers:       7      9     10     11     13     14     15     17     18     19
 Centers:      21     22     23     25     26     27     28     29
 6-31g*
 ****
 ======================================================================================================
                                       Pseudopotential Parameters
 ======================================================================================================
  Center     Atomic      Valence      Angular      Power
  Number     Number     Electrons     Momentum     of R      Exponent        Coefficient   SO-Coeffient
 ======================================================================================================
    1         78           18
                                      H and up 
                                                     2        1.0000000        0.00000000    0.00000000
                                      S - H
                                                     2       13.4286510      579.22386100    0.00000000
                                                     2        6.7143260       29.66949100    0.00000000
                                      P - H
                                                     2       10.3659440      280.86077400    0.00000000
                                                     2        5.1829720       26.74538200    0.00000000
                                      D - H
                                                     2        7.6004790      120.39644400    0.00000000
                                                     2        3.8002400       15.81092100    0.00000000
                                      F - H
                                                     2        3.3095690       24.31437600    0.00000000
                                      G - H
                                                     2        5.2772890      -24.21867500    0.00000000
    2         15
                                   No pseudopotential on this center.
    3         15
                                   No pseudopotential on this center.
    4          6
                                   No pseudopotential on this center.
    5          1
                                   No pseudopotential on this center.
    6          1
                                   No pseudopotential on this center.
    7          1
                                   No pseudopotential on this center.
    8          6
                                   No pseudopotential on this center.
    9          1
                                   No pseudopotential on this center.
   10          1
                                   No pseudopotential on this center.
   11          1
                                   No pseudopotential on this center.
   12          6
                                   No pseudopotential on this center.
   13          1
                                   No pseudopotential on this center.
   14          1
                                   No pseudopotential on this center.
   15          1
                                   No pseudopotential on this center.
   16          6
                                   No pseudopotential on this center.
   17          1
                                   No pseudopotential on this center.
   18          1
                                   No pseudopotential on this center.
   19          1
                                   No pseudopotential on this center.
   20          6
                                   No pseudopotential on this center.
   21          1
                                   No pseudopotential on this center.
   22          1
                                   No pseudopotential on this center.
   23          1
                                   No pseudopotential on this center.
   24          6
                                   No pseudopotential on this center.
   25          1
                                   No pseudopotential on this center.
   26          1
                                   No pseudopotential on this center.
   27          1
                                   No pseudopotential on this center.
   28          1
                                   No pseudopotential on this center.
   29          1
                                   No pseudopotential on this center.
 ======================================================================================================
 Ernie: Thresh=  0.10000D-02 Tol=  0.10000D-05 Strict=F.
 There are   207 symmetry adapted cartesian basis functions of A   symmetry.
 There are   196 symmetry adapted basis functions of A   symmetry.
   196 basis functions,   417 primitive gaussians,   207 cartesian basis functions
    52 alpha electrons       52 beta electrons
       nuclear repulsion energy       814.4661839046 Hartrees.
 IExCor=  402 DFT=T Ex+Corr=B3LYP ExCW=0 ScaHFX=  0.200000
 ScaDFX=  0.800000  0.720000  1.000000  0.810000 ScalE2=  1.000000  1.000000
 IRadAn=      5 IRanWt=     -1 IRanGd=            0 ICorTp=0 IEmpDi=141
 NAtoms=   29 NActive=   29 NUniq=   29 SFac= 1.00D+00 NAtFMM=   60 NAOKFM=F Big=F
 Integral buffers will be    131072 words long.
 Raffenetti 2 integral format.
 Two-electron integral symmetry is turned on.
 R6Disp:  Grimme-D3(BJ) Dispersion energy=       -0.0605376652 Hartrees.
 Nuclear repulsion after empirical dispersion term =      814.4056462394 Hartrees.
 ------------------------------------------------------------------------------
 Polarizable Continuum Model (PCM)
 =================================
 Model                : PCM.
 Atomic radii         : SMD-Coulomb.
 Polarization charges : Total charges.
 Charge compensation  : None.
 Solution method      : On-the-fly selection.
 Cavity type          : VdW (van der Waals Surface) (Alpha=1.000).
 Cavity algorithm     : GePol (No added spheres)
                        Default sphere list used, NSphG=   29.
                        Lebedev-Laikov grids with approx.  5.0 points / Ang**2.
                        Smoothing algorithm: York/Karplus (Gamma=1.0000).
                        Polarization charges: spherical gaussians, with
                                              point-specific exponents (IZeta= 3).
                        Self-potential: point-specific (ISelfS= 7).
                        Self-field    : sphere-specific E.n sum rule (ISelfD= 2).
 Solvent              : Benzene, Eps=   2.270600 Eps(inf)=   2.253301
 ------------------------------------------------------------------------------
 GePol: Number of generator spheres                  =      29
 GePol: Total number of spheres                      =      29
 GePol: Number of exposed spheres                    =      29 (100.00%)
 GePol: Number of points                             =    2135
 GePol: Average weight of points                     =       0.12
 GePol: Minimum weight of points                     =   0.27D-10
 GePol: Maximum weight of points                     =    0.22001
 GePol: Number of points with low weight             =     105
 GePol: Fraction of low-weight points (<1% of avg)   =       4.92%
 GePol: Cavity surface area                          =    256.799 Ang**2
 GePol: Cavity volume                                =    211.019 Ang**3
 ------------------------------------------------------------------------------
 Atomic radii for non-electrostatic terms: SMD-CDS.
 ------------------------------------------------------------------------------
 PCM non-electrostatic energy =         0.0000997451 Hartrees.
 Nuclear repulsion after PCM non-electrostatic terms =      814.4057459846 Hartrees.
 Leave Link  301 at Wed Oct 30 14:41:48 2019, MaxMem=   140000000 cpu:               4.2 elap:               0.2
 (Enter /usr/g16/l302.exe)
 NPDir=0 NMtPBC=     1 NCelOv=     1 NCel=       1 NClECP=     1 NCelD=      1
         NCelK=      1 NCelE2=     1 NClLst=     1 CellRange=     0.0.
 One-electron integrals computed using PRISM.
 One-electron integral symmetry used in STVInt
   1 Symmetry operations used in ECPInt.
 ECPInt:  NShTT=    3916 NPrTT=   20546 LenC2=    3685 LenP2D=   12934.
 LDataN:  DoStor=T MaxTD1= 7 Len=  274
 Number of processors reduced to  20 by ecpmxn.
 NBasis=   196 RedAO= T EigKep=  1.32D-03  NBF=   196
 NBsUse=   196 1.00D-06 EigRej= -1.00D+00 NBFU=   196
 Precomputing XC quadrature grid using
 IXCGrd= 4 IRadAn=           5 IRanWt=          -1 IRanGd=           0 AccXCQ= 0.00D+00.
 Defaulting to unpruned grid for atomic number  78.
 Generated NRdTot=       0 NPtTot=           0 NUsed=           0 NTot=          32
 NSgBfM=   207   207   207   207   207 MxSgAt=    29 MxSgA2=    29.
 Leave Link  302 at Wed Oct 30 14:41:49 2019, MaxMem=   140000000 cpu:              15.2 elap:               0.7
 (Enter /usr/g16/l303.exe)
 DipDrv:  MaxL=1.
 Leave Link  303 at Wed Oct 30 14:41:49 2019, MaxMem=   140000000 cpu:               3.7 elap:               0.2
 (Enter /usr/g16/l401.exe)
 ExpMin= 1.50D-02 ExpMax= 1.94D+04 ExpMxC= 2.91D+03 IAcc=3 IRadAn=         5 AccDes= 0.00D+00
 Harris functional with IExCor=  402 and IRadAn=       5 diagonalized for initial guess.
 HarFok:  IExCor=  402 AccDes= 0.00D+00 IRadAn=         5 IDoV= 1 UseB2=F ITyADJ=14
 ICtDFT=  3500011 ScaDFX=  1.000000  1.000000  1.000000  1.000000
 Defaulting to unpruned grid for atomic number  78.
 FoFCou: FMM=F IPFlag=           0 FMFlag=      100000 FMFlg1=           0
         NFxFlg=           0 DoJE=T BraDBF=F KetDBF=T FulRan=T
         wScrn=  0.000000 ICntrl=       500 IOpCl=  0 I1Cent=   200000004 NGrid=           0
         NMat0=    1 NMatS0=      1 NMatT0=    0 NMatD0=    1 NMtDS0=    0 NMtDT0=    0
 Petite list used in FoFCou.
 Harris En= -1042.70018045948    
 JPrj=0 DoOrth=F DoCkMO=F.
 Leave Link  401 at Wed Oct 30 14:41:50 2019, MaxMem=   140000000 cpu:              36.7 elap:               1.6
 (Enter /usr/g16/l502.exe)
 Integral symmetry usage will be decided dynamically.
 Closed shell SCF:
 Using DIIS extrapolation, IDIIS=  1040.
 NGot=   140000000 LenX=   139906737 LenY=   139863447
 Requested convergence on RMS density matrix=1.00D-08 within 128 cycles.
 Requested convergence on MAX density matrix=1.00D-06.
 Requested convergence on             energy=1.00D-06.
 No special actions if energy rises.
 Fock matrices will be formed incrementally for  20 cycles.

 Cycle   1  Pass 1  IDiag  1:
 FoFJK:  IHMeth= 1 ICntrl=       0 DoSepK=F KAlg= 0 I1Cent=           0 FoldK=F
 IRaf= 900000000 NMat=       1 IRICut=       1 DoRegI=T DoRafI=F ISym2E= 0 IDoP0=0 IntGTp=1.
 FoFCou: FMM=F IPFlag=           0 FMFlag=      100000 FMFlg1=           0
         NFxFlg=           0 DoJE=F BraDBF=F KetDBF=F FulRan=T
         wScrn=  0.000000 ICntrl=         0 IOpCl=  0 I1Cent=           0 NGrid=           0
         NMat0=    1 NMatS0=      1 NMatT0=    0 NMatD0=    1 NMtDS0=    0 NMtDT0=    0
 Symmetry not used in FoFCou.
 Defaulting to unpruned grid for atomic number  78.
 Defaulting to unpruned grid for atomic number  78.
 Defaulting to unpruned grid for atomic number  78.
 Defaulting to unpruned grid for atomic number  78.
 Defaulting to unpruned grid for atomic number  78.
 Defaulting to unpruned grid for atomic number  78.
 Defaulting to unpruned grid for atomic number  78.
 Defaulting to unpruned grid for atomic number  78.
 Defaulting to unpruned grid for atomic number  78.
 Defaulting to unpruned grid for atomic number  78.
 Defaulting to unpruned grid for atomic number  78.
 Defaulting to unpruned grid for atomic number  78.
 Defaulting to unpruned grid for atomic number  78.
 Defaulting to unpruned grid for atomic number  78.
 Defaulting to unpruned grid for atomic number  78.
 Defaulting to unpruned grid for atomic number  78.
 Defaulting to unpruned grid for atomic number  78.
 Defaulting to unpruned grid for atomic number  78.
 Defaulting to unpruned grid for atomic number  78.
 Defaulting to unpruned grid for atomic number  78.
 Defaulting to unpruned grid for atomic number  78.
 Defaulting to unpruned grid for atomic number  78.
 Defaulting to unpruned grid for atomic number  78.
 Defaulting to unpruned grid for atomic number  78.
 Inv3:  Mode=1 IEnd=    13674675.
 Iteration    1 A*A^-1 deviation from unit magnitude is 8.22D-15 for    175.
 Iteration    1 A*A^-1 deviation from orthogonality  is 3.52D-15 for   1944    255.
 Iteration    1 A^-1*A deviation from unit magnitude is 6.22D-15 for    175.
 Iteration    1 A^-1*A deviation from orthogonality  is 2.67D-15 for   1155    159.
 E= -1042.10709826392    
 DIIS: error= 6.48D-02 at cycle   1 NSaved=   1.
 NSaved= 1 IEnMin= 1 EnMin= -1042.10709826392     IErMin= 1 ErrMin= 6.48D-02
 ErrMax= 6.48D-02  0.00D+00 EMaxC= 1.00D-01 BMatC= 8.84D-01 BMatP= 8.84D-01
 IDIUse=3 WtCom= 3.52D-01 WtEn= 6.48D-01
 Coeff-Com:  0.100D+01
 Coeff-En:   0.100D+01
 Coeff:      0.100D+01
 Gap=     0.410 Goal=   None    Shift=    0.000
 GapD=    0.410 DampG=2.000 DampE=0.250 DampFc=0.5000 IDamp=-1.
 Damping current iteration by 5.00D-01
 RMSDP=1.08D-02 MaxDP=4.79D-01              OVMax= 3.43D-01

 Cycle   2  Pass 1  IDiag  1:
 RMSU=  5.40D-03    CP:  9.97D-01
 E= -1042.33954597522     Delta-E=       -0.232447711305 Rises=F Damp=T
 DIIS: error= 2.47D-02 at cycle   2 NSaved=   2.
 NSaved= 2 IEnMin= 2 EnMin= -1042.33954597522     IErMin= 2 ErrMin= 2.47D-02
 ErrMax= 2.47D-02  0.00D+00 EMaxC= 1.00D-01 BMatC= 9.31D-02 BMatP= 8.84D-01
 IDIUse=3 WtCom= 7.53D-01 WtEn= 2.47D-01
 Coeff-Com:  0.212D+00 0.788D+00
 Coeff-En:   0.354D+00 0.646D+00
 Coeff:      0.247D+00 0.753D+00
 Gap=     0.258 Goal=   None    Shift=    0.000
 RMSDP=3.51D-03 MaxDP=2.79D-01 DE=-2.32D-01 OVMax= 3.51D-01

 Cycle   3  Pass 1  IDiag  1:
 RMSU=  2.67D-03    CP:  9.91D-01  5.80D-01
 E= -1042.87397175427     Delta-E=       -0.534425779046 Rises=F Damp=F
 DIIS: error= 1.20D-02 at cycle   3 NSaved=   3.
 NSaved= 3 IEnMin= 3 EnMin= -1042.87397175427     IErMin= 3 ErrMin= 1.20D-02
 ErrMax= 1.20D-02  0.00D+00 EMaxC= 1.00D-01 BMatC= 3.40D-02 BMatP= 9.31D-02
 IDIUse=3 WtCom= 8.80D-01 WtEn= 1.20D-01
 Coeff-Com:  0.924D-01 0.415D+00 0.493D+00
 Coeff-En:   0.000D+00 0.000D+00 0.100D+01
 Coeff:      0.813D-01 0.365D+00 0.554D+00
 Gap=     0.184 Goal=   None    Shift=    0.000
 RMSDP=1.28D-03 MaxDP=5.67D-02 DE=-5.34D-01 OVMax= 5.03D-02

 Cycle   4  Pass 1  IDiag  1:
 RMSU=  8.53D-04    CP:  9.95D-01  6.40D-01  6.67D-01
 E= -1042.90046823935     Delta-E=       -0.026496485079 Rises=F Damp=F
 DIIS: error= 6.65D-03 at cycle   4 NSaved=   4.
 NSaved= 4 IEnMin= 4 EnMin= -1042.90046823935     IErMin= 4 ErrMin= 6.65D-03
 ErrMax= 6.65D-03  0.00D+00 EMaxC= 1.00D-01 BMatC= 7.47D-03 BMatP= 3.40D-02
 IDIUse=3 WtCom= 9.33D-01 WtEn= 6.65D-02
 Coeff-Com:  0.139D-01 0.278D-01 0.312D+00 0.646D+00
 Coeff-En:   0.000D+00 0.000D+00 0.187D+00 0.813D+00
 Coeff:      0.130D-01 0.259D-01 0.304D+00 0.657D+00
 Gap=     0.175 Goal=   None    Shift=    0.000
 RMSDP=4.22D-04 MaxDP=2.45D-02 DE=-2.65D-02 OVMax= 1.75D-02

 Cycle   5  Pass 1  IDiag  1:
 RMSU=  3.15D-04    CP:  9.93D-01  6.28D-01  7.30D-01  7.59D-01
 E= -1042.90696205516     Delta-E=       -0.006493815810 Rises=F Damp=F
 DIIS: error= 8.68D-04 at cycle   5 NSaved=   5.
 NSaved= 5 IEnMin= 5 EnMin= -1042.90696205516     IErMin= 5 ErrMin= 8.68D-04
 ErrMax= 8.68D-04  0.00D+00 EMaxC= 1.00D-01 BMatC= 1.25D-04 BMatP= 7.47D-03
 IDIUse=3 WtCom= 9.91D-01 WtEn= 8.68D-03
 Coeff-Com:  0.635D-03-0.129D-01 0.796D-01 0.238D+00 0.695D+00
 Coeff-En:   0.000D+00 0.000D+00 0.000D+00 0.000D+00 0.100D+01
 Coeff:      0.630D-03-0.128D-01 0.789D-01 0.236D+00 0.697D+00
 Gap=     0.174 Goal=   None    Shift=    0.000
 RMSDP=1.01D-04 MaxDP=2.67D-03 DE=-6.49D-03 OVMax= 2.47D-03

 Cycle   6  Pass 1  IDiag  1:
 RMSU=  3.39D-05    CP:  9.93D-01  6.24D-01  7.43D-01  7.76D-01  7.35D-01
 E= -1042.90710966902     Delta-E=       -0.000147613861 Rises=F Damp=F
 DIIS: error= 6.53D-05 at cycle   6 NSaved=   6.
 NSaved= 6 IEnMin= 6 EnMin= -1042.90710966902     IErMin= 6 ErrMin= 6.53D-05
 ErrMax= 6.53D-05  0.00D+00 EMaxC= 1.00D-01 BMatC= 7.65D-07 BMatP= 1.25D-04
 IDIUse=1 WtCom= 1.00D+00 WtEn= 0.00D+00
 Coeff-Com:  0.234D-03-0.240D-02 0.825D-02 0.234D-01 0.930D-01 0.877D+00
 Coeff:      0.234D-03-0.240D-02 0.825D-02 0.234D-01 0.930D-01 0.877D+00
 Gap=     0.174 Goal=   None    Shift=    0.000
 RMSDP=8.39D-06 MaxDP=3.76D-04 DE=-1.48D-04 OVMax= 3.24D-04

 Cycle   7  Pass 1  IDiag  1:
 RMSU=  6.93D-06    CP:  9.93D-01  6.23D-01  7.44D-01  7.76D-01  7.36D-01
                    CP:  9.84D-01
 E= -1042.90711043479     Delta-E=       -0.000000765768 Rises=F Damp=F
 DIIS: error= 2.02D-05 at cycle   7 NSaved=   7.
 NSaved= 7 IEnMin= 7 EnMin= -1042.90711043479     IErMin= 7 ErrMin= 2.02D-05
 ErrMax= 2.02D-05  0.00D+00 EMaxC= 1.00D-01 BMatC= 1.23D-07 BMatP= 7.65D-07
 IDIUse=1 WtCom= 1.00D+00 WtEn= 0.00D+00
 Coeff-Com:  0.520D-04-0.501D-03 0.440D-03 0.940D-03 0.122D-01 0.361D+00
 Coeff-Com:  0.626D+00
 Coeff:      0.520D-04-0.501D-03 0.440D-03 0.940D-03 0.122D-01 0.361D+00
 Coeff:      0.626D+00
 Gap=     0.174 Goal=   None    Shift=    0.000
 RMSDP=2.62D-06 MaxDP=6.11D-05 DE=-7.66D-07 OVMax= 8.43D-05

 Cycle   8  Pass 1  IDiag  1:
 RMSU=  1.89D-06    CP:  9.93D-01  6.23D-01  7.44D-01  7.76D-01  7.38D-01
                    CP:  1.01D+00  8.08D-01
 E= -1042.90711056108     Delta-E=       -0.000000126295 Rises=F Damp=F
 DIIS: error= 7.95D-06 at cycle   8 NSaved=   8.
 NSaved= 8 IEnMin= 8 EnMin= -1042.90711056108     IErMin= 8 ErrMin= 7.95D-06
 ErrMax= 7.95D-06  0.00D+00 EMaxC= 1.00D-01 BMatC= 1.69D-08 BMatP= 1.23D-07
 IDIUse=1 WtCom= 1.00D+00 WtEn= 0.00D+00
 Coeff-Com: -0.122D-04 0.129D-03-0.979D-03-0.294D-02-0.746D-02 0.434D-01
 Coeff-Com:  0.292D+00 0.676D+00
 Coeff:     -0.122D-04 0.129D-03-0.979D-03-0.294D-02-0.746D-02 0.434D-01
 Coeff:      0.292D+00 0.676D+00
 Gap=     0.174 Goal=   None    Shift=    0.000
 RMSDP=8.09D-07 MaxDP=1.85D-05 DE=-1.26D-07 OVMax= 3.26D-05

 Cycle   9  Pass 1  IDiag  1:
 RMSU=  5.09D-07    CP:  9.93D-01  6.23D-01  7.44D-01  7.76D-01  7.38D-01
                    CP:  1.02D+00  8.39D-01  7.57D-01
 E= -1042.90711058014     Delta-E=       -0.000000019057 Rises=F Damp=F
 DIIS: error= 9.12D-07 at cycle   9 NSaved=   9.
 NSaved= 9 IEnMin= 9 EnMin= -1042.90711058014     IErMin= 9 ErrMin= 9.12D-07
 ErrMax= 9.12D-07  0.00D+00 EMaxC= 1.00D-01 BMatC= 3.50D-10 BMatP= 1.69D-08
 IDIUse=1 WtCom= 1.00D+00 WtEn= 0.00D+00
 Coeff-Com: -0.250D-05 0.600D-04-0.347D-03-0.108D-02-0.277D-02 0.455D-02
 Coeff-Com:  0.765D-01 0.216D+00 0.707D+00
 Coeff:     -0.250D-05 0.600D-04-0.347D-03-0.108D-02-0.277D-02 0.455D-02
 Coeff:      0.765D-01 0.216D+00 0.707D+00
 Gap=     0.174 Goal=   None    Shift=    0.000
 RMSDP=1.96D-07 MaxDP=7.20D-06 DE=-1.91D-08 OVMax= 1.04D-05

 Cycle  10  Pass 1  IDiag  1:
 RMSU=  1.52D-07    CP:  9.93D-01  6.23D-01  7.44D-01  7.76D-01  7.38D-01
                    CP:  1.02D+00  8.53D-01  7.81D-01  9.47D-01
 E= -1042.90711058057     Delta-E=       -0.000000000432 Rises=F Damp=F
 DIIS: error= 3.62D-07 at cycle  10 NSaved=  10.
 NSaved=10 IEnMin=10 EnMin= -1042.90711058057     IErMin=10 ErrMin= 3.62D-07
 ErrMax= 3.62D-07  0.00D+00 EMaxC= 1.00D-01 BMatC= 4.11D-11 BMatP= 3.50D-10
 IDIUse=1 WtCom= 1.00D+00 WtEn= 0.00D+00
 Coeff-Com:  0.128D-07 0.100D-05 0.281D-05-0.399D-06 0.395D-04-0.457D-02
 Coeff-Com: -0.135D-01-0.159D-01 0.260D+00 0.773D+00
 Coeff:      0.128D-07 0.100D-05 0.281D-05-0.399D-06 0.395D-04-0.457D-02
 Coeff:     -0.135D-01-0.159D-01 0.260D+00 0.773D+00
 Gap=     0.174 Goal=   None    Shift=    0.000
 RMSDP=6.55D-08 MaxDP=2.37D-06 DE=-4.32D-10 OVMax= 4.00D-06

 Cycle  11  Pass 1  IDiag  1:
 RMSU=  2.82D-08    CP:  9.93D-01  6.23D-01  7.44D-01  7.76D-01  7.38D-01
                    CP:  1.02D+00  8.53D-01  7.91D-01  1.03D+00  8.47D-01
 E= -1042.90711058061     Delta-E=       -0.000000000040 Rises=F Damp=F
 DIIS: error= 9.57D-08 at cycle  11 NSaved=  11.
 NSaved=11 IEnMin=11 EnMin= -1042.90711058061     IErMin=11 ErrMin= 9.57D-08
 ErrMax= 9.57D-08  0.00D+00 EMaxC= 1.00D-01 BMatC= 1.15D-12 BMatP= 4.11D-11
 IDIUse=1 WtCom= 1.00D+00 WtEn= 0.00D+00
 Coeff-Com: -0.186D-06-0.102D-05 0.110D-04 0.373D-04 0.816D-04-0.776D-03
 Coeff-Com: -0.447D-02-0.908D-02 0.183D-01 0.121D+00 0.874D+00
 Coeff:     -0.186D-06-0.102D-05 0.110D-04 0.373D-04 0.816D-04-0.776D-03
 Coeff:     -0.447D-02-0.908D-02 0.183D-01 0.121D+00 0.874D+00
 Gap=     0.174 Goal=   None    Shift=    0.000
 RMSDP=1.05D-08 MaxDP=4.25D-07 DE=-4.05D-11 OVMax= 8.90D-07

 Cycle  12  Pass 1  IDiag  1:
 RMSU=  6.68D-09    CP:  9.93D-01  6.23D-01  7.44D-01  7.76D-01  7.38D-01
                    CP:  1.02D+00  8.53D-01  7.92D-01  1.04D+00  8.75D-01
                    CP:  1.07D+00
 E= -1042.90711058067     Delta-E=       -0.000000000057 Rises=F Damp=F
 DIIS: error= 1.68D-08 at cycle  12 NSaved=  12.
 NSaved=12 IEnMin=12 EnMin= -1042.90711058067     IErMin=12 ErrMin= 1.68D-08
 ErrMax= 1.68D-08  0.00D+00 EMaxC= 1.00D-01 BMatC= 7.54D-14 BMatP= 1.15D-12
 IDIUse=1 WtCom= 1.00D+00 WtEn= 0.00D+00
 Coeff-Com: -0.986D-07-0.364D-06 0.377D-05 0.137D-04 0.260D-04-0.379D-04
 Coeff-Com: -0.884D-03-0.235D-02-0.607D-02 0.441D-02 0.292D+00 0.713D+00
 Coeff:     -0.986D-07-0.364D-06 0.377D-05 0.137D-04 0.260D-04-0.379D-04
 Coeff:     -0.884D-03-0.235D-02-0.607D-02 0.441D-02 0.292D+00 0.713D+00
 Gap=     0.174 Goal=   None    Shift=    0.000
 RMSDP=2.84D-09 MaxDP=8.88D-08 DE=-5.73D-11 OVMax= 2.16D-07

 Error on total polarization charges =  0.04235
 SCF Done:  E(RB3LYP) =  -1042.90711058     A.U. after   12 cycles
            NFock= 12  Conv=0.28D-08     -V/T= 2.0860
 KE= 9.603246601090D+02 PE=-4.056580638644D+03 EE= 1.238943121969D+03
 SMD-CDS (non-electrostatic) energy       (kcal/mol) =       0.06
 (included in total energy above)
 Leave Link  502 at Wed Oct 30 14:42:35 2019, MaxMem=   140000000 cpu:            1032.4 elap:              44.8
 (Enter /usr/g16/l601.exe)
 Copying SCF densities to generalized density rwf, IOpCl= 0 IROHF=0.

 **********************************************************************

            Population analysis using the SCF density.

 **********************************************************************

 Orbital symmetries:
       Occupied  (A) (A) (A) (A) (A) (A) (A) (A) (A) (A) (A) (A)
                 (A) (A) (A) (A) (A) (A) (A) (A) (A) (A) (A) (A)
                 (A) (A) (A) (A) (A) (A) (A) (A) (A) (A) (A) (A)
                 (A) (A) (A) (A) (A) (A) (A) (A) (A) (A) (A) (A)
                 (A) (A) (A) (A)
       Virtual   (A) (A) (A) (A) (A) (A) (A) (A) (A) (A) (A) (A)
                 (A) (A) (A) (A) (A) (A) (A) (A) (A) (A) (A) (A)
                 (A) (A) (A) (A) (A) (A) (A) (A) (A) (A) (A) (A)
                 (A) (A) (A) (A) (A) (A) (A) (A) (A) (A) (A) (A)
                 (A) (A) (A) (A) (A) (A) (A) (A) (A) (A) (A) (A)
                 (A) (A) (A) (A) (A) (A) (A) (A) (A) (A) (A) (A)
                 (A) (A) (A) (A) (A) (A) (A) (A) (A) (A) (A) (A)
                 (A) (A) (A) (A) (A) (A) (A) (A) (A) (A) (A) (A)
                 (A) (A) (A) (A) (A) (A) (A) (A) (A) (A) (A) (A)
                 (A) (A) (A) (A) (A) (A) (A) (A) (A) (A) (A) (A)
                 (A) (A) (A) (A) (A) (A) (A) (A) (A) (A) (A) (A)
                 (A) (A) (A) (A) (A) (A) (A) (A) (A) (A) (A) (A)
 The electronic state is 1-A.
 Alpha  occ. eigenvalues --  -77.09515 -77.09493 -10.17471 -10.17361 -10.17273
 Alpha  occ. eigenvalues --  -10.17164 -10.17060 -10.17023  -6.57309  -6.57288
 Alpha  occ. eigenvalues --   -4.73486  -4.73478  -4.73467  -4.73456  -4.73199
 Alpha  occ. eigenvalues --   -4.73178  -3.89800  -2.15775  -2.14032  -2.11704
 Alpha  occ. eigenvalues --   -0.76759  -0.76539  -0.69082  -0.69052  -0.68909
 Alpha  occ. eigenvalues --   -0.68858  -0.55685  -0.53944  -0.44644  -0.43760
 Alpha  occ. eigenvalues --   -0.42624  -0.42538  -0.42509  -0.42391  -0.40197
 Alpha  occ. eigenvalues --   -0.40104  -0.40056  -0.39991  -0.38450  -0.38437
 Alpha  occ. eigenvalues --   -0.36490  -0.33934  -0.33899  -0.33454  -0.33330
 Alpha  occ. eigenvalues --   -0.33180  -0.26419  -0.25805  -0.25517  -0.24958
 Alpha  occ. eigenvalues --   -0.21553  -0.19687
 Alpha virt. eigenvalues --   -0.02300  -0.00365   0.02202   0.03819   0.05883
 Alpha virt. eigenvalues --    0.07063   0.07915   0.08744   0.09092   0.09427
 Alpha virt. eigenvalues --    0.10055   0.11333   0.12044   0.12464   0.12989
 Alpha virt. eigenvalues --    0.13110   0.14543   0.14752   0.16367   0.16804
 Alpha virt. eigenvalues --    0.17571   0.17680   0.17901   0.18858   0.18941
 Alpha virt. eigenvalues --    0.20115   0.20545   0.20720   0.21319   0.21853
 Alpha virt. eigenvalues --    0.22204   0.22793   0.24290   0.25237   0.30234
 Alpha virt. eigenvalues --    0.30954   0.31153   0.31525   0.39696   0.41916
 Alpha virt. eigenvalues --    0.42016   0.43789   0.43903   0.44276   0.44819
 Alpha virt. eigenvalues --    0.48530   0.48767   0.51286   0.51363   0.58914
 Alpha virt. eigenvalues --    0.61494   0.62989   0.64098   0.64769   0.65207
 Alpha virt. eigenvalues --    0.65365   0.65963   0.67784   0.68564   0.69210
 Alpha virt. eigenvalues --    0.70490   0.71065   0.72236   0.72281   0.75488
 Alpha virt. eigenvalues --    0.79642   0.80077   0.81511   0.81693   0.82474
 Alpha virt. eigenvalues --    0.83239   0.85615   0.87053   0.87304   0.88346
 Alpha virt. eigenvalues --    0.89250   0.89461   0.89601   0.90371   0.90536
 Alpha virt. eigenvalues --    0.92773   0.93086   0.93261   0.93477   0.94434
 Alpha virt. eigenvalues --    0.94622   0.95975   0.96610   0.96770   0.99421
 Alpha virt. eigenvalues --    1.01116   1.01710   1.03791   1.04205   1.08006
 Alpha virt. eigenvalues --    1.08067   1.09366   1.11544   1.14334   1.32803
 Alpha virt. eigenvalues --    1.33769   1.36383   1.37425   1.37940   1.38653
 Alpha virt. eigenvalues --    1.38859   1.44627   1.49184   1.55679   1.65464
 Alpha virt. eigenvalues --    1.65498   1.69710   1.69976   1.71424   1.71577
 Alpha virt. eigenvalues --    1.80276   1.80781   1.82940   1.83240   1.91911
 Alpha virt. eigenvalues --    1.93527   2.10890   2.10995   2.22663   2.22791
 Alpha virt. eigenvalues --    2.22957   2.23116   2.23971   2.24500   2.25822
 Alpha virt. eigenvalues --    2.26020   2.26765   2.26789   2.27090   2.27191
 Alpha virt. eigenvalues --    2.27927   2.28179   2.30061   2.30187   2.62877
 Alpha virt. eigenvalues --   45.81123  45.85305  45.95503 114.26657
          Condensed to atoms (all electrons):
               1          2          3          4          5          6
     1  Pt  17.684441   0.314987   0.314393  -0.016078   0.000795   0.008020
     2  P    0.314987  13.164557  -0.025384   0.335622  -0.024330  -0.017191
     3  P    0.314393  -0.025384  13.162669   0.000239   0.000012  -0.000007
     4  C   -0.016078   0.335622   0.000239   5.341422   0.367004   0.343350
     5  H    0.000795  -0.024330   0.000012   0.367004   0.497628  -0.026869
     6  H    0.008020  -0.017191  -0.000007   0.343350  -0.026869   0.549174
     7  H    0.002268  -0.023988   0.000020   0.366960  -0.022133  -0.026197
     8  C   -0.012725   0.332680   0.000282  -0.039987  -0.001527  -0.003412
     9  H    0.002277  -0.024017   0.000020   0.002105   0.000000  -0.000034
    10  H    0.007594  -0.017869  -0.000007  -0.003383  -0.000214   0.002172
    11  H    0.000937  -0.024148   0.000016  -0.001569   0.000871  -0.000221
    12  C   -0.009581   0.334888   0.000276  -0.038108   0.002138  -0.003845
    13  H    0.001225  -0.024132   0.000018  -0.001401   0.000003  -0.000260
    14  H    0.007294  -0.018819  -0.000006  -0.003770  -0.000033   0.002471
    15  H    0.001878  -0.023844   0.000021   0.002124  -0.000041  -0.000040
    16  C   -0.014896   0.000228   0.335347  -0.000000  -0.000000   0.000000
    17  H    0.002026   0.000017  -0.024373  -0.000000   0.000000   0.000000
    18  H    0.007856  -0.000007  -0.017228   0.000000   0.000000  -0.000000
    19  H    0.001458   0.000018  -0.024643  -0.000000   0.000000   0.000000
    20  C   -0.013397   0.000267   0.334626  -0.000000   0.000000   0.000000
    21  H    0.007623  -0.000007  -0.018280   0.000000   0.000000  -0.000000
    22  H    0.002612   0.000022  -0.023919   0.000000   0.000000  -0.000000
    23  H    0.001118   0.000017  -0.024078   0.000000   0.000000   0.000000
    24  C   -0.008244   0.000294   0.332529  -0.000001   0.000000   0.000000
    25  H    0.001625   0.000019  -0.024452   0.000000  -0.000000  -0.000000
    26  H    0.006926  -0.000007  -0.018322   0.000000  -0.000000  -0.000000
    27  H    0.001469   0.000018  -0.023738   0.000000   0.000000   0.000000
    28  H    0.305901   0.018883   0.011157   0.000167   0.000005  -0.000004
    29  H    0.305289   0.012626   0.017607  -0.004912  -0.000474   0.000208
               7          8          9         10         11         12
     1  Pt   0.002268  -0.012725   0.002277   0.007594   0.000937  -0.009581
     2  P   -0.023988   0.332680  -0.024017  -0.017869  -0.024148   0.334888
     3  P    0.000020   0.000282   0.000020  -0.000007   0.000016   0.000276
     4  C    0.366960  -0.039987   0.002105  -0.003383  -0.001569  -0.038108
     5  H   -0.022133  -0.001527   0.000000  -0.000214   0.000871   0.002138
     6  H   -0.026197  -0.003412  -0.000034   0.002172  -0.000221  -0.003845
     7  H    0.489855   0.002115  -0.000041  -0.000031   0.000003  -0.001447
     8  C    0.002115   5.340304   0.366269   0.347176   0.365485  -0.035729
     9  H   -0.000041   0.366269   0.487789  -0.025837  -0.022201  -0.001431
    10  H   -0.000031   0.347176  -0.025837   0.540871  -0.026287  -0.004116
    11  H    0.000003   0.365485  -0.022201  -0.026287   0.499346   0.002183
    12  C   -0.001447  -0.035729  -0.001431  -0.004116   0.002183   5.335142
    13  H    0.000847   0.002149   0.000003  -0.000043  -0.000042   0.365370
    14  H   -0.000244  -0.004019  -0.000251   0.002637  -0.000039   0.348969
    15  H    0.000003  -0.001421   0.000828  -0.000258   0.000002   0.365489
    16  C   -0.000000  -0.000001   0.000000   0.000000   0.000000  -0.000001
    17  H    0.000000   0.000000  -0.000000  -0.000000   0.000000   0.000000
    18  H    0.000000   0.000000  -0.000000  -0.000000   0.000000   0.000000
    19  H    0.000000   0.000000   0.000000   0.000000   0.000000   0.000000
    20  C    0.000000   0.000000  -0.000000   0.000000  -0.000000  -0.000001
    21  H   -0.000000   0.000000   0.000000  -0.000000   0.000000   0.000000
    22  H   -0.000000  -0.000000   0.000000   0.000000   0.000000  -0.000000
    23  H    0.000000  -0.000000   0.000000   0.000000   0.000000   0.000000
    24  C   -0.000000  -0.000001  -0.000000   0.000000   0.000000   0.000000
    25  H    0.000000   0.000000   0.000000   0.000000   0.000000  -0.000000
    26  H    0.000000   0.000000   0.000000  -0.000000  -0.000000   0.000000
    27  H    0.000000   0.000000   0.000000  -0.000000  -0.000000  -0.000000
    28  H    0.000000  -0.002756  -0.000067   0.000077  -0.000080  -0.001614
    29  H   -0.000119   0.000139  -0.000002  -0.000002   0.000014  -0.000112
              13         14         15         16         17         18
     1  Pt   0.001225   0.007294   0.001878  -0.014896   0.002026   0.007856
     2  P   -0.024132  -0.018819  -0.023844   0.000228   0.000017  -0.000007
     3  P    0.000018  -0.000006   0.000021   0.335347  -0.024373  -0.017228
     4  C   -0.001401  -0.003770   0.002124  -0.000000  -0.000000   0.000000
     5  H    0.000003  -0.000033  -0.000041  -0.000000   0.000000   0.000000
     6  H   -0.000260   0.002471  -0.000040   0.000000   0.000000  -0.000000
     7  H    0.000847  -0.000244   0.000003  -0.000000   0.000000   0.000000
     8  C    0.002149  -0.004019  -0.001421  -0.000001   0.000000   0.000000
     9  H    0.000003  -0.000251   0.000828   0.000000  -0.000000  -0.000000
    10  H   -0.000043   0.002637  -0.000258   0.000000  -0.000000  -0.000000
    11  H   -0.000042  -0.000039   0.000002   0.000000   0.000000   0.000000
    12  C    0.365370   0.348969   0.365489  -0.000001   0.000000   0.000000
    13  H    0.494966  -0.025951  -0.022189   0.000000   0.000000   0.000000
    14  H   -0.025951   0.538449  -0.025805   0.000000   0.000000  -0.000000
    15  H   -0.022189  -0.025805   0.490252   0.000000   0.000000  -0.000000
    16  C    0.000000   0.000000   0.000000   5.341599   0.367206   0.342814
    17  H    0.000000   0.000000   0.000000   0.367206   0.491644  -0.026547
    18  H    0.000000  -0.000000  -0.000000   0.342814  -0.026547   0.550827
    19  H    0.000000  -0.000000  -0.000000   0.367570  -0.022015  -0.026593
    20  C    0.000000   0.000000   0.000000  -0.040278   0.002104  -0.003460
    21  H   -0.000000  -0.000000   0.000000  -0.003421  -0.000033   0.002237
    22  H    0.000000   0.000000   0.000000   0.002122  -0.000041  -0.000037
    23  H   -0.000000  -0.000000   0.000000  -0.001527   0.000002  -0.000234
    24  C   -0.000000   0.000000  -0.000000  -0.038102  -0.001418  -0.003814
    25  H    0.000000   0.000000   0.000000   0.002105   0.000001  -0.000038
    26  H    0.000000  -0.000000   0.000000  -0.003720  -0.000234   0.002473
    27  H    0.000000   0.000000   0.000000  -0.001438   0.000886  -0.000256
    28  H   -0.000015   0.000035   0.000057  -0.005431  -0.000545   0.000260
    29  H    0.000019   0.000004  -0.000000   0.000198   0.000000  -0.000004
              19         20         21         22         23         24
     1  Pt   0.001458  -0.013397   0.007623   0.002612   0.001118  -0.008244
     2  P    0.000018   0.000267  -0.000007   0.000022   0.000017   0.000294
     3  P   -0.024643   0.334626  -0.018280  -0.023919  -0.024078   0.332529
     4  C   -0.000000  -0.000000   0.000000   0.000000   0.000000  -0.000001
     5  H    0.000000   0.000000   0.000000   0.000000   0.000000   0.000000
     6  H    0.000000   0.000000  -0.000000  -0.000000   0.000000   0.000000
     7  H    0.000000   0.000000  -0.000000  -0.000000   0.000000  -0.000000
     8  C    0.000000   0.000000   0.000000  -0.000000  -0.000000  -0.000001
     9  H    0.000000  -0.000000   0.000000   0.000000   0.000000  -0.000000
    10  H    0.000000   0.000000  -0.000000   0.000000   0.000000   0.000000
    11  H    0.000000  -0.000000   0.000000   0.000000   0.000000   0.000000
    12  C    0.000000  -0.000001   0.000000  -0.000000   0.000000   0.000000
    13  H    0.000000   0.000000  -0.000000   0.000000  -0.000000  -0.000000
    14  H   -0.000000   0.000000  -0.000000   0.000000  -0.000000   0.000000
    15  H   -0.000000   0.000000   0.000000   0.000000   0.000000  -0.000000
    16  C    0.367570  -0.040278  -0.003421   0.002122  -0.001527  -0.038102
    17  H   -0.022015   0.002104  -0.000033  -0.000041   0.000002  -0.001418
    18  H   -0.026593  -0.003460   0.002237  -0.000037  -0.000234  -0.003814
    19  H    0.494351  -0.001463  -0.000229   0.000004   0.000879   0.002133
    20  C   -0.001463   5.338775   0.346462   0.366060   0.366052  -0.035771
    21  H   -0.000229   0.346462   0.544145  -0.025891  -0.026416  -0.004095
    22  H    0.000004   0.366060  -0.025891   0.488901  -0.022182  -0.001475
    23  H    0.000879   0.366052  -0.026416  -0.022182   0.497278   0.002171
    24  C    0.002133  -0.035771  -0.004095  -0.001475   0.002171   5.336864
    25  H   -0.000041  -0.001336  -0.000270   0.000820   0.000003   0.365730
    26  H   -0.000034  -0.004064   0.002675  -0.000247  -0.000041   0.349236
    27  H    0.000003   0.002157  -0.000041   0.000003  -0.000042   0.364644
    28  H   -0.000625   0.000200  -0.000004  -0.000002   0.000030  -0.000007
    29  H    0.000010  -0.004296   0.000136   0.000189  -0.000251  -0.000784
              25         26         27         28         29
     1  Pt   0.001625   0.006926   0.001469   0.305901   0.305289
     2  P    0.000019  -0.000007   0.000018   0.018883   0.012626
     3  P   -0.024452  -0.018322  -0.023738   0.011157   0.017607
     4  C    0.000000   0.000000   0.000000   0.000167  -0.004912
     5  H   -0.000000  -0.000000   0.000000   0.000005  -0.000474
     6  H   -0.000000  -0.000000   0.000000  -0.000004   0.000208
     7  H    0.000000   0.000000   0.000000   0.000000  -0.000119
     8  C    0.000000   0.000000   0.000000  -0.002756   0.000139
     9  H    0.000000   0.000000   0.000000  -0.000067  -0.000002
    10  H    0.000000  -0.000000  -0.000000   0.000077  -0.000002
    11  H    0.000000  -0.000000  -0.000000  -0.000080   0.000014
    12  C   -0.000000   0.000000  -0.000000  -0.001614  -0.000112
    13  H    0.000000   0.000000   0.000000  -0.000015   0.000019
    14  H    0.000000  -0.000000   0.000000   0.000035   0.000004
    15  H    0.000000   0.000000   0.000000   0.000057  -0.000000
    16  C    0.002105  -0.003720  -0.001438  -0.005431   0.000198
    17  H    0.000001  -0.000234   0.000886  -0.000545   0.000000
    18  H   -0.000038   0.002473  -0.000256   0.000260  -0.000004
    19  H   -0.000041  -0.000034   0.000003  -0.000625   0.000010
    20  C   -0.001336  -0.004064   0.002157   0.000200  -0.004296
    21  H   -0.000270   0.002675  -0.000041  -0.000004   0.000136
    22  H    0.000820  -0.000247   0.000003  -0.000002   0.000189
    23  H    0.000003  -0.000041  -0.000042   0.000030  -0.000251
    24  C    0.365730   0.349236   0.364644  -0.000007  -0.000784
    25  H    0.491689  -0.025669  -0.022493   0.000000  -0.000060
    26  H   -0.025669   0.535866  -0.025847   0.000002   0.000018
    27  H   -0.022493  -0.025847   0.496472   0.000018   0.000000
    28  H    0.000000   0.000002   0.000018   0.759191  -0.003842
    29  H   -0.000060   0.000018   0.000000  -0.003842   0.760734
 Mulliken charges:
               1
     1  Pt  -0.915091
     2  P    0.708598
     3  P    0.715206
     4  C   -0.649785
     5  H    0.207167
     6  H    0.172686
     7  H    0.212127
     8  C   -0.655023
     9  H    0.214588
    10  H    0.177518
    11  H    0.205731
    12  C   -0.658473
    13  H    0.209432
    14  H    0.179079
    15  H    0.212946
    16  C   -0.650375
    17  H    0.211319
    18  H    0.171752
    19  H    0.209217
    20  C   -0.652638
    21  H    0.175410
    22  H    0.213062
    23  H    0.207219
    24  C   -0.659890
    25  H    0.212367
    26  H    0.180989
    27  H    0.208185
    28  H   -0.080991
    29  H   -0.082333
 Sum of Mulliken charges =  -0.00000
 Mulliken charges with hydrogens summed into heavy atoms:
               1
     1  Pt  -1.078416
     2  P    0.708598
     3  P    0.715206
     4  C   -0.057805
     8  C   -0.057186
    12  C   -0.057015
    16  C   -0.058087
    20  C   -0.056946
    24  C   -0.058349
 Electronic spatial extent (au):  <R**2>=           3357.2533
 Charge=              0.0000 electrons
 Dipole moment (field-independent basis, Debye):
    X=              0.0138    Y=              0.0009    Z=              0.4155  Tot=              0.4157
 Quadrupole moment (field-independent basis, Debye-Ang):
   XX=            -65.1818   YY=            -98.1781   ZZ=            -90.9847
   XY=             -0.2975   XZ=             -0.3332   YZ=              0.0109
 Traceless Quadrupole moment (field-independent basis, Debye-Ang):
   XX=             19.5997   YY=            -13.3965   ZZ=             -6.2032
   XY=             -0.2975   XZ=             -0.3332   YZ=              0.0109
 Octapole moment (field-independent basis, Debye-Ang**2):
  XXX=              0.3835  YYY=             -0.0404  ZZZ=              2.1631  XYY=              0.0515
  XXY=             -0.0339  XXZ=              0.7581  XZZ=             -0.0447  YZZ=             -0.0173
  YYZ=              1.6985  XYZ=             -0.0841
 Hexadecapole moment (field-independent basis, Debye-Ang**3):
 XXXX=          -3143.1871 YYYY=           -629.4880 ZZZZ=           -533.8589 XXXY=             -6.8934
 XXXZ=             -6.5620 YYYX=             -3.6019 YYYZ=             -0.2011 ZZZX=              1.6523
 ZZZY=              0.3080 XXYY=           -654.3254 XXZZ=           -640.7534 YYZZ=           -191.9031
 XXYZ=             -0.0039 YYXZ=             -3.1706 ZZXY=              2.5908
 N-N= 8.144057459846D+02 E-N=-4.056580641202D+03  KE= 9.603246601090D+02
 No NMR shielding tensors so no spin-rotation constants.
 Leave Link  601 at Wed Oct 30 14:42:36 2019, MaxMem=   140000000 cpu:               8.6 elap:               0.4
 (Enter /usr/g16/l108.exe)
 Variable Step   Value    
 -------- ---- -----------
    81       1    0.561083
 Leave Link  108 at Wed Oct 30 14:42:36 2019, MaxMem=   140000000 cpu:               1.2 elap:               0.1
 (Enter /usr/g16/l202.exe)
 ---------------------------------------------------------------------------------------------------
                            Z-MATRIX (ANGSTROMS AND DEGREES)
   CD    Cent   Atom    N1       Length/X        N2       Alpha/Y        N3        Beta/Z          J
 ---------------------------------------------------------------------------------------------------
      1      1  Pt
      2      2  P        1   2.278808(     1)
      3      3  P        1   2.278817(     2)      2  179.979(    29)
      4      4  C        2   1.845358(     3)      1  116.245(    30)      3    3.804(    56)      0
      5      5  H        4   1.095105(     4)      2  109.388(    31)      1   59.060(    57)      0
      6      6  H        4   1.097352(     5)      2  111.547(    32)      1  179.986(    58)      0
      7      7  H        4   1.095108(     6)      2  109.405(    33)      1  -59.077(    59)      0
      8      8  C        2   1.845421(     7)      1  116.263(    34)      3  123.787(    60)      0
      9      9  H        8   1.095112(     8)      2  109.408(    35)      1   59.047(    61)      0
     10     10  H        8   1.097331(     9)      2  111.545(    36)      1  179.982(    62)      0
     11     11  H        8   1.095118(    10)      2  109.403(    37)      1  -59.095(    63)      0
     12     12  C        2   1.845396(    11)      1  116.258(    38)      3 -116.202(    64)      0
     13     13  H       12   1.095127(    12)      2  109.403(    39)      1   59.051(    65)      0
     14     14  H       12   1.097352(    13)      2  111.550(    40)      1  179.983(    66)      0
     15     15  H       12   1.095116(    14)      2  109.399(    41)      1  -59.085(    67)      0
     16     16  C        3   1.845352(    15)      1  116.266(    42)      2  176.264(    68)      0
     17     17  H       16   1.095109(    16)      3  109.402(    43)      1   59.075(    69)      0
     18     18  H       16   1.097349(    17)      3  111.549(    44)      1 -179.988(    70)      0
     19     19  H       16   1.095106(    18)      3  109.390(    45)      1  -59.061(    71)      0
     20     20  C        3   1.845406(    19)      1  116.246(    46)      2   56.270(    72)      0
     21     21  H       20   1.097333(    20)      3  111.548(    47)      1 -179.980(    73)      0
     22     22  H       20   1.095112(    21)      3  109.404(    48)      1  -59.046(    74)      0
     23     23  H       20   1.095116(    22)      3  109.405(    49)      1   59.094(    75)      0
     24     24  C        3   1.845401(    23)      1  116.250(    50)      2  -63.719(    76)      0
     25     25  H       24   1.095113(    24)      3  109.399(    51)      1   59.039(    77)      0
     26     26  H       24   1.097353(    25)      3  111.549(    52)      1  179.971(    78)      0
     27     27  H       24   1.095126(    26)      3  109.404(    53)      1  -59.098(    79)      0
     28     28  H        1   1.850000(    27)      2   90.011(    54)      3  180.000(    80)      0
     29     29  H        1   1.850000(    28)      2   90.000(    55)      3   32.148(    81)      0
 ---------------------------------------------------------------------------------------------------
                         Z-Matrix orientation:                         
 ---------------------------------------------------------------------
 Center     Atomic      Atomic             Coordinates (Angstroms)
 Number     Number       Type             X           Y           Z
 ---------------------------------------------------------------------
      1         78           0        0.000000    0.000000    0.000000
      2         15           0        0.000000    0.000000    2.278808
      3         15           0        0.000842    0.000000   -2.278817
      4          6           0        1.651479    0.109806    3.094838
      5          1           0        2.152381    1.031083    2.779239
      6          1           0        1.561792    0.104100    4.188503
      7          1           0        2.270088   -0.737101    2.779664
      8          6           0       -0.920321    1.375413    3.095402
      9          1           0       -1.968713    1.349407    2.780019
     10          1           0       -0.870389    1.300217    4.189015
     11          1           0       -0.495731    2.334540    2.780629
     12          6           0       -0.730735   -1.484904    3.095247
     13          1           0       -0.183735   -2.379665    2.779819
     14          1           0       -0.690691   -1.404225    4.188897
     15          1           0       -1.773565   -1.596950    2.780242
     16          6           0       -1.650157   -0.107836   -3.096069
     17          1           0       -2.267961    0.739797   -2.781265
     18          1           0       -1.559687   -0.102163   -4.189667
     19          1           0       -2.152398   -1.028529   -2.780896
     20          6           0        0.920217   -1.376530   -3.094560
     21          1           0        0.871004   -1.301586   -4.188225
     22          1           0        1.968444   -1.351443   -2.778553
     23          1           0        0.494525   -2.335161   -2.779773
     24          6           0        0.733973    1.484006   -3.094753
     25          1           0        1.776573    1.595065   -2.778645
     26          1           0        0.695014    1.403130   -4.188427
     27          1           0        0.187532    2.379383   -2.780103
     28          1           0       -1.850000   -0.000000   -0.000342
     29          1           0        1.566357   -0.984392    0.000012
 ---------------------------------------------------------------------
                    Distance matrix (angstroms):
                    1          2          3          4          5
     1  Pt   0.000000
     2  P    2.278808   0.000000
     3  P    2.278817   4.557625   0.000000
     4  C    3.509624   1.845358   5.622528   0.000000
     5  H    3.663339   2.438505   5.592512   1.095105   0.000000
     6  H    4.471419   2.469204   6.653844   1.097352   1.787210
     7  H    3.663762   2.438744   5.592944   1.095108   1.772097
     8  C    3.510024   1.845421   5.623392   2.866342   3.108057
     9  H    3.664047   2.438841   5.593914   3.839468   4.133371
    10  H    4.471687   2.469217   6.654506   2.995683   3.346197
    11  H    3.664386   2.438781   5.594162   3.107842   2.951526
    12  C    3.509910   1.845396   5.623229   2.866713   3.839584
    13  H    3.663872   2.438765   5.593449   3.108812   4.134083
    14  H    4.471662   2.469280   6.654426   2.995834   4.000115
    15  H    3.664086   2.438692   5.594001   3.839650   4.724364
    16  C    3.510027   5.623517   1.845352   7.019650   7.090534
    17  H    3.664203   5.594219   2.438692   7.091367   7.109394
    18  H    4.471730   6.654640   2.469218   7.963701   7.976801
    19  H    3.663887   5.593862   2.438524   7.091511   7.327225
    20  C    3.509692   5.622697   1.845406   6.407229   6.466556
    21  H    4.471465   6.653968   2.469240   7.459502   7.458473
    22  H    3.663540   5.592680   2.438769   6.060729   6.049737
    23  H    3.663969   5.593458   2.438782   6.467415   6.706915
    24  C    3.509770   5.622823   1.845401   6.406346   6.059769
    25  H    3.663511   5.592698   2.438705   6.059657   5.599052
    26  H    4.471548   6.654093   2.469263   7.458784   7.128164
    27  H    3.664096   5.593676   2.438771   6.465991   6.048540
    28  H    1.850000   2.935477   2.935484   4.674671   4.980789
    29  H    1.850000   2.935202   2.934778   3.283666   3.482768
                    6          7          8          9         10
     6  H    0.000000
     7  H    1.787213   0.000000
     8  C    2.995328   3.839416   0.000000
     9  H    3.999886   4.724505   1.095112   0.000000
    10  H    2.710387   3.999940   1.097331   1.787178   0.000000
    11  H    3.345202   4.133369   1.095118   1.772051   1.787105
    12  C    2.995967   3.108655   2.866593   3.108903   2.995451
    13  H    3.346691   2.952840   3.839631   4.134263   3.999858
    14  H    2.710853   3.346222   2.995806   3.346755   2.710406
    15  H    4.000172   4.134062   3.108423   2.952812   3.345735
    16  C    7.964077   7.091440   6.408354   6.062462   7.460770
    17  H    7.978019   7.327964   6.062620   5.602594   7.131065
    18  H    8.943149   7.977588   7.460848   7.130980   8.523152
    19  H    7.978131   7.110776   6.467444   6.050793   7.459642
    20  C    7.459685   6.061150   7.019716   7.091356   7.963775
    21  H    8.521896   7.129345   7.964068   7.977981   8.943152
    22  H    7.129084   5.600195   7.091125   7.327587   7.977297
    23  H    7.459620   6.050931   7.091392   7.110195   7.977654
    24  C    7.458904   6.465426   6.408315   6.468042   7.460631
    25  H    7.128132   6.047921   6.467295   6.707180   7.459331
    26  H    8.521253   7.457597   7.460848   7.460400   8.523063
    27  H    7.458349   6.705260   6.062743   6.051876   7.131087
    28  H    5.403479   5.024627   3.512790   3.092798   4.494542
    29  H    4.327620   2.877996   4.618840   5.066733   5.357696
                   11         12         13         14         15
    11  H    0.000000
    12  C    3.839579   0.000000
    13  H    4.724519   1.095127   0.000000
    14  H    3.999950   1.097352   1.787174   0.000000
    15  H    4.133942   1.095116   1.772063   1.787195   0.000000
    16  C    6.467880   6.408904   6.468203   7.461362   6.063309
    17  H    6.051336   6.468829   6.708256   7.461084   6.052700
    18  H    7.460198   7.461174   7.460161   8.523547   7.131603
    19  H    6.707111   6.062875   6.051673   7.131321   5.602934
    20  C    7.091882   6.407114   6.060802   7.459527   6.466711
    21  H    7.978364   7.459768   7.129401   8.522065   7.459257
    22  H    7.110776   6.465672   6.048521   7.457825   6.705454
[...]
 ------------------------------------------------------------------------------
 GePol: Number of generator spheres                  =      29
 GePol: Total number of spheres                      =      29
 GePol: Number of exposed spheres                    =      29 (100.00%)
 GePol: Number of points                             =    2122
 GePol: Average weight of points                     =       0.12
 GePol: Minimum weight of points                     =   0.10D-10
 GePol: Maximum weight of points                     =    0.22001
 GePol: Number of points with low weight             =     107
 GePol: Fraction of low-weight points (<1% of avg)   =       5.04%
 GePol: Cavity surface area                          =    250.971 Ang**2
 GePol: Cavity volume                                =    207.285 Ang**3
 ------------------------------------------------------------------------------
 Atomic radii for non-electrostatic terms: SMD-CDS.
 ------------------------------------------------------------------------------
 PCM non-electrostatic energy =         0.0001196874 Hartrees.
 Nuclear repulsion after PCM non-electrostatic terms =      815.1797498629 Hartrees.
 Leave Link  301 at Wed Oct 30 14:52:30 2019, MaxMem=   140000000 cpu:               5.2 elap:               0.2
 (Enter /usr/g16/l302.exe)
 NPDir=0 NMtPBC=     1 NCelOv=     1 NCel=       1 NClECP=     1 NCelD=      1
         NCelK=      1 NCelE2=     1 NClLst=     1 CellRange=     0.0.
 One-electron integrals computed using PRISM.
 One-electron integral symmetry used in STVInt
   1 Symmetry operations used in ECPInt.
 ECPInt:  NShTT=    3916 NPrTT=   20546 LenC2=    3685 LenP2D=   12937.
 LDataN:  DoStor=T MaxTD1= 7 Len=  274
 Number of processors reduced to  20 by ecpmxn.
 NBasis=   196 RedAO= T EigKep=  1.36D-03  NBF=   196
 NBsUse=   196 1.00D-06 EigRej= -1.00D+00 NBFU=   196
 Precomputing XC quadrature grid using
 IXCGrd= 4 IRadAn=           5 IRanWt=          -1 IRanGd=           0 AccXCQ= 0.00D+00.
 Defaulting to unpruned grid for atomic number  78.
 Generated NRdTot=       0 NPtTot=           0 NUsed=           0 NTot=          32
 NSgBfM=   207   207   207   207   207 MxSgAt=    29 MxSgA2=    29.
 Leave Link  302 at Wed Oct 30 14:52:31 2019, MaxMem=   140000000 cpu:              15.4 elap:               0.7
 (Enter /usr/g16/l303.exe)
 DipDrv:  MaxL=1.
 Leave Link  303 at Wed Oct 30 14:52:31 2019, MaxMem=   140000000 cpu:               3.2 elap:               0.1
 (Enter /usr/g16/l401.exe)
 Initial guess from the checkpoint file:  "Pt_tsscan.chk"
 B after Tr=     0.000000    0.000000    0.000000
         Rot=    0.999113   -0.042119   -0.000000   -0.000000 Ang=  -4.83 deg.
 Guess basis will be translated and rotated to current coordinates.
 JPrj=2 DoOrth=T DoCkMO=T.
 Generating alternative initial guess.
 ExpMin= 1.50D-02 ExpMax= 1.94D+04 ExpMxC= 2.91D+03 IAcc=3 IRadAn=         5 AccDes= 0.00D+00
 Harris functional with IExCor=  402 and IRadAn=       5 diagonalized for initial guess.
 HarFok:  IExCor=  402 AccDes= 0.00D+00 IRadAn=         5 IDoV= 1 UseB2=F ITyADJ=14
 ICtDFT=  3500011 ScaDFX=  1.000000  1.000000  1.000000  1.000000
 Defaulting to unpruned grid for atomic number  78.
 FoFCou: FMM=F IPFlag=           0 FMFlag=      100000 FMFlg1=           0
         NFxFlg=           0 DoJE=T BraDBF=F KetDBF=T FulRan=T
         wScrn=  0.000000 ICntrl=       500 IOpCl=  0 I1Cent=   200000004 NGrid=           0
         NMat0=    1 NMatS0=      1 NMatT0=    0 NMatD0=    1 NMtDS0=    0 NMtDT0=    0
 Petite list used in FoFCou.
 Harris En= -1042.60741228083    
 Leave Link  401 at Wed Oct 30 14:52:33 2019, MaxMem=   140000000 cpu:              39.5 elap:               1.7
 (Enter /usr/g16/l502.exe)
 Integral symmetry usage will be decided dynamically.
 Closed shell SCF:
 Using DIIS extrapolation, IDIIS=  1040.
 NGot=   140000000 LenX=   139906737 LenY=   139863447
 Requested convergence on RMS density matrix=1.00D-08 within 128 cycles.
 Requested convergence on MAX density matrix=1.00D-06.
 Requested convergence on             energy=1.00D-06.
 No special actions if energy rises.
 Fock matrices will be formed incrementally for  20 cycles.

 Cycle   1  Pass 1  IDiag  1:
 FoFJK:  IHMeth= 1 ICntrl=       0 DoSepK=F KAlg= 0 I1Cent=           0 FoldK=F
 IRaf= 900000000 NMat=       1 IRICut=       1 DoRegI=T DoRafI=F ISym2E= 0 IDoP0=0 IntGTp=1.
 FoFCou: FMM=F IPFlag=           0 FMFlag=      100000 FMFlg1=           0
         NFxFlg=           0 DoJE=F BraDBF=F KetDBF=F FulRan=T
         wScrn=  0.000000 ICntrl=         0 IOpCl=  0 I1Cent=           0 NGrid=           0
         NMat0=    1 NMatS0=      1 NMatT0=    0 NMatD0=    1 NMtDS0=    0 NMtDT0=    0
 Symmetry not used in FoFCou.
 Defaulting to unpruned grid for atomic number  78.
 Defaulting to unpruned grid for atomic number  78.
 Defaulting to unpruned grid for atomic number  78.
 Defaulting to unpruned grid for atomic number  78.
 Defaulting to unpruned grid for atomic number  78.
 Defaulting to unpruned grid for atomic number  78.
 Defaulting to unpruned grid for atomic number  78.
 Defaulting to unpruned grid for atomic number  78.
 Defaulting to unpruned grid for atomic number  78.
 Defaulting to unpruned grid for atomic number  78.
 Defaulting to unpruned grid for atomic number  78.
 Defaulting to unpruned grid for atomic number  78.
 Defaulting to unpruned grid for atomic number  78.
 Defaulting to unpruned grid for atomic number  78.
 Defaulting to unpruned grid for atomic number  78.
 Defaulting to unpruned grid for atomic number  78.
 Defaulting to unpruned grid for atomic number  78.
 Defaulting to unpruned grid for atomic number  78.
 Defaulting to unpruned grid for atomic number  78.
 Defaulting to unpruned grid for atomic number  78.
 Defaulting to unpruned grid for atomic number  78.
 Defaulting to unpruned grid for atomic number  78.
 Defaulting to unpruned grid for atomic number  78.
 Defaulting to unpruned grid for atomic number  78.
 Inv3:  Mode=1 IEnd=    13508652.
 Iteration    1 A*A^-1 deviation from unit magnitude is 8.88D-15 for    516.
 Iteration    1 A*A^-1 deviation from orthogonality  is 2.33D-15 for   1571    866.
 Iteration    1 A^-1*A deviation from unit magnitude is 8.88D-15 for    516.
 Iteration    1 A^-1*A deviation from orthogonality  is 2.47D-15 for   2015   1401.
 E= -1042.80874124025    
 DIIS: error= 1.10D-02 at cycle   1 NSaved=   1.
 NSaved= 1 IEnMin= 1 EnMin= -1042.80874124025     IErMin= 1 ErrMin= 1.10D-02
 ErrMax= 1.10D-02  0.00D+00 EMaxC= 1.00D-01 BMatC= 1.38D-02 BMatP= 1.38D-02
 IDIUse=3 WtCom= 8.90D-01 WtEn= 1.10D-01
 Coeff-Com:  0.100D+01
 Coeff-En:   0.100D+01
 Coeff:      0.100D+01
 Recover alternate guess density for next cycle.
 RMSDP=4.09D-03 MaxDP=1.07D-01              OVMax= 0.00D+00

 Cycle   2  Pass 1  IDiag  1:
 RMSU=  4.08D-03    CP:  9.93D-01
 E= -1042.16235502409     Delta-E=        0.646386216152 Rises=F Damp=F
 Switch densities from cycles 1 and 2 for lowest energy.
 DIIS: error= 6.53D-02 at cycle   2 NSaved=   2.
 NSaved= 2 IEnMin= 1 EnMin= -1042.80874124025     IErMin= 1 ErrMin= 1.10D-02
 ErrMax= 6.53D-02  0.00D+00 EMaxC= 1.00D+00 BMatC= 7.11D-01 BMatP= 1.38D-02
 IDIUse=1 WtCom= 1.00D+00 WtEn= 0.00D+00
 Coeff-Com:  0.961D+00 0.387D-01
 Coeff:      0.961D+00 0.387D-01
 Gap=     0.137 Goal=   None    Shift=    0.000
 RMSDP=1.00D-03 MaxDP=5.44D-02 DE= 6.46D-01 OVMax= 1.23D-01

 Cycle   3  Pass 1  IDiag  1:
 RMSU=  9.84D-04    CP:  1.00D+00  4.48D-02
 E= -1042.82888541738     Delta-E=       -0.666530393288 Rises=F Damp=F
 DIIS: error= 3.18D-03 at cycle   3 NSaved=   3.
 NSaved= 3 IEnMin= 3 EnMin= -1042.82888541738     IErMin= 3 ErrMin= 3.18D-03
 ErrMax= 3.18D-03  0.00D+00 EMaxC= 1.00D+00 BMatC= 2.00D-03 BMatP= 1.38D-02
 IDIUse=1 WtCom= 1.00D+00 WtEn= 0.00D+00
 Coeff-Com:  0.182D+00 0.321D-01 0.786D+00
 Coeff:      0.182D+00 0.321D-01 0.786D+00
 Gap=     0.126 Goal=   None    Shift=    0.000
 RMSDP=5.85D-04 MaxDP=2.51D-02 DE=-6.67D-01 OVMax= 2.61D-02

 Cycle   4  Pass 1  IDiag  1:
 RMSU=  5.23D-04    CP:  9.99D-01  6.57D-02  7.51D-01
 E= -1042.83150919438     Delta-E=       -0.002623777002 Rises=F Damp=F
 DIIS: error= 5.64D-04 at cycle   4 NSaved=   4.
 NSaved= 4 IEnMin= 4 EnMin= -1042.83150919438     IErMin= 4 ErrMin= 5.64D-04
 ErrMax= 5.64D-04  0.00D+00 EMaxC= 1.00D+00 BMatC= 1.27D-04 BMatP= 2.00D-03
 IDIUse=1 WtCom= 1.00D+00 WtEn= 0.00D+00
 Coeff-Com:  0.245D-01 0.800D-02 0.255D+00 0.713D+00
 Coeff:      0.245D-01 0.800D-02 0.255D+00 0.713D+00
 Gap=     0.124 Goal=   None    Shift=    0.000
 RMSDP=1.49D-04 MaxDP=5.78D-03 DE=-2.62D-03 OVMax= 5.68D-03

 Cycle   5  Pass 1  IDiag  1:
 RMSU=  1.10D-04    CP:  9.99D-01  6.38D-02  8.12D-01  8.46D-01
 E= -1042.83164074668     Delta-E=       -0.000131552297 Rises=F Damp=F
 DIIS: error= 6.67D-04 at cycle   5 NSaved=   5.
 NSaved= 5 IEnMin= 5 EnMin= -1042.83164074668     IErMin= 4 ErrMin= 5.64D-04
 ErrMax= 6.67D-04  0.00D+00 EMaxC= 1.00D+00 BMatC= 3.95D-05 BMatP= 1.27D-04
 IDIUse=1 WtCom= 1.00D+00 WtEn= 0.00D+00
 Coeff-Com: -0.171D-02 0.165D-03 0.664D-01 0.388D+00 0.547D+00
 Coeff:     -0.171D-02 0.165D-03 0.664D-01 0.388D+00 0.547D+00
 Gap=     0.125 Goal=   None    Shift=    0.000
 RMSDP=5.10D-05 MaxDP=2.26D-03 DE=-1.32D-04 OVMax= 2.85D-03

 Cycle   6  Pass 1  IDiag  1:
 RMSU=  4.37D-05    CP:  9.99D-01  6.29D-02  8.18D-01  8.55D-01  7.74D-01
 E= -1042.83167293228     Delta-E=       -0.000032185596 Rises=F Damp=F
 DIIS: error= 2.98D-04 at cycle   6 NSaved=   6.
 NSaved= 6 IEnMin= 6 EnMin= -1042.83167293228     IErMin= 6 ErrMin= 2.98D-04
 ErrMax= 2.98D-04  0.00D+00 EMaxC= 1.00D+00 BMatC= 8.64D-06 BMatP= 3.95D-05
 IDIUse=1 WtCom= 1.00D+00 WtEn= 0.00D+00
 Coeff-Com: -0.344D-02-0.276D-04 0.156D-01 0.146D+00 0.353D+00 0.488D+00
 Coeff:     -0.344D-02-0.276D-04 0.156D-01 0.146D+00 0.353D+00 0.488D+00
 Gap=     0.125 Goal=   None    Shift=    0.000
 RMSDP=1.96D-05 MaxDP=8.79D-04 DE=-3.22D-05 OVMax= 1.23D-03

 Cycle   7  Pass 1  IDiag  1:
 RMSU=  1.18D-05    CP:  9.99D-01  6.35D-02  8.16D-01  8.74D-01  8.09D-01
                    CP:  7.50D-01
 E= -1042.83168090885     Delta-E=       -0.000007976574 Rises=F Damp=F
 DIIS: error= 4.42D-05 at cycle   7 NSaved=   7.
 NSaved= 7 IEnMin= 7 EnMin= -1042.83168090885     IErMin= 7 ErrMin= 4.42D-05
 ErrMax= 4.42D-05  0.00D+00 EMaxC= 1.00D+00 BMatC= 3.82D-07 BMatP= 8.64D-06
 IDIUse=1 WtCom= 1.00D+00 WtEn= 0.00D+00
 Coeff-Com: -0.178D-02-0.101D-03 0.948D-03 0.420D-01 0.147D+00 0.234D+00
 Coeff-Com:  0.578D+00
 Coeff:     -0.178D-02-0.101D-03 0.948D-03 0.420D-01 0.147D+00 0.234D+00
 Coeff:      0.578D+00
 Gap=     0.125 Goal=   None    Shift=    0.000
 RMSDP=4.87D-06 MaxDP=1.29D-04 DE=-7.98D-06 OVMax= 3.48D-04

 Cycle   8  Pass 1  IDiag  1:
 RMSU=  3.89D-06    CP:  9.99D-01  6.35D-02  8.16D-01  8.77D-01  8.21D-01
                    CP:  7.92D-01  9.25D-01
 E= -1042.83168136540     Delta-E=       -0.000000456550 Rises=F Damp=F
 DIIS: error= 1.66D-05 at cycle   8 NSaved=   8.
 NSaved= 8 IEnMin= 8 EnMin= -1042.83168136540     IErMin= 8 ErrMin= 1.66D-05
 ErrMax= 1.66D-05  0.00D+00 EMaxC= 1.00D+00 BMatC= 4.65D-08 BMatP= 3.82D-07
 IDIUse=1 WtCom= 1.00D+00 WtEn= 0.00D+00
 Coeff-Com: -0.954D-04 0.275D-04-0.200D-02-0.847D-02 0.172D-02-0.571D-02
 Coeff-Com:  0.222D+00 0.793D+00
 Coeff:     -0.954D-04 0.275D-04-0.200D-02-0.847D-02 0.172D-02-0.571D-02
 Coeff:      0.222D+00 0.793D+00
 Gap=     0.125 Goal=   None    Shift=    0.000
 RMSDP=2.64D-06 MaxDP=8.59D-05 DE=-4.57D-07 OVMax= 2.59D-04

 Cycle   9  Pass 1  IDiag  1:
 RMSU=  1.34D-06    CP:  9.99D-01  6.36D-02  8.17D-01  8.78D-01  8.34D-01
                    CP:  8.01D-01  1.05D+00  1.08D+00
 E= -1042.83168144222     Delta-E=       -0.000000076822 Rises=F Damp=F
 DIIS: error= 3.02D-06 at cycle   9 NSaved=   9.
 NSaved= 9 IEnMin= 9 EnMin= -1042.83168144222     IErMin= 9 ErrMin= 3.02D-06
 ErrMax= 3.02D-06  0.00D+00 EMaxC= 1.00D+00 BMatC= 1.22D-09 BMatP= 4.65D-08
 IDIUse=1 WtCom= 1.00D+00 WtEn= 0.00D+00
 Coeff-Com:  0.116D-03 0.298D-05-0.488D-03-0.475D-02-0.116D-01-0.173D-01
 Coeff-Com: -0.969D-02 0.147D+00 0.897D+00
 Coeff:      0.116D-03 0.298D-05-0.488D-03-0.475D-02-0.116D-01-0.173D-01
 Coeff:     -0.969D-02 0.147D+00 0.897D+00
 Gap=     0.125 Goal=   None    Shift=    0.000
 RMSDP=8.96D-07 MaxDP=3.44D-05 DE=-7.68D-08 OVMax= 1.03D-04

 Cycle  10  Pass 1  IDiag  1:
 RMSU=  3.90D-07    CP:  9.99D-01  6.36D-02  8.17D-01  8.78D-01  8.36D-01
                    CP:  8.11D-01  1.08D+00  1.18D+00  1.18D+00
 E= -1042.83168144737     Delta-E=       -0.000000005148 Rises=F Damp=F
 DIIS: error= 7.69D-07 at cycle  10 NSaved=  10.
 NSaved=10 IEnMin=10 EnMin= -1042.83168144737     IErMin=10 ErrMin= 7.69D-07
 ErrMax= 7.69D-07  0.00D+00 EMaxC= 1.00D+00 BMatC= 1.22D-10 BMatP= 1.22D-09
 IDIUse=1 WtCom= 1.00D+00 WtEn= 0.00D+00
 Coeff-Com:  0.450D-04-0.977D-06-0.235D-04-0.101D-02-0.391D-02-0.467D-02
 Coeff-Com: -0.175D-01-0.489D-02 0.269D+00 0.763D+00
 Coeff:      0.450D-04-0.977D-06-0.235D-04-0.101D-02-0.391D-02-0.467D-02
 Coeff:     -0.175D-01-0.489D-02 0.269D+00 0.763D+00
 Gap=     0.125 Goal=   None    Shift=    0.000
 RMSDP=2.25D-07 MaxDP=8.29D-06 DE=-5.15D-09 OVMax= 2.46D-05

 Cycle  11  Pass 1  IDiag  1:
 RMSU=  1.14D-07    CP:  9.99D-01  6.36D-02  8.17D-01  8.78D-01  8.36D-01
                    CP:  8.12D-01  1.09D+00  1.20D+00  1.28D+00  9.93D-01
 E= -1042.83168144775     Delta-E=       -0.000000000380 Rises=F Damp=F
 DIIS: error= 2.30D-07 at cycle  11 NSaved=  11.
 NSaved=11 IEnMin=11 EnMin= -1042.83168144775     IErMin=11 ErrMin= 2.30D-07
 ErrMax= 2.30D-07  0.00D+00 EMaxC= 1.00D+00 BMatC= 1.42D-11 BMatP= 1.22D-10
 IDIUse=1 WtCom= 1.00D+00 WtEn= 0.00D+00
 Coeff-Com: -0.111D-05-0.100D-05 0.544D-04 0.289D-03 0.204D-03 0.768D-03
 Coeff-Com: -0.468D-02-0.205D-01-0.246D-01 0.251D+00 0.798D+00
 Coeff:     -0.111D-05-0.100D-05 0.544D-04 0.289D-03 0.204D-03 0.768D-03
 Coeff:     -0.468D-02-0.205D-01-0.246D-01 0.251D+00 0.798D+00
 Gap=     0.125 Goal=   None    Shift=    0.000
 RMSDP=7.74D-08 MaxDP=2.93D-06 DE=-3.80D-10 OVMax= 8.78D-06

 Cycle  12  Pass 1  IDiag  1:
 RMSU=  2.58D-08    CP:  9.99D-01  6.36D-02  8.17D-01  8.78D-01  8.36D-01
                    CP:  8.12D-01  1.09D+00  1.21D+00  1.31D+00  1.10D+00
                    CP:  9.57D-01
 E= -1042.83168144776     Delta-E=       -0.000000000007 Rises=F Damp=F
 DIIS: error= 5.68D-08 at cycle  12 NSaved=  12.
 NSaved=12 IEnMin=12 EnMin= -1042.83168144776     IErMin=12 ErrMin= 5.68D-08
 ErrMax= 5.68D-08  0.00D+00 EMaxC= 1.00D+00 BMatC= 5.18D-13 BMatP= 1.42D-11
 IDIUse=1 WtCom= 1.00D+00 WtEn= 0.00D+00
 Coeff-Com: -0.303D-05-0.828D-07 0.141D-04 0.131D-03 0.303D-03 0.419D-03
 Coeff-Com:  0.136D-03-0.433D-02-0.223D-01 0.721D-02 0.172D+00 0.846D+00
 Coeff:     -0.303D-05-0.828D-07 0.141D-04 0.131D-03 0.303D-03 0.419D-03
 Coeff:      0.136D-03-0.433D-02-0.223D-01 0.721D-02 0.172D+00 0.846D+00
 Gap=     0.125 Goal=   None    Shift=    0.000
 RMSDP=1.57D-08 MaxDP=5.36D-07 DE=-6.59D-12 OVMax= 1.69D-06

 Cycle  13  Pass 1  IDiag  1:
 RMSU=  7.13D-09    CP:  9.99D-01  6.36D-02  8.17D-01  8.78D-01  8.36D-01
                    CP:  8.12D-01  1.09D+00  1.21D+00  1.32D+00  1.12D+00
                    CP:  1.01D+00  1.06D+00
 E= -1042.83168144777     Delta-E=       -0.000000000014 Rises=F Damp=F
 DIIS: error= 1.12D-08 at cycle  13 NSaved=  13.
 NSaved=13 IEnMin=13 EnMin= -1042.83168144777     IErMin=13 ErrMin= 1.12D-08
 ErrMax= 1.12D-08  0.00D+00 EMaxC= 1.00D+00 BMatC= 3.78D-14 BMatP= 5.18D-13
 IDIUse=1 WtCom= 1.00D+00 WtEn= 0.00D+00
 Coeff-Com: -0.976D-06 0.304D-07 0.207D-05 0.308D-04 0.889D-04 0.104D-03
 Coeff-Com:  0.250D-03-0.410D-03-0.606D-02-0.904D-02 0.166D-01 0.260D+00
 Coeff-Com:  0.739D+00
 Coeff:     -0.976D-06 0.304D-07 0.207D-05 0.308D-04 0.889D-04 0.104D-03
 Coeff:      0.250D-03-0.410D-03-0.606D-02-0.904D-02 0.166D-01 0.260D+00
 Coeff:      0.739D+00
 Gap=     0.125 Goal=   None    Shift=    0.000
 RMSDP=2.86D-09 MaxDP=6.40D-08 DE=-1.39D-11 OVMax= 2.10D-07

 Error on total polarization charges =  0.04666
 SCF Done:  E(RB3LYP) =  -1042.83168145     A.U. after   13 cycles
            NFock= 13  Conv=0.29D-08     -V/T= 2.0851
 KE= 9.610512084569D+02 PE=-4.059561701089D+03 EE= 1.240499061322D+03
 SMD-CDS (non-electrostatic) energy       (kcal/mol) =       0.08
 (included in total energy above)
 Leave Link  502 at Wed Oct 30 14:53:23 2019, MaxMem=   140000000 cpu:            1156.1 elap:              50.0
 (Enter /usr/g16/l108.exe)
 Scan completed.
 
 Summary of the potential surface scan, energies are +1042 a.u.:
   N      D26         SCF    
 ----  ---------  -----------
    1    22.1477     -0.90711
    2    32.1477     -0.89945
    3    42.1477     -0.88987
    4    52.1477     -0.87910
    5    62.1477     -0.86755
    6    72.1477     -0.85560
    7    82.1477     -0.84337
    8    92.1477     -0.83060
    9   102.1477     -0.81649
   10   112.1477     -0.79938
   11   122.1477     -0.77680
   12   132.1477     -0.83205
   13   142.1477     -0.84691
   14   152.1477     -0.86691
   15   162.1477     -0.83168
 ----  ---------  -----------
  
 Leave Link  108 at Wed Oct 30 14:53:23 2019, MaxMem=   140000000 cpu:               1.0 elap:               0.0
 (Enter /usr/g16/l9999.exe)
 1\1\GINC-LW06\Scan\RB3LYP\GenECP\C6H20P2Pt1\WSR\30-Oct-2019\1\\#p scan
  b3lyp/genecp scrf=(smd,solvent=benzene) em=gd3bj\\Title Card Required
 \\0,1\Pt\P,1,B1\P,1,B2,2,A1\C,2,B3,1,A2,3,D1,0\H,4,B4,2,A3,1,D2,0\H,4,
 B5,2,A4,1,D3,0\H,4,B6,2,A5,1,D4,0\C,2,B7,1,A6,3,D5,0\H,8,B8,2,A7,1,D6,
 0\H,8,B9,2,A8,1,D7,0\H,8,B10,2,A9,1,D8,0\C,2,B11,1,A10,3,D9,0\H,12,B12
 ,2,A11,1,D10,0\H,12,B13,2,A12,1,D11,0\H,12,B14,2,A13,1,D12,0\C,3,B15,1
 ,A14,2,D13,0\H,16,B16,3,A15,1,D14,0\H,16,B17,3,A16,1,D15,0\H,16,B18,3,
 A17,1,D16,0\C,3,B19,1,A18,2,D17,0\H,20,B20,3,A19,1,D18,0\H,20,B21,3,A2
 0,1,D19,0\H,20,B22,3,A21,1,D20,0\C,3,B23,1,A22,2,D21,0\H,24,B24,3,A23,
 1,D22,0\H,24,B25,3,A24,1,D23,0\H,24,B26,3,A25,1,D24,0\H,1,B27,2,A26,3,
 D25,0\H,1,B28,2,A27,3,D26,0\\B1=2.27880804\B2=2.27881704\B3=1.84535765
 \B4=1.09510541\B5=1.09735189\B6=1.09510849\B7=1.84542089\B8=1.09511212
 \B9=1.09733132\B10=1.09511772\B11=1.84539561\B12=1.09512668\B13=1.0973
 5249\B14=1.09511567\B15=1.84535226\B16=1.09510932\B17=1.09734899\B18=1
 .09510609\B19=1.84540583\B20=1.09733329\B21=1.09511205\B22=1.09511602\
 B23=1.84540116\B24=1.09511329\B25=1.09735268\B26=1.09512629\B27=1.85\B
 28=1.85\A1=179.97883582\A2=116.24476714\A3=109.38805431\A4=111.5472343
 \A5=109.40538367\A6=116.26334347\A7=109.40810297\A8=111.54498883\A9=10
 9.4034105\A10=116.25836516\A11=109.40349493\A12=111.55033019\A13=109.3
 986731\A14=116.26603988\A15=109.4019174\A16=111.54882578\A17=109.38971
 995\A18=116.24587291\A19=111.5476471\A20=109.40382368\A21=109.40458126
 \A22=116.2502227\A23=109.3993911\A24=111.54868544\A25=109.40353729\A26
 =90.01058209\A27=89.99963919\D1=3.80397869\D2=59.06015257\D3=179.98562
 288\D4=-59.07723327\D5=123.78738646\D6=59.0469156\D7=179.98211041\D8=-
 59.09468801\D9=-116.20222069\D10=59.05109121\D11=179.98284679\D12=-59.
 08519553\D13=176.26369002\D14=59.07517022\D15=-179.9883133\D16=-59.061
 12888\D17=56.26997285\D18=-179.98034568\D19=-59.04554677\D20=59.093737
 44\D21=-63.71897839\D22=59.03856913\D23=179.97106344\D24=-59.09840705\
 D25=180.\D26=22.14769869,s,14,10.\\Version=ES64L-G16RevA.03\HF=-1042.9
 071106,-1042.8994483,-1042.8898681,-1042.8790969,-1042.8675528,-1042.8
 555975,-1042.8433669,-1042.8306019,-1042.8164931,-1042.7993783,-1042.7
 768024,-1042.8320519,-1042.8469134,-1042.8669094,-1042.8316814\RMSD=2.
 842e-09,4.904e-09,5.896e-09,5.736e-09,8.230e-09,5.193e-09,7.258e-09,3.
 813e-09,6.813e-09,6.963e-09,6.670e-09,4.780e-09,4.574e-09,7.145e-09,2.
 858e-09\PG=C01 [X(C6H20P2Pt1)]\\@


 CURIOUSER AND CURIOUSER

                  -- ALICE, IN WONDERLAND
 Job cpu time:       0 days  4 hours 25 minutes 48.3 seconds.
 Elapsed time:       0 days  0 hours 11 minutes 34.3 seconds.
 File lengths (MBytes):  RWF=    181 Int=      0 D2E=      0 Chk=      5 Scr=      1
 Normal termination of Gaussian 16 at Wed Oct 30 14:53:23 2019.
