 Entering Gaussian System, Link 0=g16
 Input=Pt_tsb.gjf
 Output=Pt_tsb.log
 Initial command:
 /usr/g16/l1.exe "/scratch/wsr/gaussian/Gau-188472.inp" -scrdir="/scratch/wsr/gaussian/"
 Entering Link 1 = /usr/g16/l1.exe PID=    188473.
  
 Copyright (c) 1988,1990,1992,1993,1995,1998,2003,2009,2016,
            Gaussian, Inc.  All Rights Reserved.
  
 This is part of the Gaussian(R) 16 program.  It is based on
 the Gaussian(R) 09 system (copyright 2009, Gaussian, Inc.),
 the Gaussian(R) 03 system (copyright 2003, Gaussian, Inc.),
 the Gaussian(R) 98 system (copyright 1998, Gaussian, Inc.),
 the Gaussian(R) 94 system (copyright 1995, Gaussian, Inc.),
 the Gaussian 92(TM) system (copyright 1992, Gaussian, Inc.),
 the Gaussian 90(TM) system (copyright 1990, Gaussian, Inc.),
 the Gaussian 88(TM) system (copyright 1988, Gaussian, Inc.),
 the Gaussian 86(TM) system (copyright 1986, Carnegie Mellon
 University), and the Gaussian 82(TM) system (copyright 1983,
 Carnegie Mellon University). Gaussian is a federally registered
 trademark of Gaussian, Inc.
  
 This software contains proprietary and confidential information,
 including trade secrets, belonging to Gaussian, Inc.
  
 This software is provided under written license and may be
 used, copied, transmitted, or stored only in accord with that
 written license.
  
 The following legend is applicable only to US Government
 contracts under FAR:
  
                    RESTRICTED RIGHTS LEGEND
  
 Use, reproduction and disclosure by the US Government is
 subject to restrictions as set forth in subparagraphs (a)
 and (c) of the Commercial Computer Software - Restricted
 Rights clause in FAR 52.227-19.
  
 Gaussian, Inc.
 340 Quinnipiac St., Bldg. 40, Wallingford CT 06492
  
  
 ---------------------------------------------------------------
 Warning -- This program may not be used in any manner that
 competes with the business of Gaussian, Inc. or will provide
 assistance to any competitor of Gaussian, Inc.  The licensee
 of this program is prohibited from giving any competitor of
 Gaussian, Inc. access to this program.  By using this program,
 the user acknowledges that Gaussian, Inc. is engaged in the
 business of creating and licensing software in the field of
 computational chemistry and represents and warrants to the
 licensee that it is not a competitor of Gaussian, Inc. and that
 it will not use this program in any manner prohibited above.
 ---------------------------------------------------------------
  

 Cite this work as:
 Gaussian 16, Revision A.03,
 M. J. Frisch, G. W. Trucks, H. B. Schlegel, G. E. Scuseria, 
 M. A. Robb, J. R. Cheeseman, G. Scalmani, V. Barone, 
 G. A. Petersson, H. Nakatsuji, X. Li, M. Caricato, A. V. Marenich, 
 J. Bloino, B. G. Janesko, R. Gomperts, B. Mennucci, H. P. Hratchian, 
 J. V. Ortiz, A. F. Izmaylov, J. L. Sonnenberg, D. Williams-Young, 
 F. Ding, F. Lipparini, F. Egidi, J. Goings, B. Peng, A. Petrone, 
 T. Henderson, D. Ranasinghe, V. G. Zakrzewski, J. Gao, N. Rega, 
 G. Zheng, W. Liang, M. Hada, M. Ehara, K. Toyota, R. Fukuda, 
 J. Hasegawa, M. Ishida, T. Nakajima, Y. Honda, O. Kitao, H. Nakai, 
 T. Vreven, K. Throssell, J. A. Montgomery, Jr., J. E. Peralta, 
 F. Ogliaro, M. J. Bearpark, J. J. Heyd, E. N. Brothers, K. N. Kudin, 
 V. N. Staroverov, T. A. Keith, R. Kobayashi, J. Normand, 
 K. Raghavachari, A. P. Rendell, J. C. Burant, S. S. Iyengar, 
 J. Tomasi, M. Cossi, J. M. Millam, M. Klene, C. Adamo, R. Cammi, 
 J. W. Ochterski, R. L. Martin, K. Morokuma, O. Farkas, 
 J. B. Foresman, and D. J. Fox, Gaussian, Inc., Wallingford CT, 2016.
 
 ******************************************
 Gaussian 16:  ES64L-G16RevA.03 25-Dec-2016
                 1-Nov-2019 
 ******************************************
 %chk=Pt_tsb.chk
 %nprocshared=24
 Will use up to   24 processors via shared memory.
 ------------------------------------------------------------------
 #p opt=(calcfc,ts,noeigen) M062X/genecp scrf=(smd,solvent=benzene)
 ------------------------------------------------------------------
 1/5=1,10=4,11=1,18=20,26=3,38=1/1,3;
 2/9=110,12=2,17=6,18=5,40=1/2;
 3/5=7,11=2,16=1,17=8,25=1,30=1,70=32201,71=2,72=12,74=-55,140=1/1,2,3;
 4//1;
 5/5=2,38=5,53=12/2;
 8/6=4,10=90,11=11/1;
 11/6=1,8=1,9=11,15=111,16=1/1,2,10;
 10/6=1,13=1/2;
 6/7=2,8=2,9=2,10=2,28=1/1;
 7/10=1,18=20,25=1/1,2,3,16;
 1/5=1,10=4,11=1,18=20,26=3/3(2);
 2/9=110/2;
 99//99;
 2/9=110/2;
 3/5=7,6=1,11=2,16=1,17=8,25=1,30=1,70=32205,71=1,72=12,74=-55,82=7/1,2,3;
 4/5=5,16=3,69=1/1;
 5/5=2,38=5,53=12/2;
 7//1,2,3,16;
 1/5=1,11=1,18=20,26=3/3(-5);
 2/9=110/2;
 6/7=2,8=2,9=2,10=2,19=2,28=1/1;
 99/9=1/99;
 Leave Link    1 at Fri Nov  1 05:32:44 2019, MaxMem=           0 cpu:               2.4 elap:               0.1
 (Enter /usr/g16/l101.exe)
 -------------------
 Title Card Required
 -------------------
 Symbolic Z-matrix:
 Charge =  0 Multiplicity = 1
 Pt                   -0.11664   0.74248   0.01095 
 P                     2.10931  -0.02442   0.00716 
 P                    -2.12237  -0.07414   0.00878 
 C                     3.14812   0.54334   1.41696 
 H                     2.69645   0.21269   2.35799 
 H                     4.16995   0.15187   1.35033 
 H                     3.17565   1.6369    1.42111 
 C                     2.40718  -1.84554   0.03481 
 H                     1.906    -2.31446  -0.81821 
 H                     3.47839  -2.0724   -0.01841 
 H                     2.00252  -2.27285   0.95692 
 C                     3.09781   0.4892   -1.45883 
 H                     3.11594   1.58162  -1.51192 
 H                     4.12445   0.10807  -1.40814 
 H                     2.6194    0.1143   -2.36961 
 C                    -3.3954    1.02242   0.75946 
 H                    -3.40435   1.97681   0.22517 
 H                    -4.39393   0.57138   0.72257 
 H                    -3.12733   1.22281   1.80187 
 C                    -2.4736   -1.67323   0.86101 
 H                    -3.54876  -1.88677   0.86952 
 H                    -1.9577   -2.49255   0.35408 
 H                    -2.11396  -1.62283   1.89398 
 C                    -2.80121  -0.37758  -1.6769 
 H                    -2.18215  -1.11843  -2.19347 
 H                    -3.83615  -0.73712  -1.63833 
 H                    -2.76334   0.55413  -2.24982 
 H                    -0.46348   2.67137  -0.02227 
 H                     0.38359   2.57712  -0.02531 
 
 ITRead=  0  0  0  0  0  0  0  0  0  0  0  0  0  0  0  0  0  0  0  0
 ITRead=  0  0  0  0  0  0  0  0  0
 MicOpt= -1 -1 -1 -1 -1 -1 -1 -1 -1 -1 -1 -1 -1 -1 -1 -1 -1 -1 -1 -1
 MicOpt= -1 -1 -1 -1 -1 -1 -1 -1 -1
 NAtoms=     29 NQM=       29 NQMF=       0 NMMI=      0 NMMIF=      0
                NMic=       0 NMicF=      0.
                    Isotopes and Nuclear Properties:
 (Nuclear quadrupole moments (NQMom) in fm**2, nuclear magnetic moments (NMagM)
  in nuclear magnetons)

  Atom         1           2           3           4           5           6           7           8           9          10
 IAtWgt=         195          31          31          12           1           1           1          12           1           1
 AtmWgt= 194.9648000  30.9737634  30.9737634  12.0000000   1.0078250   1.0078250   1.0078250  12.0000000   1.0078250   1.0078250
 NucSpn=           1           1           1           0           1           1           1           0           1           1
 AtZEff=  -0.0000000  -0.0000000  -0.0000000  -0.0000000  -0.0000000  -0.0000000  -0.0000000  -0.0000000  -0.0000000  -0.0000000
 NQMom=    0.0000000   0.0000000   0.0000000   0.0000000   0.0000000   0.0000000   0.0000000   0.0000000   0.0000000   0.0000000
 NMagM=    0.6095000   1.1316000   1.1316000   0.0000000   2.7928460   2.7928460   2.7928460   0.0000000   2.7928460   2.7928460
 AtZNuc=  78.0000000  15.0000000  15.0000000   6.0000000   1.0000000   1.0000000   1.0000000   6.0000000   1.0000000   1.0000000

  Atom        11          12          13          14          15          16          17          18          19          20
 IAtWgt=           1          12           1           1           1          12           1           1           1          12
 AtmWgt=   1.0078250  12.0000000   1.0078250   1.0078250   1.0078250  12.0000000   1.0078250   1.0078250   1.0078250  12.0000000
 NucSpn=           1           0           1           1           1           0           1           1           1           0
 AtZEff=  -0.0000000  -0.0000000  -0.0000000  -0.0000000  -0.0000000  -0.0000000  -0.0000000  -0.0000000  -0.0000000  -0.0000000
 NQMom=    0.0000000   0.0000000   0.0000000   0.0000000   0.0000000   0.0000000   0.0000000   0.0000000   0.0000000   0.0000000
 NMagM=    2.7928460   0.0000000   2.7928460   2.7928460   2.7928460   0.0000000   2.7928460   2.7928460   2.7928460   0.0000000
 AtZNuc=   1.0000000   6.0000000   1.0000000   1.0000000   1.0000000   6.0000000   1.0000000   1.0000000   1.0000000   6.0000000

  Atom        21          22          23          24          25          26          27          28          29
 IAtWgt=           1           1           1          12           1           1           1           1           1
 AtmWgt=   1.0078250   1.0078250   1.0078250  12.0000000   1.0078250   1.0078250   1.0078250   1.0078250   1.0078250
 NucSpn=           1           1           1           0           1           1           1           1           1
 AtZEff=  -0.0000000  -0.0000000  -0.0000000  -0.0000000  -0.0000000  -0.0000000  -0.0000000  -0.0000000  -0.0000000
 NQMom=    0.0000000   0.0000000   0.0000000   0.0000000   0.0000000   0.0000000   0.0000000   0.0000000   0.0000000
 NMagM=    2.7928460   2.7928460   2.7928460   0.0000000   2.7928460   2.7928460   2.7928460   2.7928460   2.7928460
 AtZNuc=   1.0000000   1.0000000   1.0000000   6.0000000   1.0000000   1.0000000   1.0000000   1.0000000   1.0000000
 Leave Link  101 at Fri Nov  1 05:32:44 2019, MaxMem=   140000000 cpu:               4.3 elap:               0.2
 (Enter /usr/g16/l103.exe)

 GradGradGradGradGradGradGradGradGradGradGradGradGradGradGradGradGradGrad
 Berny optimization.
 Initialization pass.
                           ----------------------------
                           !    Initial Parameters    !
                           ! (Angstroms and Degrees)  !
 --------------------------                            --------------------------
 ! Name  Definition              Value          Derivative Info.                !
 --------------------------------------------------------------------------------
 ! R1    R(1,2)                  2.3544         calculate D2E/DX2 analytically  !
 ! R2    R(1,3)                  2.1656         calculate D2E/DX2 analytically  !
 ! R3    R(1,28)                 1.9601         calculate D2E/DX2 analytically  !
 ! R4    R(1,29)                 1.902          calculate D2E/DX2 analytically  !
 ! R5    R(2,4)                  1.8409         calculate D2E/DX2 analytically  !
 ! R6    R(2,8)                  1.8455         calculate D2E/DX2 analytically  !
 ! R7    R(2,12)                 1.8412         calculate D2E/DX2 analytically  !
 ! R8    R(3,16)                 1.8403         calculate D2E/DX2 analytically  !
 ! R9    R(3,20)                 1.8457         calculate D2E/DX2 analytically  !
 ! R10   R(3,24)                 1.8424         calculate D2E/DX2 analytically  !
 ! R11   R(4,5)                  1.0949         calculate D2E/DX2 analytically  !
 ! R12   R(4,6)                  1.0963         calculate D2E/DX2 analytically  !
 ! R13   R(4,7)                  1.0939         calculate D2E/DX2 analytically  !
 ! R14   R(8,9)                  1.0949         calculate D2E/DX2 analytically  !
 ! R15   R(8,10)                 1.0963         calculate D2E/DX2 analytically  !
 ! R16   R(8,11)                 1.0939         calculate D2E/DX2 analytically  !
 ! R17   R(12,13)                1.0939         calculate D2E/DX2 analytically  !
 ! R18   R(12,14)                1.0963         calculate D2E/DX2 analytically  !
 ! R19   R(12,15)                1.095          calculate D2E/DX2 analytically  !
 ! R20   R(16,17)                1.0938         calculate D2E/DX2 analytically  !
 ! R21   R(16,18)                1.0963         calculate D2E/DX2 analytically  !
 ! R22   R(16,19)                1.0948         calculate D2E/DX2 analytically  !
 ! R23   R(20,21)                1.0962         calculate D2E/DX2 analytically  !
 ! R24   R(20,22)                1.0929         calculate D2E/DX2 analytically  !
 ! R25   R(20,23)                1.095          calculate D2E/DX2 analytically  !
 ! R26   R(24,25)                1.095          calculate D2E/DX2 analytically  !
 ! R27   R(24,26)                1.0963         calculate D2E/DX2 analytically  !
 ! R28   R(24,27)                1.0944         calculate D2E/DX2 analytically  !
 ! R29   R(28,29)                0.8523         calculate D2E/DX2 analytically  !
 ! A1    A(2,1,3)              138.8358         calculate D2E/DX2 analytically  !
 ! A2    A(2,1,28)             119.1976         calculate D2E/DX2 analytically  !
 ! A3    A(2,1,29)              93.7565         calculate D2E/DX2 analytically  !
 ! A4    A(3,1,28)             101.9572         calculate D2E/DX2 analytically  !
 ! A5    A(3,1,29)             127.3956         calculate D2E/DX2 analytically  !
 ! A6    A(1,2,4)              115.5828         calculate D2E/DX2 analytically  !
 ! A7    A(1,2,8)              118.2949         calculate D2E/DX2 analytically  !
 ! A8    A(1,2,12)             114.7089         calculate D2E/DX2 analytically  !
 ! A9    A(4,2,8)              101.6411         calculate D2E/DX2 analytically  !
 ! A10   A(4,2,12)             102.7534         calculate D2E/DX2 analytically  !
 ! A11   A(8,2,12)             101.5686         calculate D2E/DX2 analytically  !
 ! A12   A(1,3,16)             114.5567         calculate D2E/DX2 analytically  !
 ! A13   A(1,3,20)             120.1642         calculate D2E/DX2 analytically  !
 ! A14   A(1,3,24)             113.8457         calculate D2E/DX2 analytically  !
 ! A15   A(16,3,20)            101.3184         calculate D2E/DX2 analytically  !
 ! A16   A(16,3,24)            102.5018         calculate D2E/DX2 analytically  !
 ! A17   A(20,3,24)            102.1021         calculate D2E/DX2 analytically  !
 ! A18   A(2,4,5)              109.4059         calculate D2E/DX2 analytically  !
 ! A19   A(2,4,6)              111.6717         calculate D2E/DX2 analytically  !
 ! A20   A(2,4,7)              108.9907         calculate D2E/DX2 analytically  !
 ! A21   A(5,4,6)              109.2019         calculate D2E/DX2 analytically  !
 ! A22   A(5,4,7)              107.9994         calculate D2E/DX2 analytically  !
 ! A23   A(6,4,7)              109.4968         calculate D2E/DX2 analytically  !
 ! A24   A(2,8,9)              109.6985         calculate D2E/DX2 analytically  !
 ! A25   A(2,8,10)             111.1736         calculate D2E/DX2 analytically  !
 ! A26   A(2,8,11)             109.7784         calculate D2E/DX2 analytically  !
 ! A27   A(9,8,10)             108.7142         calculate D2E/DX2 analytically  !
 ! A28   A(9,8,11)             108.67           calculate D2E/DX2 analytically  !
 ! A29   A(10,8,11)            108.7568         calculate D2E/DX2 analytically  !
 ! A30   A(2,12,13)            109.0343         calculate D2E/DX2 analytically  !
 ! A31   A(2,12,14)            111.653          calculate D2E/DX2 analytically  !
 ! A32   A(2,12,15)            109.4021         calculate D2E/DX2 analytically  !
 ! A33   A(13,12,14)           109.5072         calculate D2E/DX2 analytically  !
 ! A34   A(13,12,15)           107.9864         calculate D2E/DX2 analytically  !
 ! A35   A(14,12,15)           109.1834         calculate D2E/DX2 analytically  !
 ! A36   A(3,16,17)            109.046          calculate D2E/DX2 analytically  !
 ! A37   A(3,16,18)            111.7896         calculate D2E/DX2 analytically  !
 ! A38   A(3,16,19)            109.1517         calculate D2E/DX2 analytically  !
 ! A39   A(17,16,18)           109.5783         calculate D2E/DX2 analytically  !
 ! A40   A(17,16,19)           107.9013         calculate D2E/DX2 analytically  !
 ! A41   A(18,16,19)           109.2909         calculate D2E/DX2 analytically  !
 ! A42   A(3,20,21)            111.0386         calculate D2E/DX2 analytically  !
 ! A43   A(3,20,22)            110.2127         calculate D2E/DX2 analytically  !
 ! A44   A(3,20,23)            109.464          calculate D2E/DX2 analytically  !
 ! A45   A(21,20,22)           108.6959         calculate D2E/DX2 analytically  !
 ! A46   A(21,20,23)           108.8927         calculate D2E/DX2 analytically  !
 ! A47   A(22,20,23)           108.4844         calculate D2E/DX2 analytically  !
 ! A48   A(3,24,25)            109.5577         calculate D2E/DX2 analytically  !
 ! A49   A(3,24,26)            111.6943         calculate D2E/DX2 analytically  !
 ! A50   A(3,24,27)            109.0264         calculate D2E/DX2 analytically  !
 ! A51   A(25,24,26)           109.1735         calculate D2E/DX2 analytically  !
 ! A52   A(25,24,27)           108.0278         calculate D2E/DX2 analytically  !
 ! A53   A(26,24,27)           109.2867         calculate D2E/DX2 analytically  !
 ! D1    D(3,1,2,4)           -122.0006         calculate D2E/DX2 analytically  !
 ! D2    D(3,1,2,8)             -1.2171         calculate D2E/DX2 analytically  !
 ! D3    D(3,1,2,12)           118.678          calculate D2E/DX2 analytically  !
 ! D4    D(28,1,2,4)            59.356          calculate D2E/DX2 analytically  !
 ! D5    D(28,1,2,8)          -179.8606         calculate D2E/DX2 analytically  !
 ! D6    D(28,1,2,12)          -59.9655         calculate D2E/DX2 analytically  !
 ! D7    D(29,1,2,4)            59.2928         calculate D2E/DX2 analytically  !
 ! D8    D(29,1,2,8)          -179.9238         calculate D2E/DX2 analytically  !
 ! D9    D(29,1,2,12)          -60.0287         calculate D2E/DX2 analytically  !
 ! D10   D(2,1,3,16)           153.5301         calculate D2E/DX2 analytically  !
 ! D11   D(2,1,3,20)            32.5242         calculate D2E/DX2 analytically  !
 ! D12   D(2,1,3,24)           -88.9427         calculate D2E/DX2 analytically  !
 ! D13   D(28,1,3,16)          -27.6804         calculate D2E/DX2 analytically  !
 ! D14   D(28,1,3,20)         -148.6862         calculate D2E/DX2 analytically  !
 ! D15   D(28,1,3,24)           89.8469         calculate D2E/DX2 analytically  !
 ! D16   D(29,1,3,16)          -28.0944         calculate D2E/DX2 analytically  !
 ! D17   D(29,1,3,20)         -149.1003         calculate D2E/DX2 analytically  !
 ! D18   D(29,1,3,24)           89.4328         calculate D2E/DX2 analytically  !
 ! D19   D(1,2,4,5)             59.1297         calculate D2E/DX2 analytically  !
 ! D20   D(1,2,4,6)           -179.8584         calculate D2E/DX2 analytically  !
 ! D21   D(1,2,4,7)            -58.756          calculate D2E/DX2 analytically  !
 ! D22   D(8,2,4,5)            -70.3051         calculate D2E/DX2 analytically  !
 ! D23   D(8,2,4,6)             50.7068         calculate D2E/DX2 analytically  !
 ! D24   D(8,2,4,7)            171.8092         calculate D2E/DX2 analytically  !
 ! D25   D(12,2,4,5)          -175.1713         calculate D2E/DX2 analytically  !
 ! D26   D(12,2,4,6)           -54.1594         calculate D2E/DX2 analytically  !
 ! D27   D(12,2,4,7)            66.943          calculate D2E/DX2 analytically  !
 ! D28   D(1,2,8,9)             56.975          calculate D2E/DX2 analytically  !
 ! D29   D(1,2,8,10)           177.2494         calculate D2E/DX2 analytically  !
 ! D30   D(1,2,8,11)           -62.3704         calculate D2E/DX2 analytically  !
 ! D31   D(4,2,8,9)           -175.3187         calculate D2E/DX2 analytically  !
 ! D32   D(4,2,8,10)           -55.0443         calculate D2E/DX2 analytically  !
 ! D33   D(4,2,8,11)            65.3359         calculate D2E/DX2 analytically  !
 ! D34   D(12,2,8,9)           -69.5213         calculate D2E/DX2 analytically  !
 ! D35   D(12,2,8,10)           50.7531         calculate D2E/DX2 analytically  !
 ! D36   D(12,2,8,11)          171.1334         calculate D2E/DX2 analytically  !
 ! D37   D(1,2,12,13)           58.7199         calculate D2E/DX2 analytically  !
 ! D38   D(1,2,12,14)          179.8526         calculate D2E/DX2 analytically  !
 ! D39   D(1,2,12,15)          -59.1734         calculate D2E/DX2 analytically  !
 ! D40   D(4,2,12,13)          -67.5441         calculate D2E/DX2 analytically  !
 ! D41   D(4,2,12,14)           53.5886         calculate D2E/DX2 analytically  !
 ! D42   D(4,2,12,15)          174.5626         calculate D2E/DX2 analytically  !
 ! D43   D(8,2,12,13)         -172.4662         calculate D2E/DX2 analytically  !
 ! D44   D(8,2,12,14)          -51.3335         calculate D2E/DX2 analytically  !
 ! D45   D(8,2,12,15)           69.6404         calculate D2E/DX2 analytically  !
 ! D46   D(1,3,16,17)           57.9229         calculate D2E/DX2 analytically  !
 ! D47   D(1,3,16,18)          179.2408         calculate D2E/DX2 analytically  !
 ! D48   D(1,3,16,19)          -59.7308         calculate D2E/DX2 analytically  !
 ! D49   D(20,3,16,17)        -171.168          calculate D2E/DX2 analytically  !
 ! D50   D(20,3,16,18)         -49.8501         calculate D2E/DX2 analytically  !
 ! D51   D(20,3,16,19)          71.1783         calculate D2E/DX2 analytically  !
 ! D52   D(24,3,16,17)         -65.897          calculate D2E/DX2 analytically  !
 ! D53   D(24,3,16,18)          55.4209         calculate D2E/DX2 analytically  !
 ! D54   D(24,3,16,19)         176.4493         calculate D2E/DX2 analytically  !
 ! D55   D(1,3,20,21)          173.3144         calculate D2E/DX2 analytically  !
 ! D56   D(1,3,20,22)          -66.182          calculate D2E/DX2 analytically  !
 ! D57   D(1,3,20,23)           53.0568         calculate D2E/DX2 analytically  !
 ! D58   D(16,3,20,21)          45.9744         calculate D2E/DX2 analytically  !
 ! D59   D(16,3,20,22)         166.4781         calculate D2E/DX2 analytically  !
 ! D60   D(16,3,20,23)         -74.2831         calculate D2E/DX2 analytically  !
 ! D61   D(24,3,20,21)         -59.6124         calculate D2E/DX2 analytically  !
 ! D62   D(24,3,20,22)          60.8913         calculate D2E/DX2 analytically  !
 ! D63   D(24,3,20,23)        -179.8699         calculate D2E/DX2 analytically  !
 ! D64   D(1,3,24,25)           62.095          calculate D2E/DX2 analytically  !
 ! D65   D(1,3,24,26)         -176.8112         calculate D2E/DX2 analytically  !
 ! D66   D(1,3,24,27)          -55.9336         calculate D2E/DX2 analytically  !
 ! D67   D(16,3,24,25)        -173.6123         calculate D2E/DX2 analytically  !
 ! D68   D(16,3,24,26)         -52.5186         calculate D2E/DX2 analytically  !
 ! D69   D(16,3,24,27)          68.3591         calculate D2E/DX2 analytically  !
 ! D70   D(20,3,24,25)         -68.9489         calculate D2E/DX2 analytically  !
 ! D71   D(20,3,24,26)          52.1448         calculate D2E/DX2 analytically  !
 ! D72   D(20,3,24,27)         173.0224         calculate D2E/DX2 analytically  !
 --------------------------------------------------------------------------------
 Trust Radius=3.00D-01 FncErr=1.00D-07 GrdErr=1.00D-06 EigMax=2.50D+02 EigMin=1.00D-04
 Number of steps in this run=    164 maximum allowed number of steps=    174.
 Search for a saddle point of order  1.
 GradGradGradGradGradGradGradGradGradGradGradGradGradGradGradGradGradGrad

 Leave Link  103 at Fri Nov  1 05:32:44 2019, MaxMem=   140000000 cpu:               0.9 elap:               0.1
 (Enter /usr/g16/l202.exe)
                          Input orientation:                          
 ---------------------------------------------------------------------
 Center     Atomic      Atomic             Coordinates (Angstroms)
 Number     Number       Type             X           Y           Z
 ---------------------------------------------------------------------
      1         78           0       -0.116639    0.742484    0.010950
      2         15           0        2.109306   -0.024423    0.007161
      3         15           0       -2.122371   -0.074143    0.008784
      4          6           0        3.148121    0.543343    1.416964
      5          1           0        2.696451    0.212693    2.357990
      6          1           0        4.169948    0.151871    1.350332
      7          1           0        3.175646    1.636902    1.421112
      8          6           0        2.407185   -1.845540    0.034811
      9          1           0        1.905998   -2.314460   -0.818209
     10          1           0        3.478394   -2.072403   -0.018408
     11          1           0        2.002524   -2.272852    0.956924
     12          6           0        3.097812    0.489197   -1.458827
     13          1           0        3.115937    1.581616   -1.511923
     14          1           0        4.124452    0.108071   -1.408145
     15          1           0        2.619396    0.114302   -2.369615
     16          6           0       -3.395403    1.022416    0.759456
     17          1           0       -3.404349    1.976813    0.225165
     18          1           0       -4.393930    0.571383    0.722566
     19          1           0       -3.127329    1.222810    1.801874
     20          6           0       -2.473597   -1.673225    0.861010
     21          1           0       -3.548758   -1.886772    0.869516
     22          1           0       -1.957702   -2.492547    0.354082
     23          1           0       -2.113955   -1.622828    1.893984
     24          6           0       -2.801214   -0.377577   -1.676904
     25          1           0       -2.182148   -1.118429   -2.193472
     26          1           0       -3.836145   -0.737123   -1.638329
     27          1           0       -2.763344    0.554129   -2.249820
     28          1           0       -0.463476    2.671368   -0.022270
     29          1           0        0.383592    2.577123   -0.025310
 ---------------------------------------------------------------------
                    Distance matrix (angstroms):
                    1          2          3          4          5
     1  Pt   0.000000
     2  P    2.354356   0.000000
     3  P    2.165605   4.231969   0.000000
     4  C    3.560223   1.840934   5.490204   0.000000
     5  H    3.701722   2.434617   5.368620   1.094927   0.000000
     6  H    4.529635   2.466056   6.437710   1.096276   1.786132
     7  H    3.691569   2.428238   5.743808   1.093913   1.770802
     8  C    3.614986   1.845525   4.863681   2.857638   3.117236
     9  H    3.758120   2.442711   4.683022   3.834827   4.135161
    10  H    4.566039   2.463591   5.946625   3.001916   3.388269
    11  H    3.804993   2.443130   4.769492   3.074895   2.936401
    12  C    3.543598   1.841214   5.451747   2.876740   3.847809
    13  H    3.670535   2.429050   5.700347   3.107640   4.126275
    14  H    4.516986   2.466061   6.408095   3.020583   4.029132
    15  H    3.680704   2.434851   5.308167   3.847311   4.729256
    16  C    3.374748   5.653640   1.840262   6.593901   6.349933
    17  H    3.518309   5.869656   2.428314   6.812494   6.699315
    18  H    4.339458   6.569541   2.467016   7.574002   7.285380
    19  H    3.535870   5.674410   2.430473   6.323851   5.936835
    20  C    3.480446   4.944756   1.845728   6.068441   5.703248
    21  H    4.407898   6.018778   2.461922   7.145162   6.754697
    22  H    3.738005   4.769963   2.448474   6.034548   5.744137
    23  H    3.623505   4.893969   2.439770   5.710454   5.169569
    24  C    3.363084   5.203268   1.842402   6.768655   6.844933
    25  H    3.548071   4.945323   2.438040   6.648948   6.803560
    26  H    4.329444   6.209989   2.467701   7.730095   7.716704
    27  H    3.485916   5.401056   2.430405   6.956352   7.152472
    28  H    1.960100   3.726575   3.207916   4.432100   4.657881
    29  H    1.901958   3.122048   3.648318   3.722772   4.076759
                    6          7          8          9         10
     6  H    0.000000
     7  H    1.788565   0.000000
     8  C    2.971124   3.826195   0.000000
     9  H    3.988837   4.715912   1.094858   0.000000
    10  H    2.701683   3.990341   1.096262   1.780647   0.000000
    11  H    3.275938   4.108267   1.093910   1.778242   1.780349
    12  C    3.025663   3.101182   2.856382   3.113086   2.963350
    13  H    3.368622   2.934164   3.826240   4.138187   3.964066
    14  H    2.759200   3.352947   2.974512   3.337396   2.665188
    15  H    4.030338   4.122782   3.109224   2.968953   3.323813
    16  C    7.638162   6.632803   6.513088   6.459770   7.578395
    17  H    7.871873   6.696429   6.958487   6.906768   7.989220
    18  H    8.597097   7.676052   7.250495   7.098674   8.337394
    19  H    7.389252   6.328028   6.570245   6.686665   7.603120
    20  C    6.907033   6.571500   4.953214   4.734111   6.029836
    21  H    7.997854   7.611711   6.014290   5.725880   7.085460
    22  H    6.747855   6.673992   4.424114   4.041554   5.465017
    23  H    6.552293   6.231318   4.893550   4.898405   5.927372
    24  C    7.618502   7.026997   5.675588   5.162046   6.712416
    25  H    7.383856   7.025883   5.153243   4.476023   6.138625
    26  H    8.591852   8.010081   6.557984   6.011056   7.609836
    27  H    7.822624   7.065391   6.141035   5.664015   7.130019
    28  H    5.449818   4.049282   5.352234   5.577311   6.167797
    29  H    4.702205   3.282030   4.863999   5.184013   5.585333
                   11         12         13         14         15
    11  H    0.000000
    12  C    3.829415   0.000000
    13  H    4.710819   1.093858   0.000000
    14  H    3.970506   1.096274   1.788633   0.000000
    15  H    4.140639   1.094972   1.770649   1.785961   0.000000
    16  C    6.327354   6.882365   6.918773   7.879260   6.840582
    17  H    6.915881   6.879457   6.759274   7.927341   6.818162
    18  H    7.004229   7.803296   7.900102   8.793032   7.678362
    19  H    6.264901   7.065602   7.077313   8.008445   7.187138
    20  C    4.517125   6.410796   6.889680   7.201134   6.290530
    21  H    5.565378   7.432583   7.881568   8.248956   7.248612
    22  H    4.011867   6.142935   6.769238   6.845528   5.929924
    23  H    4.271536   6.547099   7.015728   7.267585   6.603068
    24  C    5.796984   5.966353   6.235249   6.947873   5.486784
    25  H    5.363690   5.567957   5.985353   6.472577   4.960391
    26  H    6.571443   7.043851   7.329664   8.008648   6.552382
    27  H    6.402228   5.914646   6.013831   6.953353   5.402007
    28  H    5.611175   4.416824   4.027260   5.435092   4.642490
    29  H    5.206533   3.712330   3.266001   4.690681   4.069407
                   16         17         18         19         20
    16  C    0.000000
    17  H    1.093810   0.000000
    18  H    1.096288   1.789389   0.000000
    19  H    1.094832   1.769540   1.787049   0.000000
    20  C    2.850706   3.820128   2.957213   3.114420   0.000000
    21  H    2.915305   3.919608   2.603542   3.273590   1.096196
    22  H    3.819199   4.699425   3.931750   4.155480   1.092892
    23  H    3.150648   4.172228   3.374176   3.022096   1.094952
    24  C    2.872089   3.086226   3.032280   3.843109   2.868282
    25  H    3.843826   4.113892   4.031218   4.726263   3.118109
    26  H    3.006594   3.320318   2.756290   4.022283   2.996584
    27  H    3.110392   2.925829   3.390308   4.122602   3.836968
    28  H    3.453452   3.031891   4.518095   3.538634   4.867880
    29  H    4.160982   3.843384   5.235172   4.183220   5.197553
                   21         22         23         24         25
    21  H    0.000000
    22  H    1.778791   0.000000
    23  H    1.782656   1.775423   0.000000
    24  C    3.052989   3.051150   3.843725   0.000000
    25  H    3.440911   2.903206   4.119025   1.094965   0.000000
    26  H    2.773728   3.252655   4.028356   1.096286   1.785857
    27  H    4.037961   4.087982   4.725671   1.094414   1.771557
    28  H    5.575919   5.388911   4.983596   4.183168   4.693667
    29  H    6.015849   5.597066   5.249859   4.647688   4.994102
                   26         27         28         29
    26  H    0.000000
    27  H    1.786661   0.000000
    28  H    5.060074   3.838499   0.000000
    29  H    5.602878   4.352488   0.852300   0.000000
 Stoichiometry    C6H20P2Pt
 Framework group  C1[X(C6H20P2Pt)]
 Deg. of freedom    81
 Full point group                 C1      NOp   1
 Largest Abelian subgroup         C1      NOp   1
 Largest concise Abelian subgroup C1      NOp   1
                         Standard orientation:                         
 ---------------------------------------------------------------------
 Center     Atomic      Atomic             Coordinates (Angstroms)
 Number     Number       Type             X           Y           Z
 ---------------------------------------------------------------------
      1         78           0       -0.056874   -0.472889   -0.008448
      2         15           0        2.166224    0.302231   -0.004659
      3         15           0       -2.065607    0.336328   -0.006282
      4          6           0        3.207128   -0.261696   -1.414462
      5          1           0        2.754240    0.067285   -2.355488
      6          1           0        4.227503    0.133546   -1.347830
      7          1           0        3.238691   -1.355146   -1.418610
      8          6           0        2.457377    2.124435   -0.032308
      9          1           0        1.954464    2.591502    0.820711
     10          1           0        3.527743    2.355252    0.020910
     11          1           0        2.051143    2.550250   -0.954422
     12          6           0        3.156620   -0.207736    1.461329
     13          1           0        3.178777   -1.300080    1.514426
     14          1           0        4.181846    0.177178    1.410647
     15          1           0        2.676823    0.165390    2.372117
     16          6           0       -3.334583   -0.764924   -0.756954
     17          1           0       -3.340005   -1.719347   -0.222663
     18          1           0       -4.334768   -0.317580   -0.720063
     19          1           0       -3.065770   -0.964327   -1.799372
     20          6           0       -2.422735    1.934103   -0.858507
     21          1           0       -3.498677    2.143678   -0.867014
     22          1           0       -1.909868    2.755324   -0.351579
     23          1           0       -2.062909    1.885033   -1.891482
     24          6           0       -2.745566    0.637253    1.679406
     25          1           0       -2.129240    1.380387    2.195975
     26          1           0       -3.781817    0.992977    1.640831
     27          1           0       -2.704256   -0.294306    2.252323
     28          1           0       -0.396588   -2.403040    0.024772
     29          1           0        0.450126   -2.305668    0.027812
 ---------------------------------------------------------------------
 Rotational constants (GHZ):           1.4100799           0.4184538           0.3937232
 Leave Link  202 at Fri Nov  1 05:32:44 2019, MaxMem=   140000000 cpu:               0.7 elap:               0.1
 (Enter /usr/g16/l301.exe)
 General basis read from cards:  (5D, 7F)
 Centers:       1
 SDD
 ****
 Centers:       2      3      4      8     12     16     20     24      5      6
 Centers:       7      9     10     11     13     14     15     17     18     19
 Centers:      21     22     23     25     26     27     28     29
 6-31g*
 ****
 ======================================================================================================
                                       Pseudopotential Parameters
 ======================================================================================================
  Center     Atomic      Valence      Angular      Power
  Number     Number     Electrons     Momentum     of R      Exponent        Coefficient   SO-Coeffient
 ======================================================================================================
    1         78           18
                                      H and up 
                                                     2        1.0000000        0.00000000    0.00000000
                                      S - H
                                                     2       13.4286510      579.22386100    0.00000000
                                                     2        6.7143260       29.66949100    0.00000000
                                      P - H
                                                     2       10.3659440      280.86077400    0.00000000
                                                     2        5.1829720       26.74538200    0.00000000
                                      D - H
                                                     2        7.6004790      120.39644400    0.00000000
                                                     2        3.8002400       15.81092100    0.00000000
                                      F - H
                                                     2        3.3095690       24.31437600    0.00000000
                                      G - H
                                                     2        5.2772890      -24.21867500    0.00000000
    2         15
                                   No pseudopotential on this center.
    3         15
                                   No pseudopotential on this center.
    4          6
                                   No pseudopotential on this center.
    5          1
                                   No pseudopotential on this center.
    6          1
                                   No pseudopotential on this center.
    7          1
                                   No pseudopotential on this center.
    8          6
                                   No pseudopotential on this center.
    9          1
                                   No pseudopotential on this center.
   10          1
                                   No pseudopotential on this center.
   11          1
                                   No pseudopotential on this center.
   12          6
                                   No pseudopotential on this center.
   13          1
                                   No pseudopotential on this center.
   14          1
                                   No pseudopotential on this center.
   15          1
                                   No pseudopotential on this center.
   16          6
                                   No pseudopotential on this center.
   17          1
                                   No pseudopotential on this center.
   18          1
                                   No pseudopotential on this center.
   19          1
                                   No pseudopotential on this center.
   20          6
                                   No pseudopotential on this center.
   21          1
                                   No pseudopotential on this center.
   22          1
                                   No pseudopotential on this center.
   23          1
                                   No pseudopotential on this center.
   24          6
                                   No pseudopotential on this center.
   25          1
                                   No pseudopotential on this center.
   26          1
                                   No pseudopotential on this center.
   27          1
                                   No pseudopotential on this center.
   28          1
                                   No pseudopotential on this center.
   29          1
                                   No pseudopotential on this center.
 ======================================================================================================
 Ernie: Thresh=  0.10000D-02 Tol=  0.10000D-05 Strict=F.
 There are   207 symmetry adapted cartesian basis functions of A   symmetry.
 There are   196 symmetry adapted basis functions of A   symmetry.
   196 basis functions,   417 primitive gaussians,   207 cartesian basis functions
    52 alpha electrons       52 beta electrons
       nuclear repulsion energy       825.4911001189 Hartrees.
 IExCor= 4336 DFT=T Ex+Corr=M062X ExCW=0 ScaHFX=  0.540000
 ScaDFX=  1.000000  1.000000  1.000000  1.000000 ScalE2=  1.000000  1.000000
 IRadAn=      5 IRanWt=     -1 IRanGd=            0 ICorTp=0 IEmpDi=  4
 NAtoms=   29 NActive=   29 NUniq=   29 SFac= 1.00D+00 NAtFMM=   60 NAOKFM=F Big=F
 Integral buffers will be    131072 words long.
 Raffenetti 2 integral format.
 Two-electron integral symmetry is turned on.
 Force inversion solution in PCM.
 ------------------------------------------------------------------------------
 Polarizable Continuum Model (PCM)
 =================================
 Model                : PCM.
 Atomic radii         : SMD-Coulomb.
 Polarization charges : Total charges.
 Charge compensation  : None.
 Solution method      : Matrix inversion.
 Cavity type          : VdW (van der Waals Surface) (Alpha=1.000).
 Cavity algorithm     : GePol (No added spheres)
                        Default sphere list used, NSphG=   29.
                        Lebedev-Laikov grids with approx.  5.0 points / Ang**2.
                        Smoothing algorithm: York/Karplus (Gamma=1.0000).
                        Polarization charges: spherical gaussians, with
                                              point-specific exponents (IZeta= 3).
                        Self-potential: point-specific (ISelfS= 7).
                        Self-field    : sphere-specific E.n sum rule (ISelfD= 2).
 1st derivatives      : Analytical E(r).r(x)/FMM algorithm (CHGder, D1EAlg=3).
                        Cavity 1st derivative terms included.
 2nd derivatives      : Analytical E(r).r(xy)/FMM algorithm (CHGder, D2EAlg=3).
                        Cavity 2nd derivative terms included.
 Solvent              : Benzene, Eps=   2.270600 Eps(inf)=   2.253301
 ------------------------------------------------------------------------------
 GePol: Number of generator spheres                  =      29
 GePol: Total number of spheres                      =      29
 GePol: Number of exposed spheres                    =      29 (100.00%)
 GePol: Number of points                             =    2164
 GePol: Average weight of points                     =       0.12
 GePol: Minimum weight of points                     =   0.13D-10
 GePol: Maximum weight of points                     =    0.22001
 GePol: Number of points with low weight             =     126
 GePol: Fraction of low-weight points (<1% of avg)   =       5.82%
 GePol: Cavity surface area                          =    254.002 Ang**2
 GePol: Cavity volume                                =    208.014 Ang**3
 ------------------------------------------------------------------------------
 Atomic radii for non-electrostatic terms: SMD-CDS.
 ------------------------------------------------------------------------------
 PCM non-electrostatic energy =         0.0003488640 Hartrees.
 Nuclear repulsion after PCM non-electrostatic terms =      825.4914489829 Hartrees.
 Leave Link  301 at Fri Nov  1 05:32:44 2019, MaxMem=   140000000 cpu:               3.7 elap:               0.2
 (Enter /usr/g16/l302.exe)
 NPDir=0 NMtPBC=     1 NCelOv=     1 NCel=       1 NClECP=     1 NCelD=      1
         NCelK=      1 NCelE2=     1 NClLst=     1 CellRange=     0.0.
 One-electron integrals computed using PRISM.
 One-electron integral symmetry used in STVInt
   1 Symmetry operations used in ECPInt.
 ECPInt:  NShTT=    3916 NPrTT=   20546 LenC2=    3743 LenP2D=   13150.
 LDataN:  DoStor=T MaxTD1= 7 Len=  274
 Number of processors reduced to  20 by ecpmxn.
 NBasis=   196 RedAO= T EigKep=  1.95D-03  NBF=   196
 NBsUse=   196 1.00D-06 EigRej= -1.00D+00 NBFU=   196
 Precomputing XC quadrature grid using
 IXCGrd= 4 IRadAn=           5 IRanWt=          -1 IRanGd=           0 AccXCQ= 0.00D+00.
 Defaulting to unpruned grid for atomic number  78.
 Generated NRdTot=       0 NPtTot=           0 NUsed=           0 NTot=          32
 NSgBfM=   206   206   206   206   206 MxSgAt=    29 MxSgA2=    29.
 Leave Link  302 at Fri Nov  1 05:32:45 2019, MaxMem=   140000000 cpu:              14.9 elap:               0.7
 (Enter /usr/g16/l303.exe)
 DipDrv:  MaxL=1.
 Leave Link  303 at Fri Nov  1 05:32:45 2019, MaxMem=   140000000 cpu:               2.1 elap:               0.1
 (Enter /usr/g16/l401.exe)
 ExpMin= 1.50D-02 ExpMax= 1.94D+04 ExpMxC= 2.91D+03 IAcc=3 IRadAn=         5 AccDes= 0.00D+00
 Harris functional with IExCor= 1009 and IRadAn=       5 diagonalized for initial guess.
 HarFok:  IExCor= 1009 AccDes= 0.00D+00 IRadAn=         5 IDoV= 1 UseB2=F ITyADJ=14
 ICtDFT=  3500011 ScaDFX=  1.000000  1.000000  1.000000  1.000000
 Defaulting to unpruned grid for atomic number  78.
 FoFCou: FMM=F IPFlag=           0 FMFlag=      100000 FMFlg1=           0
         NFxFlg=           0 DoJE=T BraDBF=F KetDBF=T FulRan=T
         wScrn=  0.000000 ICntrl=       500 IOpCl=  0 I1Cent=   200000004 NGrid=           0
         NMat0=    1 NMatS0=      1 NMatT0=    0 NMatD0=    1 NMtDS0=    0 NMtDT0=    0
 Petite list used in FoFCou.
 Harris En= -1042.22768577506    
 JPrj=0 DoOrth=F DoCkMO=F.
 Leave Link  401 at Fri Nov  1 05:32:47 2019, MaxMem=   140000000 cpu:              34.2 elap:               1.4
 (Enter /usr/g16/l502.exe)
 Integral symmetry usage will be decided dynamically.
 Closed shell SCF:
 Using DIIS extrapolation, IDIIS=  1040.
 NGot=   140000000 LenX=   139906737 LenY=   139863447
 Requested convergence on RMS density matrix=1.00D-08 within 128 cycles.
 Requested convergence on MAX density matrix=1.00D-06.
 Requested convergence on             energy=1.00D-06.
 No special actions if energy rises.
 Fock matrices will be formed incrementally for  20 cycles.

 Cycle   1  Pass 1  IDiag  1:
 FoFJK:  IHMeth= 1 ICntrl=       0 DoSepK=F KAlg= 0 I1Cent=           0 FoldK=F
 IRaf= 910000000 NMat=       1 IRICut=       1 DoRegI=T DoRafI=F ISym2E= 0 IDoP0=0 IntGTp=1.
 FoFCou: FMM=F IPFlag=           0 FMFlag=      100000 FMFlg1=           0
         NFxFlg=           0 DoJE=F BraDBF=F KetDBF=F FulRan=T
         wScrn=  0.000000 ICntrl=         0 IOpCl=  0 I1Cent=           0 NGrid=           0
         NMat0=    1 NMatS0=      1 NMatT0=    0 NMatD0=    1 NMtDS0=    0 NMtDT0=    0
 Symmetry not used in FoFCou.
 Defaulting to unpruned grid for atomic number  78.
 Defaulting to unpruned grid for atomic number  78.
 Defaulting to unpruned grid for atomic number  78.
 Defaulting to unpruned grid for atomic number  78.
 Defaulting to unpruned grid for atomic number  78.
 Defaulting to unpruned grid for atomic number  78.
 Defaulting to unpruned grid for atomic number  78.
 Defaulting to unpruned grid for atomic number  78.
 Defaulting to unpruned grid for atomic number  78.
 Defaulting to unpruned grid for atomic number  78.
 Defaulting to unpruned grid for atomic number  78.
 Defaulting to unpruned grid for atomic number  78.
 Defaulting to unpruned grid for atomic number  78.
 Defaulting to unpruned grid for atomic number  78.
 Defaulting to unpruned grid for atomic number  78.
 Defaulting to unpruned grid for atomic number  78.
 Defaulting to unpruned grid for atomic number  78.
 Defaulting to unpruned grid for atomic number  78.
 Defaulting to unpruned grid for atomic number  78.
 Defaulting to unpruned grid for atomic number  78.
 Defaulting to unpruned grid for atomic number  78.
 Defaulting to unpruned grid for atomic number  78.
 Defaulting to unpruned grid for atomic number  78.
 Defaulting to unpruned grid for atomic number  78.
 Inv3:  Mode=1 IEnd=    14048688.
 Iteration    1 A*A^-1 deviation from unit magnitude is 8.66D-15 for    179.
 Iteration    1 A*A^-1 deviation from orthogonality  is 5.05D-15 for   1121    164.
 Iteration    1 A^-1*A deviation from unit magnitude is 8.66D-15 for    179.
 Iteration    1 A^-1*A deviation from orthogonality  is 2.84D-15 for   1764   1680.
 E= -1041.74209061756    
 DIIS: error= 6.12D-02 at cycle   1 NSaved=   1.
 NSaved= 1 IEnMin= 1 EnMin= -1041.74209061756     IErMin= 1 ErrMin= 6.12D-02
 ErrMax= 6.12D-02  0.00D+00 EMaxC= 1.00D-01 BMatC= 7.22D-01 BMatP= 7.22D-01
 IDIUse=3 WtCom= 3.88D-01 WtEn= 6.12D-01
 Coeff-Com:  0.100D+01
 Coeff-En:   0.100D+01
 Coeff:      0.100D+01
 Gap=     0.447 Goal=   None    Shift=    0.000
 GapD=    0.447 DampG=2.000 DampE=0.250 DampFc=0.5000 IDamp=-1.
 Damping current iteration by 5.00D-01
 RMSDP=8.68D-03 MaxDP=2.99D-01              OVMax= 2.27D-01

 Cycle   2  Pass 1  IDiag  1:
 RMSU=  4.33D-03    CP:  9.87D-01
 E= -1042.05296458484     Delta-E=       -0.310873967278 Rises=F Damp=T
 DIIS: error= 1.02D-02 at cycle   2 NSaved=   2.
 NSaved= 2 IEnMin= 2 EnMin= -1042.05296458484     IErMin= 2 ErrMin= 1.02D-02
 ErrMax= 1.02D-02  0.00D+00 EMaxC= 1.00D-01 BMatC= 3.46D-02 BMatP= 7.22D-01
 IDIUse=3 WtCom= 8.98D-01 WtEn= 1.02D-01
 Coeff-Com:  0.768D-01 0.923D+00
 Coeff-En:   0.114D+00 0.886D+00
 Coeff:      0.806D-01 0.919D+00
 Gap=     0.331 Goal=   None    Shift=    0.000
 RMSDP=2.80D-03 MaxDP=2.20D-01 DE=-3.11D-01 OVMax= 1.97D-01

 Cycle   3  Pass 1  IDiag  1:
 RMSU=  2.54D-03    CP:  9.81D-01  7.30D-01
 E= -1042.39577616465     Delta-E=       -0.342811579808 Rises=F Damp=F
 DIIS: error= 1.37D-02 at cycle   3 NSaved=   3.
 NSaved= 3 IEnMin= 3 EnMin= -1042.39577616465     IErMin= 2 ErrMin= 1.02D-02
 ErrMax= 1.37D-02  0.00D+00 EMaxC= 1.00D-01 BMatC= 2.59D-02 BMatP= 3.46D-02
 IDIUse=3 WtCom= 8.63D-01 WtEn= 1.37D-01
 Coeff-Com:  0.284D-02 0.459D+00 0.539D+00
 Coeff-En:   0.000D+00 0.000D+00 0.100D+01
 Coeff:      0.245D-02 0.396D+00 0.602D+00
 Gap=     0.248 Goal=   None    Shift=    0.000
 RMSDP=1.20D-03 MaxDP=5.07D-02 DE=-3.43D-01 OVMax= 4.69D-02

 Cycle   4  Pass 1  IDiag  1:
 RMSU=  7.95D-04    CP:  9.82D-01  8.76D-01  7.49D-01
 E= -1042.41458756024     Delta-E=       -0.018811395591 Rises=F Damp=F
 DIIS: error= 5.60D-03 at cycle   4 NSaved=   4.
 NSaved= 4 IEnMin= 4 EnMin= -1042.41458756024     IErMin= 4 ErrMin= 5.60D-03
 ErrMax= 5.60D-03  0.00D+00 EMaxC= 1.00D-01 BMatC= 5.34D-03 BMatP= 2.59D-02
 IDIUse=3 WtCom= 9.44D-01 WtEn= 5.60D-02
 Coeff-Com:  0.938D-02-0.209D-01 0.290D+00 0.722D+00
 Coeff-En:   0.000D+00 0.000D+00 0.158D+00 0.842D+00
 Coeff:      0.885D-02-0.197D-01 0.283D+00 0.728D+00
 Gap=     0.237 Goal=   None    Shift=    0.000
 RMSDP=4.40D-04 MaxDP=2.67D-02 DE=-1.88D-02 OVMax= 1.36D-02

 Cycle   5  Pass 1  IDiag  1:
 RMSU=  2.08D-04    CP:  9.80D-01  8.27D-01  8.71D-01  8.97D-01
 E= -1042.41899373535     Delta-E=       -0.004406175114 Rises=F Damp=F
 DIIS: error= 3.53D-04 at cycle   5 NSaved=   5.
 NSaved= 5 IEnMin= 5 EnMin= -1042.41899373535     IErMin= 5 ErrMin= 3.53D-04
 ErrMax= 3.53D-04  0.00D+00 EMaxC= 1.00D-01 BMatC= 2.95D-05 BMatP= 5.34D-03
 IDIUse=3 WtCom= 9.96D-01 WtEn= 3.53D-03
 Coeff-Com:  0.271D-02-0.209D-01 0.328D-01 0.138D+00 0.847D+00
 Coeff-En:   0.000D+00 0.000D+00 0.000D+00 0.000D+00 0.100D+01
 Coeff:      0.270D-02-0.209D-01 0.326D-01 0.138D+00 0.848D+00
 Gap=     0.236 Goal=   None    Shift=    0.000
 RMSDP=8.48D-05 MaxDP=4.60D-03 DE=-4.41D-03 OVMax= 2.45D-03

 Cycle   6  Pass 1  IDiag  1:
 RMSU=  5.86D-05    CP:  9.80D-01  8.23D-01  8.89D-01  9.45D-01  9.84D-01
 E= -1042.41905008210     Delta-E=       -0.000056346750 Rises=F Damp=F
 DIIS: error= 1.02D-04 at cycle   6 NSaved=   6.
 NSaved= 6 IEnMin= 6 EnMin= -1042.41905008210     IErMin= 6 ErrMin= 1.02D-04
 ErrMax= 1.02D-04  0.00D+00 EMaxC= 1.00D-01 BMatC= 1.89D-06 BMatP= 2.95D-05
 IDIUse=3 WtCom= 9.99D-01 WtEn= 1.02D-03
 Coeff-Com: -0.383D-03 0.119D-02-0.184D-01-0.529D-01-0.254D-02 0.107D+01
 Coeff-En:   0.000D+00 0.000D+00 0.000D+00 0.000D+00 0.000D+00 0.100D+01
 Coeff:     -0.383D-03 0.119D-02-0.184D-01-0.528D-01-0.254D-02 0.107D+01
 Gap=     0.236 Goal=   None    Shift=    0.000
 RMSDP=3.50D-05 MaxDP=1.99D-03 DE=-5.63D-05 OVMax= 1.35D-03

 Cycle   7  Pass 1  IDiag  1:
 RMSU=  1.07D-05    CP:  9.80D-01  8.22D-01  8.95D-01  9.66D-01  1.08D+00
                    CP:  1.24D+00
 E= -1042.41905592981     Delta-E=       -0.000005847703 Rises=F Damp=F
 DIIS: error= 4.13D-05 at cycle   7 NSaved=   7.
 NSaved= 7 IEnMin= 7 EnMin= -1042.41905592981     IErMin= 7 ErrMin= 4.13D-05
 ErrMax= 4.13D-05  0.00D+00 EMaxC= 1.00D-01 BMatC= 1.52D-07 BMatP= 1.89D-06
 IDIUse=1 WtCom= 1.00D+00 WtEn= 0.00D+00
 Coeff-Com: -0.570D-04 0.744D-03-0.200D-02-0.992D-02-0.280D-01 0.329D-01
 Coeff-Com:  0.101D+01
 Coeff:     -0.570D-04 0.744D-03-0.200D-02-0.992D-02-0.280D-01 0.329D-01
 Coeff:      0.101D+01
 Gap=     0.236 Goal=   None    Shift=    0.000
 RMSDP=8.39D-06 MaxDP=3.97D-04 DE=-5.85D-06 OVMax= 5.20D-04

 Cycle   8  Pass 1  IDiag  1:
 RMSU=  4.03D-06    CP:  9.80D-01  8.22D-01  8.96D-01  9.68D-01  1.09D+00
                    CP:  1.31D+00  1.25D+00
 E= -1042.41905636454     Delta-E=       -0.000000434738 Rises=F Damp=F
 DIIS: error= 1.45D-05 at cycle   8 NSaved=   8.
 NSaved= 8 IEnMin= 8 EnMin= -1042.41905636454     IErMin= 8 ErrMin= 1.45D-05
 ErrMax= 1.45D-05  0.00D+00 EMaxC= 1.00D-01 BMatC= 3.58D-08 BMatP= 1.52D-07
 IDIUse=1 WtCom= 1.00D+00 WtEn= 0.00D+00
 Coeff-Com:  0.421D-04 0.765D-04 0.172D-02 0.310D-02-0.884D-02-0.130D+00
 Coeff-Com:  0.378D+00 0.756D+00
 Coeff:      0.421D-04 0.765D-04 0.172D-02 0.310D-02-0.884D-02-0.130D+00
 Coeff:      0.378D+00 0.756D+00
 Gap=     0.236 Goal=   None    Shift=    0.000
 RMSDP=2.74D-06 MaxDP=1.35D-04 DE=-4.35D-07 OVMax= 1.94D-04

 Cycle   9  Pass 1  IDiag  1:
 RMSU=  1.26D-06    CP:  9.80D-01  8.22D-01  8.97D-01  9.69D-01  1.10D+00
                    CP:  1.33D+00  1.42D+00  9.21D-01
 E= -1042.41905644463     Delta-E=       -0.000000080091 Rises=F Damp=F
 DIIS: error= 6.98D-06 at cycle   9 NSaved=   9.
 NSaved= 9 IEnMin= 9 EnMin= -1042.41905644463     IErMin= 9 ErrMin= 6.98D-06
 ErrMax= 6.98D-06  0.00D+00 EMaxC= 1.00D-01 BMatC= 2.25D-09 BMatP= 3.58D-08
 IDIUse=1 WtCom= 1.00D+00 WtEn= 0.00D+00
 Coeff-Com:  0.101D-04-0.765D-04 0.479D-03 0.182D-02 0.232D-02-0.199D-01
 Coeff-Com: -0.803D-01 0.855D-01 0.101D+01
 Coeff:      0.101D-04-0.765D-04 0.479D-03 0.182D-02 0.232D-02-0.199D-01
 Coeff:     -0.803D-01 0.855D-01 0.101D+01
 Gap=     0.236 Goal=   None    Shift=    0.000
 RMSDP=9.47D-07 MaxDP=6.70D-05 DE=-8.01D-08 OVMax= 9.97D-05

 Cycle  10  Pass 1  IDiag  1:
 RMSU=  4.64D-07    CP:  9.80D-01  8.22D-01  8.97D-01  9.69D-01  1.10D+00
                    CP:  1.34D+00  1.47D+00  1.04D+00  1.20D+00
 E= -1042.41905645396     Delta-E=       -0.000000009323 Rises=F Damp=F
 DIIS: error= 2.24D-06 at cycle  10 NSaved=  10.
 NSaved=10 IEnMin=10 EnMin= -1042.41905645396     IErMin=10 ErrMin= 2.24D-06
 ErrMax= 2.24D-06  0.00D+00 EMaxC= 1.00D-01 BMatC= 3.43D-10 BMatP= 2.25D-09
 IDIUse=1 WtCom= 1.00D+00 WtEn= 0.00D+00
 Coeff-Com: -0.592D-05-0.799D-05-0.803D-04 0.103D-03 0.105D-02 0.808D-02
 Coeff-Com: -0.496D-01-0.579D-01 0.195D+00 0.903D+00
 Coeff:     -0.592D-05-0.799D-05-0.803D-04 0.103D-03 0.105D-02 0.808D-02
 Coeff:     -0.496D-01-0.579D-01 0.195D+00 0.903D+00
 Gap=     0.236 Goal=   None    Shift=    0.000
 RMSDP=2.72D-07 MaxDP=2.06D-05 DE=-9.32D-09 OVMax= 3.15D-05

 Cycle  11  Pass 1  IDiag  1:
 RMSU=  1.52D-07    CP:  9.80D-01  8.22D-01  8.97D-01  9.69D-01  1.10D+00
                    CP:  1.34D+00  1.47D+00  1.07D+00  1.32D+00  1.21D+00
 E= -1042.41905645492     Delta-E=       -0.000000000957 Rises=F Damp=F
 DIIS: error= 5.83D-07 at cycle  11 NSaved=  11.
 NSaved=11 IEnMin=11 EnMin= -1042.41905645492     IErMin=11 ErrMin= 5.83D-07
 ErrMax= 5.83D-07  0.00D+00 EMaxC= 1.00D-01 BMatC= 4.78D-11 BMatP= 3.43D-10
 IDIUse=1 WtCom= 1.00D+00 WtEn= 0.00D+00
 Coeff-Com: -0.399D-05 0.831D-05-0.957D-04-0.222D-03-0.923D-05 0.521D-02
 Coeff-Com: -0.345D-02-0.296D-01-0.789D-01 0.267D+00 0.840D+00
 Coeff:     -0.399D-05 0.831D-05-0.957D-04-0.222D-03-0.923D-05 0.521D-02
 Coeff:     -0.345D-02-0.296D-01-0.789D-01 0.267D+00 0.840D+00
 Gap=     0.236 Goal=   None    Shift=    0.000
 RMSDP=1.14D-07 MaxDP=6.17D-06 DE=-9.57D-10 OVMax= 9.72D-06

 Cycle  12  Pass 1  IDiag  1:
 RMSU=  5.33D-08    CP:  9.80D-01  8.22D-01  8.97D-01  9.69D-01  1.10D+00
                    CP:  1.34D+00  1.48D+00  1.07D+00  1.36D+00  1.38D+00
                    CP:  1.15D+00
 E= -1042.41905645505     Delta-E=       -0.000000000136 Rises=F Damp=F
 DIIS: error= 1.80D-07 at cycle  12 NSaved=  12.
 NSaved=12 IEnMin=12 EnMin= -1042.41905645505     IErMin=12 ErrMin= 1.80D-07
 ErrMax= 1.80D-07  0.00D+00 EMaxC= 1.00D-01 BMatC= 4.91D-12 BMatP= 4.78D-11
 IDIUse=1 WtCom= 1.00D+00 WtEn= 0.00D+00
 Coeff-Com:  0.957D-07 0.315D-05-0.129D-04-0.795D-04-0.145D-03 0.901D-04
 Coeff-Com:  0.610D-02 0.156D-02-0.440D-01-0.695D-01 0.163D+00 0.943D+00
 Coeff:      0.957D-07 0.315D-05-0.129D-04-0.795D-04-0.145D-03 0.901D-04
 Coeff:      0.610D-02 0.156D-02-0.440D-01-0.695D-01 0.163D+00 0.943D+00
 Gap=     0.236 Goal=   None    Shift=    0.000
 RMSDP=4.75D-08 MaxDP=1.95D-06 DE=-1.36D-10 OVMax= 3.19D-06

 Cycle  13  Pass 1  IDiag  1:
 RMSU=  1.63D-08    CP:  9.80D-01  8.22D-01  8.97D-01  9.69D-01  1.10D+00
                    CP:  1.34D+00  1.47D+00  1.07D+00  1.36D+00  1.45D+00
                    CP:  1.32D+00  1.22D+00
 E= -1042.41905645509     Delta-E=       -0.000000000035 Rises=F Damp=F
 DIIS: error= 6.37D-08 at cycle  13 NSaved=  13.
 NSaved=13 IEnMin=13 EnMin= -1042.41905645509     IErMin=13 ErrMin= 6.37D-08
 ErrMax= 6.37D-08  0.00D+00 EMaxC= 1.00D-01 BMatC= 3.98D-13 BMatP= 4.91D-12
 IDIUse=1 WtCom= 1.00D+00 WtEn= 0.00D+00
 Coeff-Com:  0.465D-06-0.819D-07 0.655D-05 0.460D-05-0.259D-04-0.473D-03
 Coeff-Com:  0.138D-02 0.323D-02 0.323D-03-0.381D-01-0.547D-01 0.167D+00
 Coeff-Com:  0.921D+00
 Coeff:      0.465D-06-0.819D-07 0.655D-05 0.460D-05-0.259D-04-0.473D-03
 Coeff:      0.138D-02 0.323D-02 0.323D-03-0.381D-01-0.547D-01 0.167D+00
 Coeff:      0.921D+00
 Gap=     0.236 Goal=   None    Shift=    0.000
 RMSDP=1.42D-08 MaxDP=6.46D-07 DE=-3.48D-11 OVMax= 8.71D-07

 Cycle  14  Pass 1  IDiag  1:
 RMSU=  6.16D-09    CP:  9.80D-01  8.22D-01  8.97D-01  9.69D-01  1.10D+00
                    CP:  1.34D+00  1.47D+00  1.07D+00  1.36D+00  1.46D+00
                    CP:  1.37D+00  1.34D+00  1.12D+00
 E= -1042.41905645507     Delta-E=        0.000000000014 Rises=F Damp=F
 DIIS: error= 1.37D-08 at cycle  14 NSaved=  14.
 NSaved=14 IEnMin=13 EnMin= -1042.41905645509     IErMin=14 ErrMin= 1.37D-08
 ErrMax= 1.37D-08  0.00D+00 EMaxC= 1.00D-01 BMatC= 5.60D-14 BMatP= 3.98D-13
 IDIUse=1 WtCom= 1.00D+00 WtEn= 0.00D+00
 Coeff-Com:  0.932D-07-0.402D-06 0.293D-05 0.951D-05 0.615D-05-0.135D-03
 Coeff-Com: -0.127D-03 0.752D-03 0.370D-02-0.386D-02-0.282D-01-0.429D-01
 Coeff-Com:  0.234D+00 0.837D+00
 Coeff:      0.932D-07-0.402D-06 0.293D-05 0.951D-05 0.615D-05-0.135D-03
 Coeff:     -0.127D-03 0.752D-03 0.370D-02-0.386D-02-0.282D-01-0.429D-01
 Coeff:      0.234D+00 0.837D+00
 Gap=     0.236 Goal=   None    Shift=    0.000
 RMSDP=3.95D-09 MaxDP=2.04D-07 DE= 1.36D-11 OVMax= 2.40D-07

 Error on total polarization charges =  0.04047
 SCF Done:  E(RM062X) =  -1042.41905646     A.U. after   14 cycles
            NFock= 14  Conv=0.39D-08     -V/T= 2.0849
 KE= 9.608364219708D+02 PE=-4.080140932041D+03 EE= 1.251394004632D+03
 SMD-CDS (non-electrostatic) energy       (kcal/mol) =       0.22
 (included in total energy above)
 Leave Link  502 at Fri Nov  1 05:34:15 2019, MaxMem=   140000000 cpu:            2069.1 elap:              88.2
 (Enter /usr/g16/l801.exe)
 DoSCS=F DFT=T ScalE2(SS,OS)=  1.000000  1.000000
 Range of M.O.s used for correlation:     1   196
 NBasis=   196 NAE=    52 NBE=    52 NFC=     0 NFV=     0
 NROrb=    196 NOA=    52 NOB=    52 NVA=   144 NVB=   144
 Leave Link  801 at Fri Nov  1 05:34:15 2019, MaxMem=   140000000 cpu:               2.6 elap:               0.1
 (Enter /usr/g16/l1101.exe)
 Using compressed storage, NAtomX=    29.
 Will process     30 centers per pass.
   1 Symmetry operations used in ECPInt.
 ECPInt:  NShTT=    3916 NPrTT=   20546 LenC2=    3743 LenP2D=   13150.
 LDataN:  DoStor=T MaxTD1= 8 Len=  415
 Number of processors reduced to   7 by ecpmxn.
 Leave Link 1101 at Fri Nov  1 05:34:16 2019, MaxMem=   140000000 cpu:              19.9 elap:               1.3
 (Enter /usr/g16/l1102.exe)
 Symmetrizing basis deriv contribution to polar:
 IMax=3 JMax=2 DiffMx= 0.00D+00
 Leave Link 1102 at Fri Nov  1 05:34:16 2019, MaxMem=   140000000 cpu:               1.7 elap:               0.1
 (Enter /usr/g16/l1110.exe)
 Forming Gx(P) for the SCF density, NAtomX=    29.
 Integral derivatives from FoFJK, PRISM(SPDF).
 Do as many integral derivatives as possible in FoFJK.
 G2DrvN: MDV=     139997776.
 G2DrvN: will do    30 centers at a time, making    1 passes.
 Calling FoFCou, ICntrl=  3107 FMM=F I1Cent=   0 AccDes= 0.00D+00.
 FoFJK:  IHMeth= 1 ICntrl=    3107 DoSepK=F KAlg= 0 I1Cent=           0 FoldK=F
 IRaf=         0 NMat=       1 IRICut=       1 DoRegI=T DoRafI=F ISym2E= 0 IDoP0=0 IntGTp=1.
 FoFCou: FMM=F IPFlag=           0 FMFlag=      100000 FMFlg1=           0
         NFxFlg=           0 DoJE=F BraDBF=F KetDBF=F FulRan=T
         wScrn=  0.000000 ICntrl=      3107 IOpCl=  0 I1Cent=           0 NGrid=           0
         NMat0=    1 NMatS0=      1 NMatT0=    0 NMatD0=    1 NMtDS0=    0 NMtDT0=    0
 Symmetry not used in FoFCou.
 Defaulting to unpruned grid for atomic number  78.
 Defaulting to unpruned grid for atomic number  78.
 Defaulting to unpruned grid for atomic number  78.
 Defaulting to unpruned grid for atomic number  78.
 Defaulting to unpruned grid for atomic number  78.
 Defaulting to unpruned grid for atomic number  78.
 Defaulting to unpruned grid for atomic number  78.
 Defaulting to unpruned grid for atomic number  78.
 Defaulting to unpruned grid for atomic number  78.
 Defaulting to unpruned grid for atomic number  78.
 Defaulting to unpruned grid for atomic number  78.
 Defaulting to unpruned grid for atomic number  78.
 Defaulting to unpruned grid for atomic number  78.
 Defaulting to unpruned grid for atomic number  78.
 Defaulting to unpruned grid for atomic number  78.
 Defaulting to unpruned grid for atomic number  78.
 Defaulting to unpruned grid for atomic number  78.
 Defaulting to unpruned grid for atomic number  78.
 Defaulting to unpruned grid for atomic number  78.
 Defaulting to unpruned grid for atomic number  78.
 Defaulting to unpruned grid for atomic number  78.
 Defaulting to unpruned grid for atomic number  78.
 Defaulting to unpruned grid for atomic number  78.
 Defaulting to unpruned grid for atomic number  78.
 NEqPCM:  Using equilibrium solvation (IEInf=0, Eps=   2.2706, EpsInf=   2.2533)
 G2PCM: DoFxE=T DoFxN=T DoGrad=T DoDP/DQ/DG/TGxP=FFFF NFrqRd=   0 IEInf=0 SqF1=F DoCFld=F IF1Alg=4.
 GePol: Maximum number of non-zero 1st derivatives   =     245
 CoulSu:  requested number of processors reduced to:  17 ShMem   1 Linda.
 CoulSu:  requested number of processors reduced to:  20 ShMem   1 Linda.
 End of G2Drv F.D. properties file   721 does not exist.
 End of G2Drv F.D. properties file   722 does not exist.
 End of G2Drv F.D. properties file   788 does not exist.
 Leave Link 1110 at Fri Nov  1 05:37:04 2019, MaxMem=   140000000 cpu:            4012.1 elap:             167.9
 (Enter /usr/g16/l1002.exe)
 Minotr:  Closed shell wavefunction.
          IDoAtm=11111111111111111111111111111
 NEqPCM:  Using equilibrium solvation (IEInf=0, Eps=   2.2706, EpsInf=   2.2533)
          Direct CPHF calculation.
          Differentiating once with respect to nuclear coordinates.
          Requested convergence is 1.0D-08 RMS, and 1.0D-07 maximum.
          Secondary convergence is 1.0D-12 RMS, and 1.0D-12 maximum.
          NewPWx=T KeepS1=F KeepF1=F KeepIn=T MapXYZ=F SortEE=F KeepMc=T.
 Defaulting to unpruned grid for atomic number  78.
         8993 words used for storage of precomputed grid.
 Two-electron integrals replicated using symmetry.
          MDV=     140000000 using IRadAn=       1.
          Solving linear equations simultaneously, MaxMat=     384.
 FoF2E skips out because all densities are zero.
 CalDSu exits because no D1Ps are significant.
 FoFJK:  IHMeth= 1 ICntrl=       0 DoSepK=F KAlg= 0 I1Cent=           0 FoldK=F
 IRaf= 900000000 NMat=      48 IRICut=     120 DoRegI=T DoRafI=T ISym2E= 2 IDoP0=3 IntGTp=3.
 Defaulting to unpruned grid for atomic number  78.
 Defaulting to unpruned grid for atomic number  78.
 Defaulting to unpruned grid for atomic number  78.
 Defaulting to unpruned grid for atomic number  78.
 Defaulting to unpruned grid for atomic number  78.
 Defaulting to unpruned grid for atomic number  78.
 Defaulting to unpruned grid for atomic number  78.
 Defaulting to unpruned grid for atomic number  78.
 Defaulting to unpruned grid for atomic number  78.
 Defaulting to unpruned grid for atomic number  78.
 Defaulting to unpruned grid for atomic number  78.
 Defaulting to unpruned grid for atomic number  78.
 Defaulting to unpruned grid for atomic number  78.
 Defaulting to unpruned grid for atomic number  78.
 Defaulting to unpruned grid for atomic number  78.
 Defaulting to unpruned grid for atomic number  78.
 Defaulting to unpruned grid for atomic number  78.
 Defaulting to unpruned grid for atomic number  78.
 Defaulting to unpruned grid for atomic number  78.
 Defaulting to unpruned grid for atomic number  78.
 Defaulting to unpruned grid for atomic number  78.
 Defaulting to unpruned grid for atomic number  78.
 Defaulting to unpruned grid for atomic number  78.
 Defaulting to unpruned grid for atomic number  78.
          There are    90 degrees of freedom in the 1st order CPHF.  IDoFFX=6 NUNeed=     0.
     84 vectors produced by pass  0 Test12= 8.32D-15 1.11D-09 XBig12= 6.39D-02 6.79D-02.
 AX will form    48 AO Fock derivatives at one time.
     84 vectors produced by pass  1 Test12= 8.32D-15 1.11D-09 XBig12= 8.75D-03 2.13D-02.
     84 vectors produced by pass  2 Test12= 8.32D-15 1.11D-09 XBig12= 4.13D-04 7.43D-03.
     84 vectors produced by pass  3 Test12= 8.32D-15 1.11D-09 XBig12= 4.61D-06 4.57D-04.
     84 vectors produced by pass  4 Test12= 8.32D-15 1.11D-09 XBig12= 2.64D-08 3.76D-05.
     84 vectors produced by pass  5 Test12= 8.32D-15 1.11D-09 XBig12= 1.08D-10 1.01D-06.
     42 vectors produced by pass  6 Test12= 8.32D-15 1.11D-09 XBig12= 3.92D-13 6.80D-08.
      3 vectors produced by pass  7 Test12= 8.32D-15 1.11D-09 XBig12= 1.29D-15 4.70D-09.
 InvSVY:  IOpt=1 It=  1 EMax= 2.78D-16
 Solved reduced A of dimension   549 with    90 vectors.
 End of Minotr F.D. properties file   721 does not exist.
 End of Minotr F.D. properties file   722 does not exist.
 End of Minotr F.D. properties file   788 does not exist.
 Leave Link 1002 at Fri Nov  1 05:40:23 2019, MaxMem=   140000000 cpu:            4768.0 elap:             199.1
 (Enter /usr/g16/l601.exe)
 Copying SCF densities to generalized density rwf, IOpCl= 0 IROHF=0.

 **********************************************************************

            Population analysis using the SCF density.

 **********************************************************************

 Orbital symmetries:
       Occupied  (A) (A) (A) (A) (A) (A) (A) (A) (A) (A) (A) (A)
                 (A) (A) (A) (A) (A) (A) (A) (A) (A) (A) (A) (A)
                 (A) (A) (A) (A) (A) (A) (A) (A) (A) (A) (A) (A)
                 (A) (A) (A) (A) (A) (A) (A) (A) (A) (A) (A) (A)
                 (A) (A) (A) (A)
       Virtual   (A) (A) (A) (A) (A) (A) (A) (A) (A) (A) (A) (A)
                 (A) (A) (A) (A) (A) (A) (A) (A) (A) (A) (A) (A)
                 (A) (A) (A) (A) (A) (A) (A) (A) (A) (A) (A) (A)
                 (A) (A) (A) (A) (A) (A) (A) (A) (A) (A) (A) (A)
                 (A) (A) (A) (A) (A) (A) (A) (A) (A) (A) (A) (A)
                 (A) (A) (A) (A) (A) (A) (A) (A) (A) (A) (A) (A)
                 (A) (A) (A) (A) (A) (A) (A) (A) (A) (A) (A) (A)
                 (A) (A) (A) (A) (A) (A) (A) (A) (A) (A) (A) (A)
                 (A) (A) (A) (A) (A) (A) (A) (A) (A) (A) (A) (A)
                 (A) (A) (A) (A) (A) (A) (A) (A) (A) (A) (A) (A)
                 (A) (A) (A) (A) (A) (A) (A) (A) (A) (A) (A) (A)
                 (A) (A) (A) (A) (A) (A) (A) (A) (A) (A) (A) (A)
 The electronic state is 1-A.
 Alpha  occ. eigenvalues --  -78.04367 -78.04029 -10.52887 -10.52877 -10.52758
 Alpha  occ. eigenvalues --  -10.52346 -10.52246 -10.52052  -6.85873  -6.85507
 Alpha  occ. eigenvalues --   -4.97250  -4.97227  -4.97023  -4.96887  -4.96857
 Alpha  occ. eigenvalues --   -4.96705  -4.01332  -2.23651  -2.22079  -2.20923
 Alpha  occ. eigenvalues --   -0.85343  -0.84854  -0.77584  -0.77397  -0.77054
 Alpha  occ. eigenvalues --   -0.76924  -0.61816  -0.60534  -0.52579  -0.50193
 Alpha  occ. eigenvalues --   -0.49739  -0.48759  -0.48673  -0.48305  -0.48244
 Alpha  occ. eigenvalues --   -0.46144  -0.45793  -0.45702  -0.45388  -0.44412
 Alpha  occ. eigenvalues --   -0.43899  -0.40101  -0.38638  -0.38368  -0.38063
 Alpha  occ. eigenvalues --   -0.37650  -0.34820  -0.28671  -0.27547  -0.25807
 Alpha  occ. eigenvalues --   -0.23609  -0.22857
 Alpha virt. eigenvalues --    0.00749   0.01237   0.04858   0.05634   0.08851
 Alpha virt. eigenvalues --    0.10071   0.10639   0.11769   0.12271   0.12997
 Alpha virt. eigenvalues --    0.13750   0.14045   0.15829   0.16113   0.16790
 Alpha virt. eigenvalues --    0.17074   0.17873   0.19185   0.20530   0.20648
 Alpha virt. eigenvalues --    0.21314   0.22222   0.23128   0.23632   0.24059
 Alpha virt. eigenvalues --    0.24617   0.25091   0.25645   0.25833   0.26120
 Alpha virt. eigenvalues --    0.27329   0.27459   0.28854   0.30200   0.30645
 Alpha virt. eigenvalues --    0.32984   0.34350   0.36757   0.38711   0.45479
 Alpha virt. eigenvalues --    0.46917   0.47828   0.48894   0.49863   0.51294
 Alpha virt. eigenvalues --    0.53635   0.54149   0.56529   0.57781   0.63977
 Alpha virt. eigenvalues --    0.66576   0.67544   0.68386   0.68747   0.69634
 Alpha virt. eigenvalues --    0.70111   0.70662   0.71322   0.72850   0.74059
 Alpha virt. eigenvalues --    0.75548   0.76813   0.78432   0.79359   0.83213
 Alpha virt. eigenvalues --    0.84072   0.86105   0.86341   0.86712   0.87526
 Alpha virt. eigenvalues --    0.89521   0.89936   0.91889   0.92919   0.95116
 Alpha virt. eigenvalues --    0.95851   0.96277   0.96611   0.98028   0.98228
 Alpha virt. eigenvalues --    0.98316   0.98580   0.99712   1.00339   1.00485
 Alpha virt. eigenvalues --    1.01031   1.01619   1.02000   1.03578   1.03955
 Alpha virt. eigenvalues --    1.06394   1.08724   1.10645   1.12009   1.13710
 Alpha virt. eigenvalues --    1.14554   1.15439   1.17230   1.25725   1.29477
 Alpha virt. eigenvalues --    1.38590   1.39782   1.41174   1.41716   1.42900
 Alpha virt. eigenvalues --    1.44354   1.45571   1.51057   1.67062   1.70991
 Alpha virt. eigenvalues --    1.71609   1.75724   1.76713   1.77001   1.77755
 Alpha virt. eigenvalues --    1.85055   1.86648   1.87654   1.89237   1.96373
 Alpha virt. eigenvalues --    1.97925   2.14594   2.15391   2.26235   2.26283
 Alpha virt. eigenvalues --    2.26791   2.27088   2.29860   2.30672   2.31677
 Alpha virt. eigenvalues --    2.32287   2.32439   2.32480   2.33029   2.33312
 Alpha virt. eigenvalues --    2.34403   2.34633   2.36038   2.36251   2.62103
 Alpha virt. eigenvalues --   46.19593  46.25335  46.36204 115.17076
          Condensed to atoms (all electrons):
               1          2          3          4          5          6
     1  Pt  18.070557   0.234519   0.276119  -0.011519   0.002366   0.007034
     2  P    0.234519  13.579868  -0.036620   0.314680  -0.027880  -0.020223
     3  P    0.276119  -0.036620  13.540312   0.000621   0.000071  -0.000012
     4  C   -0.011519   0.314680   0.000621   5.378496   0.371897   0.350705
     5  H    0.002366  -0.027880   0.000071   0.371897   0.477883  -0.025899
     6  H    0.007034  -0.020223  -0.000012   0.350705  -0.025899   0.530932
     7  H    0.003541  -0.026696  -0.000006   0.369841  -0.021263  -0.025116
     8  C   -0.022313   0.324304  -0.001757  -0.045792  -0.001405  -0.004217
     9  H    0.000223  -0.026147  -0.000183   0.002189   0.000003  -0.000039
    10  H    0.008258  -0.020269   0.000025  -0.004497  -0.000322   0.003245
    11  H    0.000766  -0.026408  -0.000185  -0.001399   0.000866  -0.000311
    12  C   -0.012262   0.317233   0.000659  -0.035546   0.002244  -0.004915
    13  H    0.003809  -0.026720  -0.000004  -0.001424   0.000006  -0.000311
    14  H    0.007119  -0.020666  -0.000014  -0.005005  -0.000066   0.003228
    15  H    0.002482  -0.027426   0.000083   0.002248  -0.000035  -0.000067
    16  C   -0.022446   0.000653   0.313811  -0.000000  -0.000000   0.000000
    17  H    0.004176  -0.000000  -0.025341  -0.000000   0.000000   0.000000
    18  H    0.010528  -0.000013  -0.021388   0.000000   0.000000  -0.000000
    19  H    0.002685   0.000048  -0.027029  -0.000000   0.000000   0.000000
    20  C   -0.025452  -0.001188   0.318364  -0.000001   0.000000   0.000000
    21  H    0.010432   0.000017  -0.020573   0.000000   0.000000  -0.000000
    22  H    0.001160  -0.000085  -0.023362  -0.000000   0.000000   0.000000
    23  H    0.000386  -0.000099  -0.027315   0.000000  -0.000001  -0.000000
    24  C   -0.022453   0.000408   0.321896  -0.000000  -0.000000   0.000000
    25  H   -0.000142   0.000020  -0.024368  -0.000000   0.000000   0.000000
    26  H    0.011542  -0.000007  -0.022509   0.000000   0.000000  -0.000000
    27  H    0.002242   0.000006  -0.024946  -0.000000   0.000000   0.000000
    28  H    0.051556  -0.013228   0.020216   0.000172   0.000011  -0.000004
    29  H    0.042295   0.023011  -0.017958  -0.001497  -0.000029   0.000026
               7          8          9         10         11         12
     1  Pt   0.003541  -0.022313   0.000223   0.008258   0.000766  -0.012262
     2  P   -0.026696   0.324304  -0.026147  -0.020269  -0.026408   0.317233
     3  P   -0.000006  -0.001757  -0.000183   0.000025  -0.000185   0.000659
     4  C    0.369841  -0.045792   0.002189  -0.004497  -0.001399  -0.035546
     5  H   -0.021263  -0.001405   0.000003  -0.000322   0.000866   0.002244
     6  H   -0.025116  -0.004217  -0.000039   0.003245  -0.000311  -0.004915
     7  H    0.481422   0.002258  -0.000036  -0.000057   0.000010  -0.001434
     8  C    0.002258   5.380879   0.372904   0.347954   0.373133  -0.045619
     9  H   -0.000036   0.372904   0.482935  -0.026760  -0.020010  -0.001189
    10  H   -0.000057   0.347954  -0.026760   0.540071  -0.026644  -0.004895
    11  H    0.000010   0.373133  -0.020010  -0.026644   0.483170   0.002165
    12  C   -0.001434  -0.045619  -0.001189  -0.004895   0.002165   5.377282
    13  H    0.000806   0.002266   0.000003  -0.000047  -0.000037   0.369686
    14  H   -0.000321  -0.004321  -0.000287   0.003494  -0.000037   0.350976
    15  H    0.000006  -0.001365   0.000818  -0.000367   0.000001   0.371350
    16  C   -0.000000  -0.000000  -0.000000   0.000000  -0.000000  -0.000000
    17  H    0.000000   0.000000   0.000000  -0.000000   0.000000  -0.000000
    18  H    0.000000  -0.000000   0.000000  -0.000000  -0.000000   0.000000
    19  H    0.000000   0.000000   0.000000   0.000000   0.000000  -0.000000
    20  C    0.000000   0.000042   0.000002  -0.000000   0.000015   0.000000
    21  H   -0.000000  -0.000000  -0.000000   0.000000  -0.000000   0.000000
    22  H    0.000000   0.000013  -0.000030  -0.000000  -0.000021   0.000000
    23  H    0.000000   0.000004   0.000000  -0.000000  -0.000010  -0.000000
    24  C    0.000000   0.000005   0.000002  -0.000000   0.000000  -0.000003
    25  H    0.000000   0.000002  -0.000013   0.000000  -0.000000   0.000000
    26  H   -0.000000  -0.000000  -0.000000   0.000000  -0.000000   0.000000
    27  H    0.000000   0.000000   0.000000  -0.000000   0.000000  -0.000000
    28  H    0.000054   0.000017   0.000001  -0.000000   0.000001   0.000161
    29  H    0.000201   0.000143   0.000002  -0.000002   0.000002  -0.001535
              13         14         15         16         17         18
     1  Pt   0.003809   0.007119   0.002482  -0.022446   0.004176   0.010528
     2  P   -0.026720  -0.020666  -0.027426   0.000653  -0.000000  -0.000013
     3  P   -0.000004  -0.000014   0.000083   0.313811  -0.025341  -0.021388
     4  C   -0.001424  -0.005005   0.002248  -0.000000  -0.000000   0.000000
     5  H    0.000006  -0.000066  -0.000035  -0.000000   0.000000   0.000000
     6  H   -0.000311   0.003228  -0.000067   0.000000   0.000000  -0.000000
     7  H    0.000806  -0.000321   0.000006  -0.000000   0.000000   0.000000
     8  C    0.002266  -0.004321  -0.001365  -0.000000   0.000000  -0.000000
     9  H    0.000003  -0.000287   0.000818  -0.000000   0.000000   0.000000
    10  H   -0.000047   0.003494  -0.000367   0.000000  -0.000000  -0.000000
    11  H   -0.000037  -0.000037   0.000001  -0.000000   0.000000  -0.000000
    12  C    0.369686   0.350976   0.371350  -0.000000  -0.000000   0.000000
    13  H    0.480998  -0.025031  -0.021397  -0.000000   0.000000   0.000000
    14  H   -0.025031   0.530496  -0.025907   0.000000   0.000000  -0.000000
    15  H   -0.021397  -0.025907   0.477951  -0.000000   0.000000   0.000000
    16  C   -0.000000   0.000000  -0.000000   5.404296   0.369541   0.344474
    17  H    0.000000   0.000000   0.000000   0.369541   0.483820  -0.025793
    18  H    0.000000  -0.000000   0.000000   0.344474  -0.025793   0.544481
    19  H    0.000000   0.000000   0.000000   0.371872  -0.022312  -0.026924
    20  C    0.000000  -0.000000   0.000000  -0.050538   0.002300  -0.004125
    21  H   -0.000000  -0.000000   0.000000  -0.004556  -0.000032   0.003544
    22  H    0.000000  -0.000000  -0.000000   0.002192  -0.000037  -0.000042
    23  H    0.000000   0.000000   0.000000  -0.001250  -0.000000  -0.000318
    24  C    0.000000   0.000000  -0.000001  -0.040417  -0.001866  -0.004401
    25  H    0.000000   0.000000  -0.000002   0.002188   0.000021  -0.000071
    26  H   -0.000000  -0.000000   0.000000  -0.004263  -0.000337   0.002888
    27  H    0.000000   0.000000   0.000000  -0.001581   0.000766  -0.000361
    28  H    0.000055  -0.000004   0.000012  -0.003199   0.000225   0.000081
    29  H    0.000202   0.000028  -0.000030   0.000124   0.000089  -0.000008
              19         20         21         22         23         24
     1  Pt   0.002685  -0.025452   0.010432   0.001160   0.000386  -0.022453
     2  P    0.000048  -0.001188   0.000017  -0.000085  -0.000099   0.000408
     3  P   -0.027029   0.318364  -0.020573  -0.023362  -0.027315   0.321896
     4  C   -0.000000  -0.000001   0.000000  -0.000000   0.000000  -0.000000
     5  H    0.000000   0.000000   0.000000   0.000000  -0.000001  -0.000000
     6  H    0.000000   0.000000  -0.000000   0.000000  -0.000000   0.000000
     7  H    0.000000   0.000000  -0.000000   0.000000   0.000000   0.000000
     8  C    0.000000   0.000042  -0.000000   0.000013   0.000004   0.000005
     9  H    0.000000   0.000002  -0.000000  -0.000030   0.000000   0.000002
    10  H    0.000000  -0.000000   0.000000  -0.000000  -0.000000  -0.000000
    11  H    0.000000   0.000015  -0.000000  -0.000021  -0.000010   0.000000
    12  C   -0.000000   0.000000   0.000000   0.000000  -0.000000  -0.000003
    13  H    0.000000   0.000000  -0.000000   0.000000   0.000000   0.000000
    14  H    0.000000  -0.000000  -0.000000  -0.000000   0.000000   0.000000
    15  H    0.000000   0.000000   0.000000  -0.000000   0.000000  -0.000001
    16  C    0.371872  -0.050538  -0.004556   0.002192  -0.001250  -0.040417
    17  H   -0.022312   0.002300  -0.000032  -0.000037  -0.000000  -0.001866
    18  H   -0.026924  -0.004125   0.003544  -0.000042  -0.000318  -0.004401
    19  H    0.482645  -0.001468  -0.000405   0.000006   0.000613   0.002253
[...]
                 (A) (A) (A) (A)
       Virtual   (A) (A) (A) (A) (A) (A) (A) (A) (A) (A) (A) (A)
                 (A) (A) (A) (A) (A) (A) (A) (A) (A) (A) (A) (A)
                 (A) (A) (A) (A) (A) (A) (A) (A) (A) (A) (A) (A)
                 (A) (A) (A) (A) (A) (A) (A) (A) (A) (A) (A) (A)
                 (A) (A) (A) (A) (A) (A) (A) (A) (A) (A) (A) (A)
                 (A) (A) (A) (A) (A) (A) (A) (A) (A) (A) (A) (A)
                 (A) (A) (A) (A) (A) (A) (A) (A) (A) (A) (A) (A)
                 (A) (A) (A) (A) (A) (A) (A) (A) (A) (A) (A) (A)
                 (A) (A) (A) (A) (A) (A) (A) (A) (A) (A) (A) (A)
                 (A) (A) (A) (A) (A) (A) (A) (A) (A) (A) (A) (A)
                 (A) (A) (A) (A) (A) (A) (A) (A) (A) (A) (A) (A)
                 (A) (A) (A) (A) (A) (A) (A) (A) (A) (A) (A) (A)
 The electronic state is 1-A.
 Alpha  occ. eigenvalues --  -78.04466 -78.04424 -10.52675 -10.52659 -10.52642
 Alpha  occ. eigenvalues --  -10.52627 -10.52411 -10.52354  -6.85908  -6.85866
 Alpha  occ. eigenvalues --   -4.97289  -4.97264  -4.97246  -4.97222  -4.97081
 Alpha  occ. eigenvalues --   -4.97039  -4.02095  -2.23837  -2.23434  -2.21599
 Alpha  occ. eigenvalues --   -0.85399  -0.85197  -0.77397  -0.77314  -0.77216
 Alpha  occ. eigenvalues --   -0.77118  -0.61789  -0.60787  -0.53598  -0.50439
 Alpha  occ. eigenvalues --   -0.49997  -0.48914  -0.48533  -0.48495  -0.48406
 Alpha  occ. eigenvalues --   -0.46063  -0.45819  -0.45758  -0.45620  -0.44154
 Alpha  occ. eigenvalues --   -0.44095  -0.39495  -0.38605  -0.38356  -0.38149
 Alpha  occ. eigenvalues --   -0.37739  -0.36347  -0.28898  -0.28504  -0.26481
 Alpha  occ. eigenvalues --   -0.24544  -0.22592
 Alpha virt. eigenvalues --    0.00839   0.01085   0.04935   0.05627   0.09345
 Alpha virt. eigenvalues --    0.09882   0.10873   0.11474   0.12290   0.12583
 Alpha virt. eigenvalues --    0.12899   0.13843   0.15226   0.15873   0.16429
 Alpha virt. eigenvalues --    0.16610   0.18135   0.20075   0.20243   0.21436
 Alpha virt. eigenvalues --    0.21875   0.22272   0.23237   0.23679   0.24275
 Alpha virt. eigenvalues --    0.24653   0.24946   0.25480   0.25622   0.26460
 Alpha virt. eigenvalues --    0.26699   0.27970   0.28580   0.29169   0.30262
 Alpha virt. eigenvalues --    0.32009   0.34403   0.36249   0.36664   0.44298
 Alpha virt. eigenvalues --    0.46223   0.47280   0.48297   0.50474   0.51211
 Alpha virt. eigenvalues --    0.52302   0.55533   0.56812   0.59418   0.63465
 Alpha virt. eigenvalues --    0.64289   0.66561   0.67135   0.68605   0.69608
 Alpha virt. eigenvalues --    0.71120   0.71735   0.72054   0.72404   0.73017
 Alpha virt. eigenvalues --    0.75783   0.77128   0.79376   0.81112   0.83346
 Alpha virt. eigenvalues --    0.83637   0.84908   0.85796   0.87090   0.87397
 Alpha virt. eigenvalues --    0.87956   0.89830   0.91436   0.91531   0.93992
 Alpha virt. eigenvalues --    0.94570   0.95880   0.96950   0.97474   0.97964
 Alpha virt. eigenvalues --    0.98914   0.99252   0.99829   1.00707   1.01248
 Alpha virt. eigenvalues --    1.01931   1.02310   1.02664   1.04165   1.04514
 Alpha virt. eigenvalues --    1.05762   1.09457   1.09989   1.12044   1.12454
 Alpha virt. eigenvalues --    1.13629   1.14277   1.16809   1.24560   1.33585
 Alpha virt. eigenvalues --    1.37523   1.40125   1.41511   1.42517   1.43925
 Alpha virt. eigenvalues --    1.45208   1.46644   1.56201   1.61377   1.71361
 Alpha virt. eigenvalues --    1.71390   1.75751   1.76563   1.76852   1.77492
 Alpha virt. eigenvalues --    1.84878   1.86053   1.87824   1.87962   1.96813
 Alpha virt. eigenvalues --    1.99327   2.15292   2.15435   2.26226   2.26269
 Alpha virt. eigenvalues --    2.26705   2.27119   2.29546   2.30609   2.31859
 Alpha virt. eigenvalues --    2.31929   2.32438   2.32667   2.32928   2.33080
 Alpha virt. eigenvalues --    2.35037   2.35350   2.35382   2.35845   2.58317
 Alpha virt. eigenvalues --   46.19089  46.26870  46.32107 115.14080
          Condensed to atoms (all electrons):
               1          2          3          4          5          6
     1  Pt  18.021748   0.248777   0.255181  -0.019727   0.003472   0.007735
     2  P    0.248777  13.570107  -0.047038   0.327024  -0.027340  -0.019957
     3  P    0.255181  -0.047038  13.559542  -0.001232  -0.000082   0.000020
     4  C   -0.019727   0.327024  -0.001232   5.377927   0.371381   0.351842
     5  H    0.003472  -0.027340  -0.000082   0.371381   0.481168  -0.026384
     6  H    0.007735  -0.019957   0.000020   0.351842  -0.026384   0.531682
     7  H    0.002610  -0.024987  -0.000142   0.368102  -0.021254  -0.026037
     8  C   -0.014906   0.308731   0.000692  -0.050168  -0.001384  -0.004744
     9  H    0.003533  -0.029177   0.000011   0.002405  -0.000005  -0.000040
    10  H    0.006361  -0.016174  -0.000018  -0.004660  -0.000320   0.003541
    11  H    0.003451  -0.029566   0.000020  -0.001662   0.000777  -0.000343
    12  C   -0.019667   0.327958  -0.001157  -0.041160   0.002339  -0.004966
    13  H    0.002958  -0.025545  -0.000806  -0.001812   0.000014  -0.000299
    14  H    0.007619  -0.019856   0.000016  -0.005013  -0.000058   0.003309
    15  H    0.004085  -0.027030   0.000049   0.002329  -0.000038  -0.000060
    16  C   -0.017293  -0.000106   0.325734  -0.000009  -0.000003   0.000000
    17  H    0.002543  -0.000264  -0.026139   0.000086  -0.000027  -0.000002
    18  H    0.007364  -0.000012  -0.019744  -0.000000  -0.000000  -0.000000
    19  H    0.004221   0.000052  -0.026469  -0.000000   0.000001  -0.000000
    20  C   -0.015234   0.000750   0.311227  -0.000001  -0.000000   0.000000
    21  H    0.006396  -0.000019  -0.016637   0.000000   0.000000  -0.000000
    22  H    0.003726   0.000039  -0.029748  -0.000000   0.000000   0.000000
    23  H    0.003364   0.000002  -0.028067   0.000000   0.000000  -0.000000
    24  C   -0.023788  -0.002303   0.329986   0.000015   0.000004  -0.000002
    25  H    0.003027  -0.000359  -0.028062   0.000005   0.000000  -0.000000
    26  H    0.008198   0.000047  -0.020015  -0.000002  -0.000000   0.000000
    27  H    0.001321  -0.000033  -0.023916  -0.000017  -0.000004  -0.000007
    28  H    0.068705  -0.016932   0.021093   0.000051   0.000004  -0.000001
    29  H    0.068343   0.020491  -0.016968   0.000099   0.000012  -0.000000
               7          8          9         10         11         12
     1  Pt   0.002610  -0.014906   0.003533   0.006361   0.003451  -0.019667
     2  P   -0.024987   0.308731  -0.029177  -0.016174  -0.029566   0.327958
     3  P   -0.000142   0.000692   0.000011  -0.000018   0.000020  -0.001157
     4  C    0.368102  -0.050168   0.002405  -0.004660  -0.001662  -0.041160
     5  H   -0.021254  -0.001384  -0.000005  -0.000320   0.000777   0.002339
     6  H   -0.026037  -0.004744  -0.000040   0.003541  -0.000343  -0.004966
     7  H    0.490035   0.002402  -0.000040  -0.000043   0.000013  -0.001863
     8  C    0.002402   5.398106   0.372899   0.346886   0.373203  -0.048300
     9  H   -0.000040   0.372899   0.487350  -0.025967  -0.021661  -0.001635
    10  H   -0.000043   0.346886  -0.025967   0.539639  -0.026166  -0.004781
    11  H    0.000013   0.373203  -0.021661  -0.026166   0.487661   0.002401
    12  C   -0.001863  -0.048300  -0.001635  -0.004781   0.002401   5.374345
    13  H    0.000658   0.002368   0.000008  -0.000045  -0.000039   0.368994
    14  H   -0.000311  -0.004804  -0.000332   0.003480  -0.000046   0.351802
    15  H    0.000021  -0.001375   0.000792  -0.000331  -0.000004   0.370897
    16  C   -0.000054  -0.000001  -0.000000   0.000000  -0.000000   0.000010
    17  H   -0.000065  -0.000000   0.000000   0.000000   0.000000   0.000000
    18  H   -0.000003   0.000000   0.000000  -0.000000   0.000000  -0.000000
    19  H    0.000001  -0.000000   0.000000   0.000000   0.000000   0.000000
    20  C   -0.000000  -0.000000  -0.000000   0.000000  -0.000000  -0.000002
    21  H   -0.000000   0.000000   0.000000  -0.000000   0.000000   0.000000
    22  H    0.000000  -0.000000   0.000000   0.000000   0.000000  -0.000000
    23  H    0.000000  -0.000000  -0.000000   0.000000   0.000000   0.000000
    24  C   -0.000009  -0.000001   0.000000   0.000000   0.000000  -0.000020
    25  H   -0.000008  -0.000000   0.000000   0.000000   0.000000  -0.000005
    26  H   -0.000005   0.000000   0.000000  -0.000000   0.000000   0.000000
    27  H   -0.000007  -0.000000   0.000000  -0.000000   0.000000  -0.000166
    28  H    0.000002   0.000099   0.000020  -0.000003   0.000018   0.000068
    29  H   -0.000000  -0.001826  -0.000059   0.000029  -0.000075   0.000077
              13         14         15         16         17         18
     1  Pt   0.002958   0.007619   0.004085  -0.017293   0.002543   0.007364
     2  P   -0.025545  -0.019856  -0.027030  -0.000106  -0.000264  -0.000012
     3  P   -0.000806   0.000016   0.000049   0.325734  -0.026139  -0.019744
     4  C   -0.001812  -0.005013   0.002329  -0.000009   0.000086  -0.000000
     5  H    0.000014  -0.000058  -0.000038  -0.000003  -0.000027  -0.000000
     6  H   -0.000299   0.003309  -0.000060   0.000000  -0.000002  -0.000000
     7  H    0.000658  -0.000311   0.000021  -0.000054  -0.000065  -0.000003
     8  C    0.002368  -0.004804  -0.001375  -0.000001  -0.000000   0.000000
     9  H    0.000008  -0.000332   0.000792  -0.000000   0.000000   0.000000
    10  H   -0.000045   0.003480  -0.000331   0.000000   0.000000  -0.000000
    11  H   -0.000039  -0.000046  -0.000004  -0.000000   0.000000   0.000000
    12  C    0.368994   0.351802   0.370897   0.000010   0.000000  -0.000000
    13  H    0.486562  -0.025948  -0.021213   0.000000  -0.000005  -0.000000
    14  H   -0.025948   0.531754  -0.026268  -0.000000  -0.000000   0.000000
    15  H   -0.021213  -0.026268   0.479289  -0.000000   0.000000   0.000000
    16  C    0.000000  -0.000000  -0.000000   5.372987   0.369672   0.351916
    17  H   -0.000005  -0.000000   0.000000   0.369672   0.483583  -0.025909
    18  H   -0.000000   0.000000   0.000000   0.351916  -0.025909   0.531029
    19  H    0.000000  -0.000000   0.000000   0.370388  -0.020913  -0.025978
    20  C   -0.000000   0.000000  -0.000000  -0.044732   0.002381  -0.005035
    21  H   -0.000000  -0.000000   0.000000  -0.005087  -0.000054   0.003493
    22  H   -0.000000   0.000000   0.000000   0.002409  -0.000038  -0.000057
    23  H    0.000000   0.000000   0.000000  -0.001623   0.000008  -0.000328
    24  C    0.000407  -0.000002  -0.000002  -0.043047  -0.001694  -0.004895
    25  H   -0.000023  -0.000001  -0.000000   0.002346   0.000003  -0.000053
    26  H   -0.000010   0.000000  -0.000000  -0.004754  -0.000305   0.003241
    27  H    0.000021  -0.000007   0.000001  -0.002089   0.000820  -0.000312
    28  H    0.000002  -0.000001   0.000006  -0.000053  -0.000004   0.000002
    29  H   -0.000001   0.000000   0.000018   0.000092   0.000003  -0.000001
              19         20         21         22         23         24
     1  Pt   0.004221  -0.015234   0.006396   0.003726   0.003364  -0.023788
     2  P    0.000052   0.000750  -0.000019   0.000039   0.000002  -0.002303
     3  P   -0.026469   0.311227  -0.016637  -0.029748  -0.028067   0.329986
     4  C   -0.000000  -0.000001   0.000000  -0.000000   0.000000   0.000015
     5  H    0.000001  -0.000000   0.000000   0.000000   0.000000   0.000004
     6  H   -0.000000   0.000000  -0.000000   0.000000  -0.000000  -0.000002
     7  H    0.000001  -0.000000  -0.000000   0.000000   0.000000  -0.000009
     8  C   -0.000000  -0.000000   0.000000  -0.000000  -0.000000  -0.000001
     9  H    0.000000  -0.000000   0.000000   0.000000  -0.000000   0.000000
    10  H    0.000000   0.000000  -0.000000   0.000000   0.000000   0.000000
    11  H    0.000000  -0.000000   0.000000   0.000000   0.000000   0.000000
    12  C    0.000000  -0.000002   0.000000  -0.000000   0.000000  -0.000020
    13  H    0.000000  -0.000000  -0.000000  -0.000000   0.000000   0.000407
    14  H   -0.000000   0.000000  -0.000000   0.000000   0.000000  -0.000002
    15  H    0.000000  -0.000000   0.000000   0.000000   0.000000  -0.000002
    16  C    0.370388  -0.044732  -0.005087   0.002409  -0.001623  -0.043047
    17  H   -0.020913   0.002381  -0.000054  -0.000038   0.000008  -0.001694
    18  H   -0.025978  -0.005035   0.003493  -0.000057  -0.000328  -0.004895
    19  H    0.478627  -0.001323  -0.000335  -0.000006   0.000826   0.002346
    20  C   -0.001323   5.395090   0.347338   0.373104   0.371896  -0.052365
    21  H   -0.000335   0.347338   0.538568  -0.026311  -0.025576  -0.004497
    22  H   -0.000006   0.373104  -0.026311   0.485772  -0.021590  -0.001692
    23  H    0.000826   0.371896  -0.025576  -0.021590   0.486681   0.002416
    24  C    0.002346  -0.052365  -0.004497  -0.001692   0.002416   5.382023
    25  H   -0.000038  -0.001342  -0.000306   0.000730  -0.000004   0.372338
    26  H   -0.000061  -0.004762   0.003613  -0.000352  -0.000031   0.351176
    27  H    0.000029   0.002407  -0.000033   0.000011  -0.000041   0.367845
    28  H    0.000026  -0.001756   0.000028  -0.000080  -0.000010   0.000118
    29  H    0.000010   0.000107  -0.000003   0.000014   0.000025   0.000038
              25         26         27         28         29
     1  Pt   0.003027   0.008198   0.001321   0.068705   0.068343
     2  P   -0.000359   0.000047  -0.000033  -0.016932   0.020491
     3  P   -0.028062  -0.020015  -0.023916   0.021093  -0.016968
     4  C    0.000005  -0.000002  -0.000017   0.000051   0.000099
     5  H    0.000000  -0.000000  -0.000004   0.000004   0.000012
     6  H   -0.000000   0.000000  -0.000007  -0.000001  -0.000000
     7  H   -0.000008  -0.000005  -0.000007   0.000002  -0.000000
     8  C   -0.000000   0.000000  -0.000000   0.000099  -0.001826
     9  H    0.000000   0.000000   0.000000   0.000020  -0.000059
    10  H    0.000000  -0.000000  -0.000000  -0.000003   0.000029
    11  H    0.000000   0.000000   0.000000   0.000018  -0.000075
    12  C   -0.000005   0.000000  -0.000166   0.000068   0.000077
    13  H   -0.000023  -0.000010   0.000021   0.000002  -0.000001
    14  H   -0.000001   0.000000  -0.000007  -0.000001   0.000000
    15  H   -0.000000  -0.000000   0.000001   0.000006   0.000018
    16  C    0.002346  -0.004754  -0.002089  -0.000053   0.000092
    17  H    0.000003  -0.000305   0.000820  -0.000004   0.000003
    18  H   -0.000053   0.003241  -0.000312   0.000002  -0.000001
    19  H   -0.000038  -0.000061   0.000029   0.000026   0.000010
    20  C   -0.001342  -0.004762   0.002407  -0.001756   0.000107
    21  H   -0.000306   0.003613  -0.000033   0.000028  -0.000003
    22  H    0.000730  -0.000352   0.000011  -0.000080   0.000014
    23  H   -0.000004  -0.000031  -0.000041  -0.000010   0.000025
    24  C    0.372338   0.351176   0.367845   0.000118   0.000038
    25  H    0.483644  -0.026583  -0.021740   0.000008   0.000003
    26  H   -0.026583   0.533403  -0.026325  -0.000001  -0.000001
    27  H   -0.021740  -0.026325   0.494829   0.000000   0.000002
    28  H    0.000008  -0.000001   0.000000   0.633676   0.265912
    29  H    0.000003  -0.000001   0.000002   0.265912   0.632511
 Mulliken charges:
               1
     1  Pt  -0.634121
     2  P    0.482718
     3  P    0.482673
     4  C   -0.675802
     5  H    0.217725
     6  H    0.184712
     7  H    0.210986
     8  C   -0.677877
     9  H    0.211898
    10  H    0.178570
    11  H    0.212021
    12  C   -0.675168
    13  H    0.213754
    14  H    0.184669
    15  H    0.218834
    16  C   -0.676703
    17  H    0.216320
    18  H    0.185282
    19  H    0.218594
    20  C   -0.677751
    21  H    0.179424
    22  H    0.214069
    23  H    0.212052
    24  C   -0.674394
    25  H    0.216421
    26  H    0.183528
    27  H    0.207413
    28  H    0.029001
    29  H    0.031149
 Sum of Mulliken charges =  -0.00000
 Mulliken charges with hydrogens summed into heavy atoms:
               1
     1  Pt  -0.573971
     2  P    0.482718
     3  P    0.482673
     4  C   -0.062379
     8  C   -0.075386
    12  C   -0.057911
    16  C   -0.056507
    20  C   -0.072206
    24  C   -0.067032
 Electronic spatial extent (au):  <R**2>=           2957.2626
 Charge=             -0.0000 electrons
 Dipole moment (field-independent basis, Debye):
    X=             -0.0478    Y=              2.8838    Z=              0.0514  Tot=              2.8847
 Quadrupole moment (field-independent basis, Debye-Ang):
   XX=            -80.6117   YY=            -92.3297   ZZ=            -92.2857
   XY=              0.0687   XZ=             -0.1782   YZ=             -0.0180
 Traceless Quadrupole moment (field-independent basis, Debye-Ang):
   XX=              7.7974   YY=             -3.9207   ZZ=             -3.8767
   XY=              0.0687   XZ=             -0.1782   YZ=             -0.0180
 Octapole moment (field-independent basis, Debye-Ang**2):
  XXX=             -0.6435  YYY=            -74.3409  ZZZ=             -1.0774  XYY=             -0.4022
  XXY=            -16.9798  XXZ=              0.4889  XZZ=              0.5653  YZZ=            -25.2706
  YYZ=              0.6658  XYZ=              0.8857
 Hexadecapole moment (field-independent basis, Debye-Ang**3):
 XXXX=          -2683.7820 YYYY=           -806.6845 ZZZZ=           -535.8629 XXXY=              1.9699
 XXXZ=             -6.1486 YYYX=              0.9752 YYYZ=              1.9636 ZZZX=              4.0851
 ZZZY=             -0.7996 XXYY=           -581.5432 XXZZ=           -542.3456 YYZZ=           -230.1856
 XXYZ=             -1.7974 YYXZ=             -2.3575 ZZXY=             -1.4232
 N-N= 8.389550839754D+02 E-N=-4.106670289626D+03  KE= 9.608187761723D+02
 No NMR shielding tensors so no spin-rotation constants.
 Leave Link  601 at Fri Nov  1 07:19:00 2019, MaxMem=   140000000 cpu:               7.9 elap:               0.4
 (Enter /usr/g16/l9999.exe)
 1\1\GINC-LW06\FTS\RM062X\GenECP\C6H20P2Pt1\WSR\01-Nov-2019\0\\#p opt=(
 calcfc,ts,noeigen) M062X/genecp scrf=(smd,solvent=benzene)\\Title Card
  Required\\0,1\Pt,-0.0962818512,-0.6723105653,1.1477046529\P,1.9481868
 035,-0.1513514604,0.3338312076\P,-1.9839018289,-0.2015166203,-0.004264
 3352\C,2.155142761,1.6024716593,-0.1853219964\H,2.0162297364,2.2567119
 627,0.6807846089\H,3.1459481756,1.7835656217,-0.6173140862\H,1.3869055
 301,1.8516623782,-0.9238345354\C,3.499211383,-0.3918643709,1.302670282
 7\H,3.5895856732,-1.4472621644,1.5780731873\H,4.3896359865,-0.08807810
 96,0.7400127683\H,3.4406196285,0.1930921808,2.2259088612\C,2.384599017
 8,-1.0370847667,-1.2188052353\H,1.6068595733,-0.8563912873,-1.96699249
 01\H,3.3529365722,-0.7086633983,-1.6131542348\H,2.4225714688,-2.113185
 6347,-1.0242062532\C,-2.5690176918,1.5346129678,0.1659676961\H,-1.7613
 262691,2.2170524037,-0.1154388476\H,-3.4437328002,1.7278299322,-0.4652
 956362\H,-2.8291202945,1.7303044241,1.2104772961\C,-3.5547668707,-1.12
 18644953,0.2860323699\H,-4.364288518,-0.7707222921,-0.3643460363\H,-3.
 3868742539,-2.1881905702,0.1050104747\H,-3.8525998149,-1.0005416894,1.
 3320624516\C,-1.8538734822,-0.347814282,-1.8348040455\H,-1.5673167089,
 -1.3706333668,-2.0984696377\H,-2.7982940673,-0.0995295309,-2.332607204
 4\H,-1.0707307139,0.3280304168,-2.1924019363\H,-0.6554923258,-1.509954
 0491,2.7121548068\H,0.1835847014,-1.4841750337,2.7980153869\\Version=E
 S64L-G16RevA.03\State=1-A\HF=-1042.4253574\RMSD=7.513e-09\RMSF=4.989e-
 07\Dipole=0.0591684,0.5274428,-1.0031769\Quadrupole=5.7554688,-2.90060
 38,-2.8548649,-0.0031674,0.6171105,0.0197731\PG=C01 [X(C6H20P2Pt1)]\\@


 THERE IS MORE TO LIFE THAN INCREASING ITS SPEED.

                                       -- GANDHI
 Job cpu time:       1 days 17 hours 21 minutes 33.0 seconds.
 Elapsed time:       0 days  1 hours 45 minutes 49.7 seconds.
 File lengths (MBytes):  RWF=    235 Int=      0 D2E=      0 Chk=     11 Scr=      1
 Normal termination of Gaussian 16 at Fri Nov  1 07:19:00 2019.
