 Entering Gaussian System, Link 0=g16
 Input=Pt_tsb_sp.gjf
 Output=Pt_tsb_sp.log
 Initial command:
 /usr/g16/l1.exe "/scratch/wsr/gaussian/Gau-297478.inp" -scrdir="/scratch/wsr/gaussian/"
 Entering Link 1 = /usr/g16/l1.exe PID=    297479.
  
 Copyright (c) 1988,1990,1992,1993,1995,1998,2003,2009,2016,
            Gaussian, Inc.  All Rights Reserved.
  
 This is part of the Gaussian(R) 16 program.  It is based on
 the Gaussian(R) 09 system (copyright 2009, Gaussian, Inc.),
 the Gaussian(R) 03 system (copyright 2003, Gaussian, Inc.),
 the Gaussian(R) 98 system (copyright 1998, Gaussian, Inc.),
 the Gaussian(R) 94 system (copyright 1995, Gaussian, Inc.),
 the Gaussian 92(TM) system (copyright 1992, Gaussian, Inc.),
 the Gaussian 90(TM) system (copyright 1990, Gaussian, Inc.),
 the Gaussian 88(TM) system (copyright 1988, Gaussian, Inc.),
 the Gaussian 86(TM) system (copyright 1986, Carnegie Mellon
 University), and the Gaussian 82(TM) system (copyright 1983,
 Carnegie Mellon University). Gaussian is a federally registered
 trademark of Gaussian, Inc.
  
 This software contains proprietary and confidential information,
 including trade secrets, belonging to Gaussian, Inc.
  
 This software is provided under written license and may be
 used, copied, transmitted, or stored only in accord with that
 written license.
  
 The following legend is applicable only to US Government
 contracts under FAR:
  
                    RESTRICTED RIGHTS LEGEND
  
 Use, reproduction and disclosure by the US Government is
 subject to restrictions as set forth in subparagraphs (a)
 and (c) of the Commercial Computer Software - Restricted
 Rights clause in FAR 52.227-19.
  
 Gaussian, Inc.
 340 Quinnipiac St., Bldg. 40, Wallingford CT 06492
  
  
 ---------------------------------------------------------------
 Warning -- This program may not be used in any manner that
 competes with the business of Gaussian, Inc. or will provide
 assistance to any competitor of Gaussian, Inc.  The licensee
 of this program is prohibited from giving any competitor of
 Gaussian, Inc. access to this program.  By using this program,
 the user acknowledges that Gaussian, Inc. is engaged in the
 business of creating and licensing software in the field of
 computational chemistry and represents and warrants to the
 licensee that it is not a competitor of Gaussian, Inc. and that
 it will not use this program in any manner prohibited above.
 ---------------------------------------------------------------
  

 Cite this work as:
 Gaussian 16, Revision A.03,
 M. J. Frisch, G. W. Trucks, H. B. Schlegel, G. E. Scuseria, 
 M. A. Robb, J. R. Cheeseman, G. Scalmani, V. Barone, 
 G. A. Petersson, H. Nakatsuji, X. Li, M. Caricato, A. V. Marenich, 
 J. Bloino, B. G. Janesko, R. Gomperts, B. Mennucci, H. P. Hratchian, 
 J. V. Ortiz, A. F. Izmaylov, J. L. Sonnenberg, D. Williams-Young, 
 F. Ding, F. Lipparini, F. Egidi, J. Goings, B. Peng, A. Petrone, 
 T. Henderson, D. Ranasinghe, V. G. Zakrzewski, J. Gao, N. Rega, 
 G. Zheng, W. Liang, M. Hada, M. Ehara, K. Toyota, R. Fukuda, 
 J. Hasegawa, M. Ishida, T. Nakajima, Y. Honda, O. Kitao, H. Nakai, 
 T. Vreven, K. Throssell, J. A. Montgomery, Jr., J. E. Peralta, 
 F. Ogliaro, M. J. Bearpark, J. J. Heyd, E. N. Brothers, K. N. Kudin, 
 V. N. Staroverov, T. A. Keith, R. Kobayashi, J. Normand, 
 K. Raghavachari, A. P. Rendell, J. C. Burant, S. S. Iyengar, 
 J. Tomasi, M. Cossi, J. M. Millam, M. Klene, C. Adamo, R. Cammi, 
 J. W. Ochterski, R. L. Martin, K. Morokuma, O. Farkas, 
 J. B. Foresman, and D. J. Fox, Gaussian, Inc., Wallingford CT, 2016.
 
 ******************************************
 Gaussian 16:  ES64L-G16RevA.03 25-Dec-2016
                 6-Nov-2019 
 ******************************************
 %chk=Pt_tsb.chk
 %rwf=/home/wsr/ICC/1030/Pt/
 %nprocshared=12
 Will use up to   12 processors via shared memory.
 -------------------------------------------------------------
 #p B2PLYPD3/def2TZVP geom=allcheck scrf=(smd,solvent=benzene)
 -------------------------------------------------------------
 1/29=7,38=1,172=1/1;
 2/12=2,40=1/2;
 3/5=44,7=101,11=9,14=-4,25=1,30=1,70=32201,72=12,74=-60/1,2,3;
 4//1;
 5/5=2,38=5,53=12/2;
 8/10=1/1;
 9/16=-3/6;
 6/7=2,8=2,9=2,10=2/1;
 99/5=1,9=1/99;
 Leave Link    1 at Wed Nov  6 10:27:05 2019, MaxMem=           0 cpu:               0.5 elap:               0.0
 (Enter /usr/g16/l101.exe)
 Structure from the checkpoint file:  "Pt_tsb.chk"
 -------------------
 Title Card Required
 -------------------
 Charge =  0 Multiplicity = 1
 Redundant internal coordinates found in file.  (old form).
 Pt,0,-0.0962818512,-0.6723105653,1.1477046529
 P,0,1.9481868035,-0.1513514604,0.3338312076
 P,0,-1.9839018289,-0.2015166203,-0.0042643352
 C,0,2.155142761,1.6024716593,-0.1853219964
 H,0,2.0162297364,2.2567119627,0.6807846089
 H,0,3.1459481756,1.7835656217,-0.6173140862
 H,0,1.3869055301,1.8516623782,-0.9238345354
 C,0,3.499211383,-0.3918643709,1.3026702827
 H,0,3.5895856732,-1.4472621644,1.5780731873
 H,0,4.3896359865,-0.0880781096,0.7400127683
 H,0,3.4406196285,0.1930921808,2.2259088612
 C,0,2.3845990178,-1.0370847667,-1.2188052353
 H,0,1.6068595733,-0.8563912873,-1.9669924901
 H,0,3.3529365722,-0.7086633983,-1.6131542348
 H,0,2.4225714688,-2.1131856347,-1.0242062532
 C,0,-2.5690176918,1.5346129678,0.1659676961
 H,0,-1.7613262691,2.2170524037,-0.1154388476
 H,0,-3.4437328002,1.7278299322,-0.4652956362
 H,0,-2.8291202945,1.7303044241,1.2104772961
 C,0,-3.5547668707,-1.1218644953,0.2860323699
 H,0,-4.364288518,-0.7707222921,-0.3643460363
 H,0,-3.3868742539,-2.1881905702,0.1050104747
 H,0,-3.8525998149,-1.0005416894,1.3320624516
 C,0,-1.8538734822,-0.347814282,-1.8348040455
 H,0,-1.5673167089,-1.3706333668,-2.0984696377
 H,0,-2.7982940673,-0.0995295309,-2.3326072044
 H,0,-1.0707307139,0.3280304168,-2.1924019363
 H,0,-0.6554923258,-1.5099540491,2.7121548068
 H,0,0.1835847014,-1.4841750337,2.7980153869
 Recover connectivity data from disk.
 ITRead=  0  0  0  0  0  0  0  0  0  0  0  0  0  0  0  0  0  0  0  0
 ITRead=  0  0  0  0  0  0  0  0  0
 MicOpt= -1 -1 -1 -1 -1 -1 -1 -1 -1 -1 -1 -1 -1 -1 -1 -1 -1 -1 -1 -1
 MicOpt= -1 -1 -1 -1 -1 -1 -1 -1 -1
                           ----------------------------
                           !    Current Parameters    !
                           ! (Angstroms and Degrees)  !
 --------------------------                            --------------------------
 ! Name  Definition              Value                                          !
 --------------------------------------------------------------------------------
 ! R1    R(1,2)                  2.2613                                         !
 ! R2    R(1,3)                  2.2609                                         !
 ! R3    R(1,28)                 1.8606                                         !
 ! R4    R(1,29)                 1.8604                                         !
 ! R5    R(2,4)                  1.8407                                         !
 ! R6    R(2,8)                  1.8445                                         !
 ! R7    R(2,12)                 1.84                                           !
 ! R8    R(3,16)                 1.84                                           !
 ! R9    R(3,20)                 1.8436                                         !
 ! R10   R(3,24)                 1.841                                          !
 ! R11   R(4,5)                  1.0943                                         !
 ! R12   R(4,6)                  1.096                                          !
 ! R13   R(4,7)                  1.0944                                         !
 ! R14   R(8,9)                  1.0945                                         !
 ! R15   R(8,10)                 1.0962                                         !
 ! R16   R(8,11)                 1.0945                                         !
 ! R17   R(12,13)                1.0942                                         !
 ! R18   R(12,14)                1.0959                                         !
 ! R19   R(12,15)                1.0942                                         !
 ! R20   R(16,17)                1.0942                                         !
 ! R21   R(16,18)                1.0959                                         !
 ! R22   R(16,19)                1.0941                                         !
 ! R23   R(20,21)                1.0962                                         !
 ! R24   R(20,22)                1.0945                                         !
 ! R25   R(20,23)                1.0944                                         !
 ! R26   R(24,25)                1.0944                                         !
 ! R27   R(24,26)                1.0961                                         !
 ! R28   R(24,27)                1.0945                                         !
 ! R29   R(28,29)                0.8439                                         !
 ! A1    A(2,1,3)              121.5654                                         !
 ! A2    A(2,1,28)             132.6926                                         !
 ! A3    A(2,1,29)             106.487                                          !
 ! A4    A(3,1,28)             105.7374                                         !
 ! A5    A(3,1,29)             131.9476                                         !
 ! A6    A(1,2,4)              115.0026                                         !
 ! A7    A(1,2,8)              122.7629                                         !
 ! A8    A(1,2,12)             114.0311                                         !
 ! A9    A(4,2,8)              100.2439                                         !
 ! A10   A(4,2,12)             101.1859                                         !
 ! A11   A(8,2,12)             100.4287                                         !
 ! A12   A(1,3,16)             114.509                                          !
 ! A13   A(1,3,20)             121.816                                          !
 ! A14   A(1,3,24)             115.5379                                         !
 ! A15   A(16,3,20)            100.6909                                         !
 ! A16   A(16,3,24)            100.92                                           !
 ! A17   A(20,3,24)            100.1996                                         !
 ! A18   A(2,4,5)              109.399                                          !
 ! A19   A(2,4,6)              111.7314                                         !
 ! A20   A(2,4,7)              109.1686                                         !
 ! A21   A(5,4,6)              109.1445                                         !
 ! A22   A(5,4,7)              107.9905                                         !
 ! A23   A(6,4,7)              109.3303                                         !
 ! A24   A(2,8,9)              109.1077                                         !
 ! A25   A(2,8,10)             112.166                                          !
 ! A26   A(2,8,11)             109.1691                                         !
 ! A27   A(9,8,10)             109.2266                                         !
 ! A28   A(9,8,11)             107.9102                                         !
 ! A29   A(10,8,11)            109.167                                          !
 ! A30   A(2,12,13)            109.2021                                         !
 ! A31   A(2,12,14)            111.6505                                         !
 ! A32   A(2,12,15)            109.364                                          !
 ! A33   A(13,12,14)           109.4204                                         !
 ! A34   A(13,12,15)           107.9791                                         !
 ! A35   A(14,12,15)           109.1502                                         !
 ! A36   A(3,16,17)            109.2663                                         !
 ! A37   A(3,16,18)            111.5241                                         !
 ! A38   A(3,16,19)            109.4331                                         !
 ! A39   A(17,16,18)           109.3342                                         !
 ! A40   A(17,16,19)           108.0271                                         !
 ! A41   A(18,16,19)           109.1868                                         !
 ! A42   A(3,20,21)            112.08                                           !
 ! A43   A(3,20,22)            109.2446                                         !
 ! A44   A(3,20,23)            109.0901                                         !
 ! A45   A(21,20,22)           109.1006                                         !
 ! A46   A(21,20,23)           109.3063                                         !
 ! A47   A(22,20,23)           107.9289                                         !
 ! A48   A(3,24,25)            109.409                                          !
 ! A49   A(3,24,26)            111.8844                                         !
 ! A50   A(3,24,27)            109.0464                                         !
 ! A51   A(25,24,26)           109.1405                                         !
 ! A52   A(25,24,27)           108.1209                                         !
 ! A53   A(26,24,27)           109.1631                                         !
 ! D1    D(3,1,2,4)             52.5561                                         !
 ! D2    D(3,1,2,8)            174.7965                                         !
 ! D3    D(3,1,2,12)           -63.695                                          !
 ! D4    D(28,1,2,4)          -128.3486                                         !
 ! D5    D(28,1,2,8)            -6.1082                                         !
 ! D6    D(28,1,2,12)          115.4003                                         !
 ! D7    D(29,1,2,4)          -127.5081                                         !
 ! D8    D(29,1,2,8)            -5.2678                                         !
 ! D9    D(29,1,2,12)          116.2407                                         !
 ! D10   D(2,1,3,16)           -81.5647                                         !
 ! D11   D(2,1,3,20)           156.9159                                         !
 ! D12   D(2,1,3,24)            35.0874                                         !
 ! D13   D(28,1,3,16)           99.1261                                         !
 ! D14   D(28,1,3,20)          -22.3933                                         !
 ! D15   D(28,1,3,24)         -144.2218                                         !
 ! D16   D(29,1,3,16)           98.5181                                         !
 ! D17   D(29,1,3,20)          -23.0013                                         !
 ! D18   D(29,1,3,24)         -144.8298                                         !
 ! D19   D(1,2,4,5)             61.9274                                         !
 ! D20   D(1,2,4,6)           -177.0988                                         !
 ! D21   D(1,2,4,7)            -56.0471                                         !
 ! D22   D(8,2,4,5)            -71.7878                                         !
 ! D23   D(8,2,4,6)             49.186                                          !
 ! D24   D(8,2,4,7)            170.2377                                         !
 ! D25   D(12,2,4,5)          -174.6874                                         !
 ! D26   D(12,2,4,6)           -53.7136                                         !
 ! D27   D(12,2,4,7)            67.338                                          !
 ! D28   D(1,2,8,9)             58.4968                                         !
 ! D29   D(1,2,8,10)           179.6585                                         !
 ! D30   D(1,2,8,11)           -59.213                                          !
 ! D31   D(4,2,8,9)           -172.6697                                         !
 ! D32   D(4,2,8,10)           -51.508                                          !
 ! D33   D(4,2,8,11)            69.6205                                         !
 ! D34   D(12,2,8,9)           -69.1542                                         !
 ! D35   D(12,2,8,10)           52.0075                                         !
 ! D36   D(12,2,8,11)          173.136                                          !
 ! D37   D(1,2,12,13)           55.1868                                         !
 ! D38   D(1,2,12,14)          176.3219                                         !
 ! D39   D(1,2,12,15)          -62.7732                                         !
 ! D40   D(4,2,12,13)          -68.8623                                         !
 ! D41   D(4,2,12,14)           52.2728                                         !
 ! D42   D(4,2,12,15)          173.1777                                         !
 ! D43   D(8,2,12,13)         -171.6139                                         !
 ! D44   D(8,2,12,14)          -50.4788                                         !
 ! D45   D(8,2,12,15)           70.4261                                         !
 ! D46   D(1,3,16,17)           55.034                                          !
 ! D47   D(1,3,16,18)          176.0225                                         !
 ! D48   D(1,3,16,19)          -63.0619                                         !
 ! D49   D(20,3,16,17)        -172.4572                                         !
 ! D50   D(20,3,16,18)         -51.4687                                         !
 ! D51   D(20,3,16,19)          69.4469                                         !
 ! D52   D(24,3,16,17)         -69.751                                          !
 ! D53   D(24,3,16,18)          51.2375                                         !
 ! D54   D(24,3,16,19)         172.1531                                         !
 ! D55   D(1,3,20,21)         -179.4362                                         !
 ! D56   D(1,3,20,22)          -58.3957                                         !
 ! D57   D(1,3,20,23)           59.3698                                         !
 ! D58   D(16,3,20,21)          52.689                                          !
 ! D59   D(16,3,20,22)         173.7295                                         !
 ! D60   D(16,3,20,23)         -68.505                                          !
 ! D61   D(24,3,20,21)         -50.599                                          !
 ! D62   D(24,3,20,22)          70.4415                                         !
 ! D63   D(24,3,20,23)        -171.793                                          !
 ! D64   D(1,3,24,25)           59.3601                                         !
 ! D65   D(1,3,24,26)         -179.5646                                         !
 ! D66   D(1,3,24,27)          -58.7065                                         !
 ! D67   D(16,3,24,25)        -176.5555                                         !
 ! D68   D(16,3,24,26)         -55.4802                                         !
 ! D69   D(16,3,24,27)          65.3778                                         !
 ! D70   D(20,3,24,25)         -73.454                                          !
 ! D71   D(20,3,24,26)          47.6213                                         !
 ! D72   D(20,3,24,27)         168.4793                                         !
 --------------------------------------------------------------------------------
 NAtoms=     29 NQM=       29 NQMF=       0 NMMI=      0 NMMIF=      0
                NMic=       0 NMicF=      0.
                    Isotopes and Nuclear Properties:
 (Nuclear quadrupole moments (NQMom) in fm**2, nuclear magnetic moments (NMagM)
  in nuclear magnetons)

  Atom         1           2           3           4           5           6           7           8           9          10
 IAtWgt=         195          31          31          12           1           1           1          12           1           1
 AtmWgt= 194.9648000  30.9737634  30.9737634  12.0000000   1.0078250   1.0078250   1.0078250  12.0000000   1.0078250   1.0078250
 NucSpn=           1           1           1           0           1           1           1           0           1           1
 AtZEff=1176.2400000  12.9400000  12.9400000   3.6000000   1.0000000   1.0000000   1.0000000   3.6000000   1.0000000   1.0000000
 NQMom=    0.0000000   0.0000000   0.0000000   0.0000000   0.0000000   0.0000000   0.0000000   0.0000000   0.0000000   0.0000000
 NMagM=    0.6095000   1.1316000   1.1316000   0.0000000   2.7928460   2.7928460   2.7928460   0.0000000   2.7928460   2.7928460
 AtZNuc=  78.0000000  15.0000000  15.0000000   6.0000000   1.0000000   1.0000000   1.0000000   6.0000000   1.0000000   1.0000000

  Atom        11          12          13          14          15          16          17          18          19          20
 IAtWgt=           1          12           1           1           1          12           1           1           1          12
 AtmWgt=   1.0078250  12.0000000   1.0078250   1.0078250   1.0078250  12.0000000   1.0078250   1.0078250   1.0078250  12.0000000
 NucSpn=           1           0           1           1           1           0           1           1           1           0
 AtZEff=   1.0000000   3.6000000   1.0000000   1.0000000   1.0000000   3.6000000   1.0000000   1.0000000   1.0000000   3.6000000
 NQMom=    0.0000000   0.0000000   0.0000000   0.0000000   0.0000000   0.0000000   0.0000000   0.0000000   0.0000000   0.0000000
 NMagM=    2.7928460   0.0000000   2.7928460   2.7928460   2.7928460   0.0000000   2.7928460   2.7928460   2.7928460   0.0000000
 AtZNuc=   1.0000000   6.0000000   1.0000000   1.0000000   1.0000000   6.0000000   1.0000000   1.0000000   1.0000000   6.0000000

  Atom        21          22          23          24          25          26          27          28          29
 IAtWgt=           1           1           1          12           1           1           1           1           1
 AtmWgt=   1.0078250   1.0078250   1.0078250  12.0000000   1.0078250   1.0078250   1.0078250   1.0078250   1.0078250
 NucSpn=           1           1           1           0           1           1           1           1           1
 AtZEff=   1.0000000   1.0000000   1.0000000   3.6000000   1.0000000   1.0000000   1.0000000   1.0000000   1.0000000
 NQMom=    0.0000000   0.0000000   0.0000000   0.0000000   0.0000000   0.0000000   0.0000000   0.0000000   0.0000000
 NMagM=    2.7928460   2.7928460   2.7928460   0.0000000   2.7928460   2.7928460   2.7928460   2.7928460   2.7928460
 AtZNuc=   1.0000000   1.0000000   1.0000000   6.0000000   1.0000000   1.0000000   1.0000000   1.0000000   1.0000000
 Leave Link  101 at Wed Nov  6 10:27:05 2019, MaxMem=   140000000 cpu:               1.6 elap:               0.2
 (Enter /usr/g16/l202.exe)
                          Input orientation:                          
 ---------------------------------------------------------------------
 Center     Atomic      Atomic             Coordinates (Angstroms)
 Number     Number       Type             X           Y           Z
 ---------------------------------------------------------------------
      1         78           0       -0.096282   -0.672311    1.147705
      2         15           0        1.948187   -0.151351    0.333831
      3         15           0       -1.983902   -0.201517   -0.004264
      4          6           0        2.155143    1.602472   -0.185322
      5          1           0        2.016230    2.256712    0.680785
      6          1           0        3.145948    1.783566   -0.617314
      7          1           0        1.386906    1.851662   -0.923835
      8          6           0        3.499211   -0.391864    1.302670
      9          1           0        3.589586   -1.447262    1.578073
     10          1           0        4.389636   -0.088078    0.740013
     11          1           0        3.440620    0.193092    2.225909
     12          6           0        2.384599   -1.037085   -1.218805
     13          1           0        1.606860   -0.856391   -1.966992
     14          1           0        3.352937   -0.708663   -1.613154
     15          1           0        2.422571   -2.113186   -1.024206
     16          6           0       -2.569018    1.534613    0.165968
     17          1           0       -1.761326    2.217052   -0.115439
     18          1           0       -3.443733    1.727830   -0.465296
     19          1           0       -2.829120    1.730304    1.210477
     20          6           0       -3.554767   -1.121864    0.286032
     21          1           0       -4.364289   -0.770722   -0.364346
     22          1           0       -3.386874   -2.188191    0.105010
     23          1           0       -3.852600   -1.000542    1.332062
     24          6           0       -1.853873   -0.347814   -1.834804
     25          1           0       -1.567317   -1.370633   -2.098470
     26          1           0       -2.798294   -0.099530   -2.332607
     27          1           0       -1.070731    0.328030   -2.192402
     28          1           0       -0.655492   -1.509954    2.712155
     29          1           0        0.183585   -1.484175    2.798015
 ---------------------------------------------------------------------
                    Distance matrix (angstroms):
                    1          2          3          4          5
     1  Pt   0.000000
     2  P    2.261336   0.000000
     3  P    2.260927   3.946916   0.000000
     4  C    3.467060   1.840719   4.518722   0.000000
     5  H    3.641414   2.433881   4.744811   1.094289   0.000000
     6  H    4.433810   2.466417   5.534595   1.095951   1.784710
     7  H    3.586302   2.430807   4.052591   1.094388   1.770570
     8  C    3.609742   1.844498   5.639933   2.828077   3.098537
     9  H    3.790961   2.433457   5.926165   3.803691   4.123106
    10  H    4.542136   2.475815   6.417850   2.950790   3.336856
    11  H    3.797515   2.434328   5.878335   3.074546   2.945305
    12  C    3.447927   1.840016   4.610540   2.843940   3.820109
    13  H    3.554703   2.430509   4.144241   3.085607   4.107276
    14  H    4.418232   2.464685   5.597104   2.968966   3.980250
    15  H    3.624630   2.432715   4.910373   3.818554   4.708303
    16  C    3.456695   4.824499   1.839969   4.737689   4.670220
    17  H    3.565995   4.423988   2.431332   3.965012   3.860761
    18  H    4.423559   5.765650   2.462932   5.607273   5.603964
    19  H    3.639355   5.208819   2.433500   5.177594   4.902560
    20  C    3.592450   5.588084   1.843619   6.344072   6.527374
    21  H    4.529002   6.381098   2.473842   6.940251   7.139235
    22  H    3.770027   5.715238   2.434573   6.720667   7.020129
    23  H    3.775136   5.946992   2.432333   6.720945   6.743666
    24  C    3.477037   4.381465   1.840974   4.753590   5.299947
    25  H    3.631700   4.445391   2.434353   5.133828   5.807210
    26  H    4.443143   5.444415   2.468768   5.660758   6.149150
    27  H    3.620296   3.965542   2.429454   4.007347   4.637277
    28  H    1.860609   3.779070   3.294786   5.097277   5.045031
    29  H    1.860370   3.310958   3.767756   4.723847   4.672846
                    6          7          8          9         10
     6  H    0.000000
     7  H    1.786847   0.000000
     8  C    2.922949   3.801654   0.000000
     9  H    3.931258   4.689802   1.094476   0.000000
    10  H    2.625290   3.943015   1.096232   1.786003   0.000000
    11  H    3.271140   4.109681   1.094521   1.769928   1.785378
    12  C    2.982870   3.070384   2.831344   3.072909   2.959350
    13  H    3.340628   2.910346   3.806242   4.104610   3.957528
    14  H    2.691793   3.300865   2.936629   3.284123   2.645235
    15  H    3.984157   4.099109   3.088115   2.928692   3.329095
    16  C    5.773763   4.115522   6.467365   6.986703   7.168369
    17  H    4.951882   3.270837   6.040756   6.702794   6.624180
    18  H    6.591670   4.853932   7.471498   7.982740   8.130926
    19  H    6.248608   4.727038   6.675319   7.171600   7.459108
    20  C    7.359154   5.892857   7.164151   7.267532   8.024235
    21  H    7.936752   6.345562   8.047180   8.215523   8.849678
    22  H    7.679477   6.337816   7.216603   7.168674   8.080087
    23  H    7.780167   6.377817   7.377024   7.459638   8.313697
    24  C    5.569854   4.021220   6.204934   6.518264   6.758591
    25  H    5.861541   4.526631   6.180247   6.333757   6.722144
    26  H    6.467016   4.827803   7.277312   7.610178   7.817126
    27  H    4.730736   3.157640   5.798116   6.251935   6.211908
    28  H    6.031881   5.356517   4.527509   4.394401   5.600392
    29  H    5.578369   5.140813   3.797707   3.618075   4.886239
                   11         12         13         14         15
    11  H    0.000000
    12  C    3.807173   0.000000
    13  H    4.695158   1.094218   0.000000
    14  H    3.944522   1.095924   1.787683   0.000000
    15  H    4.113221   1.094214   1.770244   1.784691   0.000000
    16  C    6.492979   5.750612   5.263494   6.577774   6.295944
    17  H    6.052980   5.384749   4.921279   6.079363   6.089484
    18  H    7.549325   6.494766   5.868712   7.310868   7.034153
    19  H    6.534812   6.383003   6.038644   7.220754   6.880879
    20  C    7.377511   6.127625   5.638172   7.175933   6.199034
    21  H    8.279792   6.807976   6.183076   7.817860   6.949755
    22  H    7.535475   6.032200   5.568147   7.110987   5.918650
    23  H    7.444110   6.738762   6.380458   7.789689   6.794686
    24  C    6.694298   4.338110   3.500400   5.224003   4.696976
    25  H    6.798891   4.062352   3.218249   4.988249   4.198170
    26  H    7.732383   5.383488   4.484628   6.223045   5.746665
    27  H    6.316008   3.840668   2.936521   4.580294   4.418979
    28  H    4.462615   4.991814   5.238301   5.951291   4.878397
    29  H    3.707938   4.602087   5.012497   5.486768   4.474159
                   16         17         18         19         20
    16  C    0.000000
    17  H    1.094202   0.000000
    18  H    1.095880   1.786681   0.000000
    19  H    1.094052   1.770639   1.784928   0.000000
    20  C    2.836016   3.811296   2.949166   3.084806   0.000000
    21  H    2.969647   3.970411   2.664653   3.330457   1.096183
    22  H    3.812069   4.700763   3.957739   4.109471   1.094536
    23  H    3.071542   4.101414   3.292671   2.918872   1.094350
    24  C    2.838671   3.089227   2.951526   3.813584   2.826683
    25  H    3.817268   4.103845   3.973496   4.707132   3.114112
    26  H    2.994306   3.370117   2.691224   3.987818   2.911133
    27  H    3.043454   2.891211   3.251688   4.078957   3.796744
    28  H    4.406136   4.807154   5.324821   4.180786   3.800326
    29  H    4.859792   5.096075   5.841541   4.682899   4.518473
                   21         22         23         24         25
    21  H    0.000000
    22  H    1.784615   0.000000
    23  H    1.786741   1.770047   0.000000
    24  C    2.939946   3.082200   3.801316   0.000000
    25  H    3.345165   2.972291   4.138603   1.094437   0.000000
    26  H    2.603246   3.263573   3.918314   1.096076   1.784890
    27  H    3.923846   4.119951   4.682494   1.094511   1.772253
    28  H    4.875089   3.836359   3.519326   4.843709   4.898259
    29  H    5.585042   4.527261   4.321308   5.187058   5.201357
                   26         27         28         29
    26  H    0.000000
    27  H    1.785200   0.000000
    28  H    5.659551   5.254073   0.000000
    29  H    6.093614   5.455425   0.843852   0.000000
 Stoichiometry    C6H20P2Pt
 Framework group  C1[X(C6H20P2Pt)]
 Deg. of freedom    81
 Full point group                 C1      NOp   1
 RotChk:  IX=0 Diff= 3.56D-15
 Largest Abelian subgroup         C1      NOp   1
 Largest concise Abelian subgroup C1      NOp   1
                         Standard orientation:                         
 ---------------------------------------------------------------------
 Center     Atomic      Atomic             Coordinates (Angstroms)
 Number     Number       Type             X           Y           Z
 ---------------------------------------------------------------------
      1         78           0        0.000694   -0.706298   -0.002624
      2         15           0        1.975867    0.394747    0.003109
      3         15           0       -1.971030    0.400077   -0.008027
      4          6           0        2.157835    1.659268    1.328297
      5          1           0        2.098532    1.171961    2.306296
      6          1           0        3.111161    2.194270    1.250522
      7          1           0        1.333553    2.375627    1.257053
      8          6           0        3.599432   -0.468472    0.148237
      9          1           0        3.701007   -1.181519   -0.675853
     10          1           0        4.443185    0.231049    0.126412
     11          1           0        3.624173   -1.032204    1.086091
     12          6           0        2.272002    1.410294   -1.502423
     13          1           0        1.436708    2.103846   -1.638739
     14          1           0        3.207663    1.976372   -1.430701
     15          1           0        2.314414    0.756282   -2.378650
     16          6           0       -2.521177    0.987522    1.646582
     17          1           0       -1.732378    1.600831    2.092595
     18          1           0       -3.443242    1.575807    1.578253
     19          1           0       -2.691349    0.126929    2.300318
     20          6           0       -3.522141   -0.381048   -0.626758
     21          1           0       -4.379128    0.299725   -0.565601
     22          1           0       -3.381413   -0.687051   -1.668183
     23          1           0       -3.730587   -1.279019   -0.037012
     24          6           0       -1.995336    1.973976   -0.962718
     25          1           0       -1.742768    1.769376   -2.007774
     26          1           0       -2.975163    2.463269   -0.918946
     27          1           0       -1.237409    2.650485   -0.555486
     28          1           0       -0.435430   -2.514924   -0.025710
     29          1           0        0.408111   -2.521507   -0.003739
 ---------------------------------------------------------------------
 Rotational constants (GHZ):           1.2017257           0.4647406           0.4103303
 Leave Link  202 at Wed Nov  6 10:27:05 2019, MaxMem=   140000000 cpu:               0.1 elap:               0.0
 (Enter /usr/g16/l301.exe)
 Standard basis: def2TZVP (5D, 7F)
 Ernie: Thresh=  0.10000D-02 Tol=  0.10000D-05 Strict=F.
 There are   466 symmetry adapted cartesian basis functions of A   symmetry.
 There are   420 symmetry adapted basis functions of A   symmetry.
   420 basis functions,   679 primitive gaussians,   466 cartesian basis functions
    52 alpha electrons       52 beta electrons
       nuclear repulsion energy       838.9546808058 Hartrees.
 IExCor=  419 DFT=T Ex+Corr=B2PLYPD3 ExCW=0 ScaHFX=  0.530000
 ScaDFX=  0.470000  0.470000  0.730000  0.730000 ScalE2=  0.270000  0.270000
 IRadAn=      5 IRanWt=     -1 IRanGd=            0 ICorTp=0 IEmpDi=141
 NAtoms=   29 NActive=   29 NUniq=   29 SFac= 1.00D+00 NAtFMM=   60 NAOKFM=F Big=F
 Integral buffers will be    131072 words long.
 Regular integral format.
 Two-electron integral symmetry is turned on.
 R6Disp:  Grimme-D3(BJ) Dispersion energy=       -0.0304165314 Hartrees.
 Nuclear repulsion after empirical dispersion term =      838.9242642744 Hartrees.
 ------------------------------------------------------------------------------
 Polarizable Continuum Model (PCM)
 =================================
 Model                : PCM.
 Atomic radii         : SMD-Coulomb.
 Polarization charges : Total charges.
 Charge compensation  : None.
 Solution method      : On-the-fly selection.
 Cavity type          : VdW (van der Waals Surface) (Alpha=1.000).
 Cavity algorithm     : GePol (No added spheres)
                        Default sphere list used, NSphG=   29.
                        Lebedev-Laikov grids with approx.  5.0 points / Ang**2.
                        Smoothing algorithm: York/Karplus (Gamma=1.0000).
                        Polarization charges: spherical gaussians, with
                                              point-specific exponents (IZeta= 3).
                        Self-potential: point-specific (ISelfS= 7).
                        Self-field    : sphere-specific E.n sum rule (ISelfD= 2).
 Solvent              : Benzene, Eps=   2.270600 Eps(inf)=   2.253301
 ------------------------------------------------------------------------------
 GePol: Number of generator spheres                  =      29
 GePol: Total number of spheres                      =      29
 GePol: Number of exposed spheres                    =      29 (100.00%)
 GePol: Number of points                             =    2159
 GePol: Average weight of points                     =       0.12
 GePol: Minimum weight of points                     =   0.39D-08
 GePol: Maximum weight of points                     =    0.22001
 GePol: Number of points with low weight             =     126
 GePol: Fraction of low-weight points (<1% of avg)   =       5.84%
 GePol: Cavity surface area                          =    254.827 Ang**2
 GePol: Cavity volume                                =    209.017 Ang**3
 ------------------------------------------------------------------------------
 Atomic radii for non-electrostatic terms: SMD-CDS.
 ------------------------------------------------------------------------------
 PCM non-electrostatic energy =         0.0004031696 Hartrees.
 Nuclear repulsion after PCM non-electrostatic terms =      838.9246674440 Hartrees.
 Leave Link  301 at Wed Nov  6 10:27:05 2019, MaxMem=   140000000 cpu:               1.1 elap:               0.1
 (Enter /usr/g16/l302.exe)
 NPDir=0 NMtPBC=     1 NCelOv=     1 NCel=       1 NClECP=     1 NCelD=      1
         NCelK=      1 NCelE2=     1 NClLst=     1 CellRange=     0.0.
 One-electron integrals computed using PRISM.
 One-electron integral symmetry used in STVInt
   1 Symmetry operations used in ECPInt.
 ECPInt:  NShTT=   17391 NPrTT=   50365 LenC2=   16208 LenP2D=   35494.
 LDataN:  DoStor=T MaxTD1= 8 Len=  415
 NBasis=   420 RedAO= T EigKep=  6.46D-04  NBF=   420
 NBsUse=   420 1.00D-06 EigRej= -1.00D+00 NBFU=   420
 Precomputing XC quadrature grid using
 IXCGrd= 4 IRadAn=           5 IRanWt=          -1 IRanGd=           0 AccXCQ= 0.00D+00.
 Defaulting to unpruned grid for atomic number  78.
 Generated NRdTot=       0 NPtTot=           0 NUsed=           0 NTot=          32
 NSgBfM=   464   464   464   464   464 MxSgAt=    29 MxSgA2=    29.
 Leave Link  302 at Wed Nov  6 10:27:06 2019, MaxMem=   140000000 cpu:              13.6 elap:               1.2
 (Enter /usr/g16/l303.exe)
 DipDrv:  MaxL=1.
 Leave Link  303 at Wed Nov  6 10:27:07 2019, MaxMem=   140000000 cpu:               0.9 elap:               0.1
 (Enter /usr/g16/l401.exe)
 ExpMin= 4.92D-02 ExpMax= 5.24D+04 ExpMxC= 1.79D+03 IAcc=3 IRadAn=         5 AccDes= 0.00D+00
 Harris functional with IExCor=  419 and IRadAn=       5 diagonalized for initial guess.
 HarFok:  IExCor=  419 AccDes= 0.00D+00 IRadAn=         5 IDoV= 1 UseB2=F ITyADJ=14
 ICtDFT=  3500011 ScaDFX=  1.000000  1.000000  1.000000  1.000000
 Defaulting to unpruned grid for atomic number  78.
 FoFCou: FMM=F IPFlag=           0 FMFlag=      100000 FMFlg1=           0
         NFxFlg=           0 DoJE=T BraDBF=F KetDBF=T FulRan=T
         wScrn=  0.000000 ICntrl=       500 IOpCl=  0 I1Cent=   200000004 NGrid=           0
         NMat0=    1 NMatS0=      1 NMatT0=    0 NMatD0=    1 NMtDS0=    0 NMtDT0=    0
 Petite list used in FoFCou.
 Harris En= -1042.87604642277    
 JPrj=0 DoOrth=F DoCkMO=F.
 Leave Link  401 at Wed Nov  6 10:27:11 2019, MaxMem=   140000000 cpu:              52.3 elap:               4.4
 (Enter /usr/g16/l502.exe)
 Integral symmetry usage will be decided dynamically.
 Closed shell SCF:
 Using DIIS extrapolation, IDIIS=  1040.
 NGot=   140000000 LenX=   139555623 LenY=   139338001
 Requested convergence on RMS density matrix=1.00D-08 within 128 cycles.
 Requested convergence on MAX density matrix=1.00D-06.
 Requested convergence on             energy=1.00D-06.
 No special actions if energy rises.
 Fock matrices will be formed incrementally for  20 cycles.

 Cycle   1  Pass 1  IDiag  1:
 FoFJK:  IHMeth= 1 ICntrl=       0 DoSepK=F KAlg= 0 I1Cent=           0 FoldK=F
 IRaf= 880000000 NMat=       1 IRICut=       1 DoRegI=T DoRafI=F ISym2E= 0 IDoP0=0 IntGTp=1.
 FoFCou: FMM=F IPFlag=           0 FMFlag=      100000 FMFlg1=           0
         NFxFlg=           0 DoJE=F BraDBF=F KetDBF=F FulRan=T
         wScrn=  0.000000 ICntrl=         0 IOpCl=  0 I1Cent=           0 NGrid=           0
         NMat0=    1 NMatS0=      1 NMatT0=    0 NMatD0=    1 NMtDS0=    0 NMtDT0=    0
 Symmetry not used in FoFCou.
 Defaulting to unpruned grid for atomic number  78.
 Defaulting to unpruned grid for atomic number  78.
 Defaulting to unpruned grid for atomic number  78.
 Defaulting to unpruned grid for atomic number  78.
 Defaulting to unpruned grid for atomic number  78.
 Defaulting to unpruned grid for atomic number  78.
 Defaulting to unpruned grid for atomic number  78.
 Defaulting to unpruned grid for atomic number  78.
 Defaulting to unpruned grid for atomic number  78.
 Defaulting to unpruned grid for atomic number  78.
 Defaulting to unpruned grid for atomic number  78.
 Defaulting to unpruned grid for atomic number  78.
 Inv3:  Mode=1 IEnd=    13983843.
 Iteration    1 A*A^-1 deviation from unit magnitude is 3.44D-15 for    877.
 Iteration    1 A*A^-1 deviation from orthogonality  is 2.52D-15 for   1870    283.
 Iteration    1 A^-1*A deviation from unit magnitude is 3.22D-15 for    248.
 Iteration    1 A^-1*A deviation from orthogonality  is 3.90D-15 for   2153   1922.
 E= -1040.75719964465    
 DIIS: error= 4.67D-02 at cycle   1 NSaved=   1.
 NSaved= 1 IEnMin= 1 EnMin= -1040.75719964465     IErMin= 1 ErrMin= 4.67D-02
 ErrMax= 4.67D-02  0.00D+00 EMaxC= 1.00D-01 BMatC= 1.11D+00 BMatP= 1.11D+00
 IDIUse=3 WtCom= 5.33D-01 WtEn= 4.67D-01
 Coeff-Com:  0.100D+01
 Coeff-En:   0.100D+01
 Coeff:      0.100D+01
 Gap=     0.502 Goal=   None    Shift=    0.000
 GapD=    0.502 DampG=2.000 DampE=0.250 DampFc=0.5000 IDamp=-1.
 Damping current iteration by 5.00D-01
 RMSDP=3.40D-03 MaxDP=2.66D-01              OVMax= 2.48D-01

 Cycle   2  Pass 1  IDiag  1:
 RMSU=  1.70D-03    CP:  9.95D-01
 E= -1041.16382436590     Delta-E=       -0.406624721247 Rises=F Damp=T
 DIIS: error= 1.13D-02 at cycle   2 NSaved=   2.
 NSaved= 2 IEnMin= 2 EnMin= -1041.16382436590     IErMin= 2 ErrMin= 1.13D-02
 ErrMax= 1.13D-02  0.00D+00 EMaxC= 1.00D-01 BMatC= 7.38D-02 BMatP= 1.11D+00
 IDIUse=3 WtCom= 8.87D-01 WtEn= 1.13D-01
 Coeff-Com:  0.440D-01 0.956D+00
 Coeff-En:   0.939D-01 0.906D+00
 Coeff:      0.496D-01 0.950D+00
 Gap=     0.349 Goal=   None    Shift=    0.000
 RMSDP=1.28D-03 MaxDP=1.85D-01 DE=-4.07D-01 OVMax= 2.35D-01

 Cycle   3  Pass 1  IDiag  1:
 RMSU=  1.12D-03    CP:  9.75D-01  6.54D-01
 E= -1041.59607633364     Delta-E=       -0.432251967742 Rises=F Damp=F
 DIIS: error= 1.33D-02 at cycle   3 NSaved=   3.
 NSaved= 3 IEnMin= 3 EnMin= -1041.59607633364     IErMin= 2 ErrMin= 1.13D-02
 ErrMax= 1.33D-02  0.00D+00 EMaxC= 1.00D-01 BMatC= 5.52D-02 BMatP= 7.38D-02
 IDIUse=3 WtCom= 8.67D-01 WtEn= 1.33D-01
 Coeff-Com: -0.434D-01 0.462D+00 0.581D+00
 Coeff-En:   0.000D+00 0.000D+00 0.100D+01
 Coeff:     -0.376D-01 0.400D+00 0.637D+00
 Gap=     0.258 Goal=   None    Shift=    0.000
 RMSDP=8.09D-04 MaxDP=5.67D-02 DE=-4.32D-01 OVMax= 6.84D-02

 Cycle   4  Pass 1  IDiag  1:
 RMSU=  5.25D-04    CP:  9.76D-01  9.34D-01  6.50D-01
 E= -1041.63034375570     Delta-E=       -0.034267422059 Rises=F Damp=F
 DIIS: error= 5.63D-03 at cycle   4 NSaved=   4.
 NSaved= 4 IEnMin= 4 EnMin= -1041.63034375570     IErMin= 4 ErrMin= 5.63D-03
 ErrMax= 5.63D-03  0.00D+00 EMaxC= 1.00D-01 BMatC= 1.35D-02 BMatP= 5.52D-02
 IDIUse=3 WtCom= 9.44D-01 WtEn= 5.63D-02
 Coeff-Com: -0.204D-02-0.203D-01 0.328D+00 0.695D+00
 Coeff-En:   0.000D+00 0.000D+00 0.207D+00 0.793D+00
 Coeff:     -0.193D-02-0.191D-01 0.321D+00 0.700D+00
 Gap=     0.247 Goal=   None    Shift=    0.000
 RMSDP=2.43D-04 MaxDP=2.79D-02 DE=-3.43D-02 OVMax= 1.96D-02

 Cycle   5  Pass 1  IDiag  1:
 RMSU=  8.88D-05    CP:  9.71D-01  8.63D-01  8.08D-01  8.82D-01
 E= -1041.64050877401     Delta-E=       -0.010165018311 Rises=F Damp=F
 DIIS: error= 4.67D-04 at cycle   5 NSaved=   5.
 NSaved= 5 IEnMin= 5 EnMin= -1041.64050877401     IErMin= 5 ErrMin= 4.67D-04
 ErrMax= 4.67D-04  0.00D+00 EMaxC= 1.00D-01 BMatC= 6.97D-05 BMatP= 1.35D-02
 IDIUse=3 WtCom= 9.95D-01 WtEn= 4.67D-03
 Coeff-Com:  0.240D-02-0.197D-01 0.630D-01 0.162D+00 0.792D+00
 Coeff-En:   0.000D+00 0.000D+00 0.000D+00 0.000D+00 0.100D+01
 Coeff:      0.239D-02-0.196D-01 0.627D-01 0.162D+00 0.793D+00
 Gap=     0.247 Goal=   None    Shift=    0.000
 RMSDP=3.01D-05 MaxDP=3.12D-03 DE=-1.02D-02 OVMax= 2.22D-03

 Cycle   6  Pass 1  IDiag  1:
 RMSU=  2.17D-05    CP:  9.71D-01  8.63D-01  8.15D-01  9.17D-01  1.03D+00
 E= -1041.64059720581     Delta-E=       -0.000088431797 Rises=F Damp=F
 DIIS: error= 8.99D-05 at cycle   6 NSaved=   6.
 NSaved= 6 IEnMin= 6 EnMin= -1041.64059720581     IErMin= 6 ErrMin= 8.99D-05
 ErrMax= 8.99D-05  0.00D+00 EMaxC= 1.00D-01 BMatC= 4.43D-06 BMatP= 6.97D-05
 IDIUse=1 WtCom= 1.00D+00 WtEn= 0.00D+00
 Coeff-Com:  0.752D-03-0.698D-03-0.131D-01-0.324D-01 0.781D-01 0.967D+00
 Coeff:      0.752D-03-0.698D-03-0.131D-01-0.324D-01 0.781D-01 0.967D+00
 Gap=     0.247 Goal=   None    Shift=    0.000
 RMSDP=1.27D-05 MaxDP=1.42D-03 DE=-8.84D-05 OVMax= 1.14D-03

 Cycle   7  Pass 1  IDiag  1:
 RMSU=  5.50D-06    CP:  9.71D-01  8.64D-01  8.19D-01  9.31D-01  1.11D+00
                    CP:  1.11D+00
 E= -1041.64060363876     Delta-E=       -0.000006432951 Rises=F Damp=F
 DIIS: error= 2.19D-05 at cycle   7 NSaved=   7.
 NSaved= 7 IEnMin= 7 EnMin= -1041.64060363876     IErMin= 7 ErrMin= 2.19D-05
 ErrMax= 2.19D-05  0.00D+00 EMaxC= 1.00D-01 BMatC= 3.07D-07 BMatP= 4.43D-06
 IDIUse=1 WtCom= 1.00D+00 WtEn= 0.00D+00
 Coeff-Com:  0.117D-03 0.530D-03-0.600D-02-0.162D-01-0.175D-01 0.232D+00
 Coeff-Com:  0.807D+00
 Coeff:      0.117D-03 0.530D-03-0.600D-02-0.162D-01-0.175D-01 0.232D+00
 Coeff:      0.807D+00
 Gap=     0.247 Goal=   None    Shift=    0.000
 RMSDP=3.29D-06 MaxDP=2.18D-04 DE=-6.43D-06 OVMax= 3.93D-04

 Cycle   8  Pass 1  IDiag  1:
 RMSU=  1.57D-06    CP:  9.71D-01  8.64D-01  8.19D-01  9.34D-01  1.13D+00
                    CP:  1.17D+00  1.07D+00
 E= -1041.64060412963     Delta-E=       -0.000000490867 Rises=F Damp=F
 DIIS: error= 7.51D-06 at cycle   8 NSaved=   8.
 NSaved= 8 IEnMin= 8 EnMin= -1041.64060412963     IErMin= 8 ErrMin= 7.51D-06
 ErrMax= 7.51D-06  0.00D+00 EMaxC= 1.00D-01 BMatC= 3.25D-08 BMatP= 3.07D-07
 IDIUse=1 WtCom= 1.00D+00 WtEn= 0.00D+00
 Coeff-Com: -0.179D-04 0.571D-04 0.706D-03 0.892D-03-0.883D-02-0.732D-01
 Coeff-Com:  0.751D-01 0.101D+01
 Coeff:     -0.179D-04 0.571D-04 0.706D-03 0.892D-03-0.883D-02-0.732D-01
 Coeff:      0.751D-01 0.101D+01
 Gap=     0.247 Goal=   None    Shift=    0.000
 RMSDP=1.18D-06 MaxDP=1.00D-04 DE=-4.91D-07 OVMax= 2.11D-04

 Cycle   9  Pass 1  IDiag  1:
 RMSU=  3.31D-07    CP:  9.71D-01  8.64D-01  8.19D-01  9.34D-01  1.13D+00
                    CP:  1.19D+00  1.20D+00  1.26D+00
 E= -1041.64060419858     Delta-E=       -0.000000068954 Rises=F Damp=F
 DIIS: error= 1.44D-06 at cycle   9 NSaved=   9.
 NSaved= 9 IEnMin= 9 EnMin= -1041.64060419858     IErMin= 9 ErrMin= 1.44D-06
 ErrMax= 1.44D-06  0.00D+00 EMaxC= 1.00D-01 BMatC= 9.94D-10 BMatP= 3.25D-08
 IDIUse=1 WtCom= 1.00D+00 WtEn= 0.00D+00
 Coeff-Com: -0.206D-05-0.410D-04 0.447D-03 0.113D-02 0.702D-03-0.204D-01
 Coeff-Com: -0.362D-01 0.453D-01 0.101D+01
 Coeff:     -0.206D-05-0.410D-04 0.447D-03 0.113D-02 0.702D-03-0.204D-01
 Coeff:     -0.362D-01 0.453D-01 0.101D+01
 Gap=     0.247 Goal=   None    Shift=    0.000
 RMSDP=2.64D-07 MaxDP=3.19D-05 DE=-6.90D-08 OVMax= 6.29D-05

 Cycle  10  Pass 1  IDiag  1:
 RMSU=  1.16D-07    CP:  9.71D-01  8.64D-01  8.19D-01  9.34D-01  1.13D+00
                    CP:  1.20D+00  1.23D+00  1.34D+00  1.27D+00
 E= -1041.64060420220     Delta-E=       -0.000000003615 Rises=F Damp=F
 DIIS: error= 6.95D-07 at cycle  10 NSaved=  10.
 NSaved=10 IEnMin=10 EnMin= -1041.64060420220     IErMin=10 ErrMin= 6.95D-07
 ErrMax= 6.95D-07  0.00D+00 EMaxC= 1.00D-01 BMatC= 3.23D-10 BMatP= 9.94D-10
 IDIUse=1 WtCom= 1.00D+00 WtEn= 0.00D+00
 Coeff-Com: -0.165D-05-0.176D-04 0.124D-03 0.416D-03 0.905D-03-0.242D-02
 Coeff-Com: -0.186D-01-0.603D-01 0.388D+00 0.692D+00
 Coeff:     -0.165D-05-0.176D-04 0.124D-03 0.416D-03 0.905D-03-0.242D-02
 Coeff:     -0.186D-01-0.603D-01 0.388D+00 0.692D+00
 Gap=     0.247 Goal=   None    Shift=    0.000
 RMSDP=6.14D-08 MaxDP=7.00D-06 DE=-3.62D-09 OVMax= 1.34D-05

 Cycle  11  Pass 1  IDiag  1:
 RMSU=  3.77D-08    CP:  9.71D-01  8.64D-01  8.19D-01  9.34D-01  1.13D+00
                    CP:  1.20D+00  1.24D+00  1.36D+00  1.37D+00  1.00D+00
 E= -1041.64060420265     Delta-E=       -0.000000000452 Rises=F Damp=F
 DIIS: error= 2.50D-07 at cycle  11 NSaved=  11.
 NSaved=11 IEnMin=11 EnMin= -1041.64060420265     IErMin=11 ErrMin= 2.50D-07
 ErrMax= 2.50D-07  0.00D+00 EMaxC= 1.00D-01 BMatC= 2.73D-11 BMatP= 3.23D-10
 IDIUse=1 WtCom= 1.00D+00 WtEn= 0.00D+00
 Coeff-Com: -0.156D-05 0.703D-05-0.487D-04-0.905D-04 0.779D-05 0.282D-02
 Coeff-Com:  0.223D-02-0.157D-01-0.832D-01 0.101D+00 0.993D+00
 Coeff:     -0.156D-05 0.703D-05-0.487D-04-0.905D-04 0.779D-05 0.282D-02
 Coeff:      0.223D-02-0.157D-01-0.832D-01 0.101D+00 0.993D+00
 Gap=     0.247 Goal=   None    Shift=    0.000
 RMSDP=2.97D-08 MaxDP=3.61D-06 DE=-4.52D-10 OVMax= 7.12D-06

 Cycle  12  Pass 1  IDiag  1:
 RMSU=  1.19D-08    CP:  9.71D-01  8.64D-01  8.19D-01  9.34D-01  1.13D+00
                    CP:  1.20D+00  1.24D+00  1.36D+00  1.41D+00  1.15D+00
                    CP:  1.22D+00
 E= -1041.64060420272     Delta-E=       -0.000000000073 Rises=F Damp=F
 DIIS: error= 6.50D-08 at cycle  12 NSaved=  12.
 NSaved=12 IEnMin=12 EnMin= -1041.64060420272     IErMin=12 ErrMin= 6.50D-08
 ErrMax= 6.50D-08  0.00D+00 EMaxC= 1.00D-01 BMatC= 1.01D-12 BMatP= 2.73D-11
 IDIUse=1 WtCom= 1.00D+00 WtEn= 0.00D+00
 Coeff-Com:  0.200D-06 0.844D-06-0.925D-05-0.299D-04-0.366D-04 0.236D-03
 Coeff-Com:  0.827D-03 0.203D-02-0.202D-01-0.307D-01 0.325D-01 0.102D+01
 Coeff:      0.200D-06 0.844D-06-0.925D-05-0.299D-04-0.366D-04 0.236D-03
 Coeff:      0.827D-03 0.203D-02-0.202D-01-0.307D-01 0.325D-01 0.102D+01
 Gap=     0.247 Goal=   None    Shift=    0.000
 RMSDP=7.38D-09 MaxDP=7.80D-07 DE=-7.32D-11 OVMax= 1.65D-06

 Error on total polarization charges =  0.04838
 SCF Done:  E(RB2PLYPD3) =  -1041.64060420     A.U. after   12 cycles
            NFock= 12  Conv=0.74D-08     -V/T= 2.0838
 KE= 9.610701470163D+02 PE=-4.107043207278D+03 EE= 1.265407788615D+03
 SMD-CDS (non-electrostatic) energy       (kcal/mol) =       0.25
 (included in total energy above)
 Leave Link  502 at Wed Nov  6 10:30:38 2019, MaxMem=   140000000 cpu:            2467.6 elap:             207.2
 (Enter /usr/g16/l801.exe)
 DoSCS=T DFT=T ScalE2(SS,OS)=  0.270000  0.270000
 ExpMin= 4.92D-02 ExpMax= 5.24D+04 ExpMxC= 1.79D+03 IAcc=3 IRadAn=         5 AccDes= 0.00D+00
 HarFok:  IExCor=  205 AccDes= 0.00D+00 IRadAn=         5 IDoV=-2 UseB2=F ITyADJ=14
 ICtDFT= 12500011 ScaDFX=  1.000000  1.000000  1.000000  1.000000
 Defaulting to unpruned grid for atomic number  78.
 Largest valence mixing into a core orbital is  1.85D-04
 Largest core mixing into a valence orbital is  7.95D-05
 Range of M.O.s used for correlation:    17   420
 NBasis=   420 NAE=    52 NBE=    52 NFC=    16 NFV=     0
 NROrb=    404 NOA=    36 NOB=    36 NVA=   368 NVB=   368
 Leave Link  801 at Wed Nov  6 10:30:38 2019, MaxMem=   140000000 cpu:               1.8 elap:               0.2
 (Enter /usr/g16/l906.exe)
 DoSCS=T DFT=T ScalE2(SS,OS)=  0.270000  0.270000
 FulOut=F Deriv=F AODrv=F NAtomX=    29
   MMem=           1  MDisk=          36 MDiskD=          36
  W3Min=     6173568 MinDsk=     6771323 NBas6D=         466
 NBas2D=      109657    NTT=      108811    LW2=     2000000
    MDV=   138959650 MDiskM=        1469 NBas2p=       93329
 Disk-based method using OVN memory for 36 occupieds at a time.
 Estimated scratch disk usage=  3195224000 words.
 IMap=   1   2   3   4   5   6   7   8   9  10  11  12  13  14  15  16  17  18  19  20
 IMap=  21  22  23  24  25  26  27  28  29  30  31  32  33  34  35  36
 Actual    scratch disk usage=  3098338240 words.
 JobTyp=1 Pass  1:  I=   1 to  36 NPSUse= 12 ParTrn=T ParDer=T DoDerP=F.
 Spin components of T(2) and E(2):
     alpha-alpha T2 =       0.1430038676D+00 E2=     -0.8296036168D-01
     alpha-beta  T2 =       0.7324487755D+00 E2=     -0.4588012568D+00
     beta-beta   T2 =       0.1430038676D+00 E2=     -0.8296036168D-01
 The integrals were generated   1 times.
 E2(B2PLYPD3) =    -0.6247219802D+00 E(B2PLYPD3) =    -0.10422653261829D+04
 Leave Link  906 at Wed Nov  6 10:35:29 2019, MaxMem=   140000000 cpu:            3487.3 elap:             291.1
 (Enter /usr/g16/l601.exe)
 Copying SCF densities to generalized density rwf, IOpCl= 0 IROHF=0.

 **********************************************************************

            Population analysis using the SCF density.

 **********************************************************************

 Orbital symmetries:
       Occupied  (A) (A) (A) (A) (A) (A) (A) (A) (A) (A) (A) (A)
                 (A) (A) (A) (A) (A) (A) (A) (A) (A) (A) (A) (A)
                 (A) (A) (A) (A) (A) (A) (A) (A) (A) (A) (A) (A)
                 (A) (A) (A) (A) (A) (A) (A) (A) (A) (A) (A) (A)
                 (A) (A) (A) (A)
       Virtual   (A) (A) (A) (A) (A) (A) (A) (A) (A) (A) (A) (A)
                 (A) (A) (A) (A) (A) (A) (A) (A) (A) (A) (A) (A)
                 (A) (A) (A) (A) (A) (A) (A) (A) (A) (A) (A) (A)
                 (A) (A) (A) (A) (A) (A) (A) (A) (A) (A) (A) (A)
                 (A) (A) (A) (A) (A) (A) (A) (A) (A) (A) (A) (A)
                 (A) (A) (A) (A) (A) (A) (A) (A) (A) (A) (A) (A)
                 (A) (A) (A) (A) (A) (A) (A) (A) (A) (A) (A) (A)
                 (A) (A) (A) (A) (A) (A) (A) (A) (A) (A) (A) (A)
                 (A) (A) (A) (A) (A) (A) (A) (A) (A) (A) (A) (A)
                 (A) (A) (A) (A) (A) (A) (A) (A) (A) (A) (A) (A)
                 (A) (A) (A) (A) (A) (A) (A) (A) (A) (A) (A) (A)
                 (A) (A) (A) (A) (A) (A) (A) (A) (A) (A) (A) (A)
                 (A) (A) (A) (A) (A) (A) (A) (A) (A) (A) (A) (A)
                 (A) (A) (A) (A) (A) (A) (A) (A) (A) (A) (A) (A)
                 (A) (A) (A) (A) (A) (A) (A) (A) (A) (A) (A) (A)
                 (A) (A) (A) (A) (A) (A) (A) (A) (A) (A) (A) (A)
                 (A) (A) (A) (A) (A) (A) (A) (A) (A) (A) (A) (A)
                 (A) (A) (A) (A) (A) (A) (A) (A) (A) (A) (A) (A)
                 (A) (A) (A) (A) (A) (A) (A) (A) (A) (A) (A) (A)
                 (A) (A) (A) (A) (A) (A) (A) (A) (A) (A) (A) (A)
                 (A) (A) (A) (A) (A) (A) (A) (A) (A) (A) (A) (A)
                 (A) (A) (A) (A) (A) (A) (A) (A) (A) (A) (A) (A)
                 (A) (A) (A) (A) (A) (A) (A) (A) (A) (A) (A) (A)
                 (A) (A) (A) (A) (A) (A) (A) (A) (A) (A) (A) (A)
                 (A) (A) (A) (A) (A) (A) (A) (A) (A) (A) (A) (A)
                 (A) (A) (A) (A) (A) (A) (A) (A) (A) (A) (A) (A)
                 (A) (A) (A) (A) (A) (A) (A) (A) (A) (A) (A) (A)
                 (A) (A) (A) (A) (A) (A) (A) (A) (A) (A) (A) (A)
                 (A) (A) (A) (A) (A) (A) (A) (A) (A) (A) (A) (A)
                 (A) (A) (A) (A) (A) (A) (A) (A) (A) (A) (A) (A)
                 (A) (A) (A) (A) (A) (A) (A) (A)
 The electronic state is 1-A.
 Alpha  occ. eigenvalues --  -78.27135 -78.27104 -10.59970 -10.59958 -10.59936
 Alpha  occ. eigenvalues --  -10.59924 -10.59725 -10.59672  -6.93614  -6.93582
 Alpha  occ. eigenvalues --   -4.98779  -4.98752  -4.98746  -4.98721  -4.98533
 Alpha  occ. eigenvalues --   -4.98501  -4.08442  -2.27505  -2.27113  -2.25558
 Alpha  occ. eigenvalues --   -0.86863  -0.86667  -0.78759  -0.78678  -0.78572
 Alpha  occ. eigenvalues --   -0.78480  -0.62048  -0.61079  -0.53569  -0.50450
 Alpha  occ. eigenvalues --   -0.50014  -0.48915  -0.48538  -0.48500  -0.48420
 Alpha  occ. eigenvalues --   -0.46137  -0.45888  -0.45825  -0.45687  -0.44264
 Alpha  occ. eigenvalues --   -0.44207  -0.38972  -0.38412  -0.38296  -0.38248
 Alpha  occ. eigenvalues --   -0.37692  -0.35872  -0.27865  -0.27540  -0.25410
 Alpha  occ. eigenvalues --   -0.23257  -0.21447
 Alpha virt. eigenvalues --    0.03252   0.06757   0.08762   0.09766   0.10803
 Alpha virt. eigenvalues --    0.11158   0.11943   0.12275   0.13003   0.13607
 Alpha virt. eigenvalues --    0.14101   0.14313   0.14659   0.14816   0.15725
 Alpha virt. eigenvalues --    0.16827   0.17707   0.18497   0.18727   0.18903
 Alpha virt. eigenvalues --    0.19208   0.19278   0.19481   0.19716   0.19786
 Alpha virt. eigenvalues --    0.20006   0.21841   0.22919   0.23601   0.24903
 Alpha virt. eigenvalues --    0.25154   0.26124   0.26300   0.26840   0.29582
 Alpha virt. eigenvalues --    0.30657   0.31100   0.32069   0.32224   0.32506
 Alpha virt. eigenvalues --    0.34031   0.34361   0.35492   0.35626   0.37952
 Alpha virt. eigenvalues --    0.39710   0.40487   0.41314   0.42198   0.42767
 Alpha virt. eigenvalues --    0.43635   0.44116   0.44422   0.44568   0.45956
 Alpha virt. eigenvalues --    0.46671   0.47042   0.47260   0.48031   0.48357
 Alpha virt. eigenvalues --    0.48889   0.49877   0.50389   0.51678   0.52184
 Alpha virt. eigenvalues --    0.53046   0.53210   0.53360   0.53860   0.55028
 Alpha virt. eigenvalues --    0.55124   0.55834   0.56639   0.56936   0.57531
 Alpha virt. eigenvalues --    0.58424   0.59134   0.60332   0.61661   0.62445
 Alpha virt. eigenvalues --    0.63611   0.65491   0.67647   0.68212   0.69353
 Alpha virt. eigenvalues --    0.71729   0.73257   0.73757   0.76066   0.76788
 Alpha virt. eigenvalues --    0.78308   0.78991   0.79986   0.81526   0.81681
 Alpha virt. eigenvalues --    0.82980   0.83540   0.84628   0.84658   0.86755
 Alpha virt. eigenvalues --    0.87750   0.88482   0.90672   0.92332   0.94285
 Alpha virt. eigenvalues --    0.96404   0.99070   0.99171   0.99391   1.00228
 Alpha virt. eigenvalues --    1.03351   1.03775   1.05019   1.05945   1.07201
 Alpha virt. eigenvalues --    1.09091   1.11889   1.12311   1.12645   1.13072
 Alpha virt. eigenvalues --    1.14434   1.15047   1.15537   1.16280   1.17110
 Alpha virt. eigenvalues --    1.17317   1.18231   1.18833   1.20759   1.27406
 Alpha virt. eigenvalues --    1.34355   1.38443   1.39543   1.40486   1.43635
 Alpha virt. eigenvalues --    1.47654   1.49451   1.50719   1.51485   1.52584
 Alpha virt. eigenvalues --    1.53627   1.56027   1.56064   1.58464   1.60355
 Alpha virt. eigenvalues --    1.61258   1.61320   1.61725   1.61825   1.62746
 Alpha virt. eigenvalues --    1.63042   1.63404   1.63780   1.64274   1.64847
 Alpha virt. eigenvalues --    1.65191   1.65736   1.66468   1.67015   1.67443
 Alpha virt. eigenvalues --    1.67722   1.68601   1.69687   1.69833   1.70398
 Alpha virt. eigenvalues --    1.71043   1.71132   1.71524   1.71938   1.72002
 Alpha virt. eigenvalues --    1.72973   1.73224   1.74087   1.75070   1.75495
 Alpha virt. eigenvalues --    1.75800   1.75967   1.76451   1.76559   1.76883
 Alpha virt. eigenvalues --    1.77816   1.78255   1.78775   1.79930   1.87104
 Alpha virt. eigenvalues --    1.89990   1.96272   1.97262   1.97600   1.98259
 Alpha virt. eigenvalues --    1.99465   2.01282   2.04296   2.04796   2.05211
 Alpha virt. eigenvalues --    2.05938   2.07791   2.12194   2.13198   2.13719
 Alpha virt. eigenvalues --    2.13861   2.14273   2.14715   2.17301   2.17307
 Alpha virt. eigenvalues --    2.18131   2.18727   2.19113   2.19994   2.21002
 Alpha virt. eigenvalues --    2.21976   2.22147   2.24750   2.27677   2.29189
 Alpha virt. eigenvalues --    2.29503   2.30787   2.31302   2.32931   2.40071
 Alpha virt. eigenvalues --    2.40891   2.41319   2.41815   2.42072   2.43005
 Alpha virt. eigenvalues --    2.43437   2.45095   2.46036   2.46571   2.48083
 Alpha virt. eigenvalues --    2.48479   2.50189   2.51614   2.51671   2.53658
 Alpha virt. eigenvalues --    2.54143   2.55332   2.59460   2.60319   2.61489
 Alpha virt. eigenvalues --    2.62673   2.64073   2.65083   2.65279   2.66460
 Alpha virt. eigenvalues --    2.67158   2.68671   2.69865   2.69935   2.72090
 Alpha virt. eigenvalues --    2.72766   2.73292   2.73624   2.74465   2.74840
 Alpha virt. eigenvalues --    2.75827   2.76709   2.76984   2.77906   2.78811
 Alpha virt. eigenvalues --    2.81780   2.85838   2.87474   2.87796   2.87854
 Alpha virt. eigenvalues --    2.95423   2.95881   2.97031   2.97807   3.00708
 Alpha virt. eigenvalues --    3.01943   3.06653   3.07355   3.09309   3.10324
 Alpha virt. eigenvalues --    3.16540   3.22643   3.22851   3.22934   3.24346
 Alpha virt. eigenvalues --    3.26374   3.26996   3.27595   3.28988   3.30719
 Alpha virt. eigenvalues --    3.32155   3.33042   3.33220   3.33646   3.36004
 Alpha virt. eigenvalues --    3.36234   3.41852   3.42577   3.43070   3.43383
 Alpha virt. eigenvalues --    3.43863   3.44209   3.48844   3.48882   3.49607
 Alpha virt. eigenvalues --    3.49756   3.50027   3.50841   3.60937   3.61310
 Alpha virt. eigenvalues --    3.62010   3.62175   3.63535   3.65351   3.66272
 Alpha virt. eigenvalues --    3.66394   3.66886   3.67099   3.67406   3.68306
 Alpha virt. eigenvalues --    3.71864   3.72322   3.72694   3.73043   3.75038
 Alpha virt. eigenvalues --    3.75617   3.75835   3.76195   3.76466   3.77034
 Alpha virt. eigenvalues --    3.83812   3.84517   3.85118   3.85575   3.92413
 Alpha virt. eigenvalues --    3.92507   4.37233   4.38027   4.39389   4.40191
 Alpha virt. eigenvalues --    4.40256   4.40408   4.40948   4.42190   4.45043
 Alpha virt. eigenvalues --    4.45412   4.45611   4.46877   4.52338   4.53570
 Alpha virt. eigenvalues --    4.57873   4.58451   4.59181   4.59483   7.96296
 Alpha virt. eigenvalues --    7.96671   8.01418   8.02278   8.03017   8.07966
 Alpha virt. eigenvalues --   15.59178  15.64525  22.70836  22.71700  22.72186
 Alpha virt. eigenvalues --   22.72374  22.73269  22.74807  27.09933  31.35221
 Alpha virt. eigenvalues --   33.99787  51.96659 282.53605
          Condensed to atoms (all electrons):
               1          2          3          4          5          6
     1  Pt  17.585486   0.346557   0.345865  -0.048269  -0.000321   0.008202
     2  P    0.346557  13.769361  -0.039167   0.322346  -0.025274  -0.032894
     3  P    0.345865  -0.039167  13.776012  -0.002160   0.000094   0.000001
     4  C   -0.048269   0.322346  -0.002160   5.050912   0.397960   0.391595
     5  H   -0.000321  -0.025274   0.000094   0.397960   0.525003  -0.022927
     6  H    0.008202  -0.032894   0.000001   0.391595  -0.022927   0.558105
     7  H   -0.004029  -0.025809   0.000474   0.398182  -0.016016  -0.023707
     8  C   -0.044574   0.316758   0.002458  -0.048167  -0.000527  -0.006498
     9  H    0.001090  -0.024128  -0.000093   0.005416  -0.000165  -0.000106
    10  H    0.007126  -0.034415  -0.000109  -0.005975  -0.000090   0.005586
    11  H    0.000793  -0.023487  -0.000087  -0.000924   0.001169  -0.000019
    12  C   -0.043279   0.323919  -0.000848  -0.036628   0.005123  -0.007068
    13  H   -0.003994  -0.024834  -0.000071  -0.000178  -0.000172   0.000103
    14  H    0.008254  -0.032392  -0.000041  -0.006932  -0.000176   0.005253
    15  H   -0.001036  -0.025595   0.000106   0.005118  -0.000123  -0.000162
    16  C   -0.035144   0.000944   0.321781   0.000382   0.000031  -0.000008
    17  H   -0.003925  -0.000089  -0.025116   0.000084  -0.000039   0.000019
    18  H    0.008072  -0.000090  -0.032002  -0.000011  -0.000000  -0.000000
    19  H   -0.001762  -0.000026  -0.025663   0.000040  -0.000005  -0.000001
    20  C   -0.044500   0.002640   0.314288  -0.000073  -0.000002   0.000003
    21  H    0.007240  -0.000113  -0.033985   0.000002   0.000000  -0.000000
    22  H    0.000382  -0.000089  -0.023237   0.000000   0.000000  -0.000000
    23  H    0.001428  -0.000113  -0.024002   0.000003  -0.000000  -0.000000
    24  C   -0.053294  -0.003967   0.324154   0.000723   0.000012  -0.000051
    25  H    0.000828   0.000064  -0.025448   0.000010  -0.000000   0.000001
    26  H    0.007872   0.000067  -0.033796  -0.000049   0.000001   0.000001
    27  H   -0.003880   0.000467  -0.026152  -0.000054  -0.000009   0.000019
    28  H    0.065973  -0.026465   0.016561   0.000574   0.000013  -0.000026
    29  H    0.066322   0.015152  -0.027222   0.000703  -0.000044  -0.000005
               7          8          9         10         11         12
     1  Pt  -0.004029  -0.044574   0.001090   0.007126   0.000793  -0.043279
     2  P   -0.025809   0.316758  -0.024128  -0.034415  -0.023487   0.323919
     3  P    0.000474   0.002458  -0.000093  -0.000109  -0.000087  -0.000848
     4  C    0.398182  -0.048167   0.005416  -0.005975  -0.000924  -0.036628
     5  H   -0.016016  -0.000527  -0.000165  -0.000090   0.001169   0.005123
     6  H   -0.023707  -0.006498  -0.000106   0.005586  -0.000019  -0.007068
     7  H    0.536494   0.005591  -0.000136  -0.000170  -0.000135  -0.000248
     8  C    0.005591   5.083501   0.394350   0.382909   0.394013  -0.046414
     9  H   -0.000136   0.394350   0.529469  -0.022666  -0.015586  -0.001012
    10  H   -0.000170   0.382909  -0.022666   0.575091  -0.023048  -0.006051
    11  H   -0.000135   0.394013  -0.015586  -0.023048   0.529960   0.005303
    12  C   -0.000248  -0.046414  -0.001012  -0.006051   0.005303   5.042764
    13  H    0.001010   0.005486  -0.000127  -0.000164  -0.000129   0.399322
    14  H    0.000041  -0.006777   0.000033   0.005509  -0.000116   0.391318
    15  H   -0.000156  -0.000407   0.001222  -0.000059  -0.000164   0.398268
    16  C   -0.000087  -0.000099   0.000001   0.000003   0.000005   0.000146
    17  H    0.000345   0.000012  -0.000000  -0.000000  -0.000001  -0.000008
    18  H    0.000000   0.000002  -0.000000  -0.000000  -0.000000  -0.000004
    19  H   -0.000001   0.000002   0.000000  -0.000000  -0.000000  -0.000002
    20  C    0.000021  -0.000005   0.000000   0.000000  -0.000000  -0.000168
    21  H   -0.000000   0.000000  -0.000000  -0.000000  -0.000000   0.000005
    22  H   -0.000000  -0.000000  -0.000000  -0.000000   0.000000   0.000011
    23  H   -0.000001   0.000000   0.000000  -0.000000  -0.000000   0.000003
    24  C   -0.000207  -0.000090   0.000004   0.000001   0.000001   0.001058
    25  H   -0.000010  -0.000005  -0.000000   0.000000   0.000000  -0.000147
    26  H    0.000019   0.000004  -0.000000  -0.000000  -0.000000  -0.000045
    27  H    0.000844   0.000019  -0.000001  -0.000000  -0.000000  -0.000252
    28  H   -0.000007   0.000362  -0.000014  -0.000065   0.000015   0.000748
    29  H   -0.000011  -0.006013   0.000766   0.000291   0.000597   0.000523
              13         14         15         16         17         18
     1  Pt  -0.003994   0.008254  -0.001036  -0.035144  -0.003925   0.008072
     2  P   -0.024834  -0.032392  -0.025595   0.000944  -0.000089  -0.000090
     3  P   -0.000071  -0.000041   0.000106   0.321781  -0.025116  -0.032002
     4  C   -0.000178  -0.006932   0.005118   0.000382   0.000084  -0.000011
     5  H   -0.000172  -0.000176  -0.000123   0.000031  -0.000039  -0.000000
     6  H    0.000103   0.005253  -0.000162  -0.000008   0.000019  -0.000000
     7  H    0.001010   0.000041  -0.000156  -0.000087   0.000345   0.000000
     8  C    0.005486  -0.006777  -0.000407  -0.000099   0.000012   0.000002
     9  H   -0.000127   0.000033   0.001222   0.000001  -0.000000  -0.000000
    10  H   -0.000164   0.005509  -0.000059   0.000003  -0.000000  -0.000000
    11  H   -0.000129  -0.000116  -0.000164   0.000005  -0.000001  -0.000000
    12  C    0.399322   0.391318   0.398268   0.000146  -0.000008  -0.000004
    13  H    0.530192  -0.023808  -0.015165  -0.000018  -0.000002  -0.000001
    14  H   -0.023808   0.559846  -0.022999  -0.000001  -0.000001   0.000000
    15  H   -0.015165  -0.022999   0.524801  -0.000005   0.000001   0.000000
    16  C   -0.000018  -0.000001  -0.000005   5.035637   0.399338   0.390584
    17  H   -0.000002  -0.000001   0.000001   0.399338   0.528621  -0.023864
    18  H   -0.000001   0.000000   0.000000   0.390584  -0.023864   0.561056
    19  H    0.000001   0.000000   0.000000   0.399350  -0.015086  -0.023030
    20  C    0.000019   0.000004   0.000003  -0.038024   0.005409  -0.007877
    21  H   -0.000001  -0.000000  -0.000000  -0.007240  -0.000155   0.005767
    22  H   -0.000002  -0.000000  -0.000001   0.005118  -0.000131  -0.000123
    23  H   -0.000000  -0.000000   0.000000  -0.001620  -0.000126   0.000175
    24  C    0.000104  -0.000064  -0.000002  -0.038644  -0.000388  -0.006401
    25  H   -0.000089   0.000011   0.000002   0.005111  -0.000177  -0.000196
    26  H    0.000069   0.000002  -0.000001  -0.006946   0.000154   0.005242
    27  H    0.000320   0.000005   0.000014  -0.000366   0.001121  -0.000040
    28  H   -0.000020  -0.000030   0.000000  -0.000296  -0.000006   0.000022
    29  H   -0.000020  -0.000001  -0.000035   0.000972  -0.000024  -0.000036
              19         20         21         22         23         24
     1  Pt  -0.001762  -0.044500   0.007240   0.000382   0.001428  -0.053294
     2  P   -0.000026   0.002640  -0.000113  -0.000089  -0.000113  -0.003967
     3  P   -0.025663   0.314288  -0.033985  -0.023237  -0.024002   0.324154
     4  C    0.000040  -0.000073   0.000002   0.000000   0.000003   0.000723
     5  H   -0.000005  -0.000002   0.000000   0.000000  -0.000000   0.000012
     6  H   -0.000001   0.000003  -0.000000  -0.000000  -0.000000  -0.000051
     7  H   -0.000001   0.000021  -0.000000  -0.000000  -0.000001  -0.000207
     8  C    0.000002  -0.000005   0.000000  -0.000000   0.000000  -0.000090
     9  H    0.000000   0.000000  -0.000000  -0.000000   0.000000   0.000004
    10  H   -0.000000   0.000000  -0.000000  -0.000000  -0.000000   0.000001
    11  H   -0.000000  -0.000000  -0.000000   0.000000  -0.000000   0.000001
    12  C   -0.000002  -0.000168   0.000005   0.000011   0.000003   0.001058
    13  H    0.000001   0.000019  -0.000001  -0.000002  -0.000000   0.000104
    14  H    0.000000   0.000004  -0.000000  -0.000000  -0.000000  -0.000064
    15  H    0.000000   0.000003  -0.000000  -0.000001   0.000000  -0.000002
    16  C    0.399350  -0.038024  -0.007240   0.005118  -0.001620  -0.038644
    17  H   -0.015086   0.005409  -0.000155  -0.000131  -0.000126  -0.000388
    18  H   -0.023030  -0.007877   0.005767  -0.000123   0.000175  -0.006401
    19  H    0.523963  -0.000690   0.000050  -0.000153   0.001313   0.005215
    20  C   -0.000690   5.081786   0.383357   0.394470   0.393706  -0.051730
    21  H    0.000050   0.383357   0.573086  -0.023391  -0.021782  -0.005362
    22  H   -0.000153   0.394470  -0.023391   0.529068  -0.015445  -0.000813
    23  H    0.001313   0.393706  -0.021782  -0.015445   0.529193   0.005657
    24  C    0.005215  -0.051730  -0.005362  -0.000813   0.005657   5.060773
    25  H   -0.000122  -0.000460  -0.000105   0.001104  -0.000172   0.398048
    26  H   -0.000159  -0.005701   0.005437  -0.000039  -0.000115   0.392431
    27  H   -0.000138   0.005488  -0.000169  -0.000126  -0.000139   0.397936
    28  H    0.000067  -0.006048   0.000279   0.000377   0.001161   0.000937
    29  H   -0.000025   0.000600  -0.000065   0.000028  -0.000085   0.000408
              25         26         27         28         29
     1  Pt   0.000828   0.007872  -0.003880   0.065973   0.066322
     2  P    0.000064   0.000067   0.000467  -0.026465   0.015152
     3  P   -0.025448  -0.033796  -0.026152   0.016561  -0.027222
     4  C    0.000010  -0.000049  -0.000054   0.000574   0.000703
     5  H   -0.000000   0.000001  -0.000009   0.000013  -0.000044
     6  H    0.000001   0.000001   0.000019  -0.000026  -0.000005
     7  H   -0.000010   0.000019   0.000844  -0.000007  -0.000011
     8  C   -0.000005   0.000004   0.000019   0.000362  -0.006013
     9  H   -0.000000  -0.000000  -0.000001  -0.000014   0.000766
    10  H    0.000000  -0.000000  -0.000000  -0.000065   0.000291
    11  H    0.000000  -0.000000  -0.000000   0.000015   0.000597
    12  C   -0.000147  -0.000045  -0.000252   0.000748   0.000523
    13  H   -0.000089   0.000069   0.000320  -0.000020  -0.000020
    14  H    0.000011   0.000002   0.000005  -0.000030  -0.000001
    15  H    0.000002  -0.000001   0.000014   0.000000  -0.000035
    16  C    0.005111  -0.006946  -0.000366  -0.000296   0.000972
    17  H   -0.000177   0.000154   0.001121  -0.000006  -0.000024
    18  H   -0.000196   0.005242  -0.000040   0.000022  -0.000036
    19  H   -0.000122  -0.000159  -0.000138   0.000067  -0.000025
    20  C   -0.000460  -0.005701   0.005488  -0.006048   0.000600
    21  H   -0.000105   0.005437  -0.000169   0.000279  -0.000065
    22  H    0.001104  -0.000039  -0.000126   0.000377   0.000028
    23  H   -0.000172  -0.000115  -0.000139   0.001161  -0.000085
    24  C    0.398048   0.392431   0.397936   0.000937   0.000408
    25  H    0.525074  -0.022935  -0.016834  -0.000038   0.000018
    26  H   -0.022935   0.556575  -0.023548  -0.000012  -0.000024
    27  H   -0.016834  -0.023548   0.538610  -0.000008   0.000002
    28  H   -0.000038  -0.000012  -0.000008   0.671922   0.289302
    29  H    0.000018  -0.000024   0.000002   0.289302   0.670308
 Mulliken charges:
               1
     1  Pt  -0.173483
     2  P    0.220672
     3  P    0.217404
     4  C   -0.424629
     5  H    0.136485
     6  H    0.124586
     7  H    0.127710
     8  C   -0.425890
     9  H    0.131683
    10  H    0.116294
    11  H    0.131840
    12  C   -0.426336
    13  H    0.132170
    14  H    0.123063
    15  H    0.136376
    16  C   -0.430904
    17  H    0.134032
    18  H    0.122756
    19  H    0.136862
    20  C   -0.426514
    21  H    0.117146
    22  H    0.132991
    23  H    0.130961
    24  C   -0.426451
    25  H    0.136467
    26  H    0.125497
    27  H    0.126872
    28  H   -0.015276
    29  H   -0.012383
 Sum of Mulliken charges =  -0.00000
 Mulliken charges with hydrogens summed into heavy atoms:
               1
     1  Pt  -0.201142
     2  P    0.220672
     3  P    0.217404
     4  C   -0.035848
     8  C   -0.046073
    12  C   -0.034728
    16  C   -0.037254
    20  C   -0.045415
    24  C   -0.037615
 Electronic spatial extent (au):  <R**2>=           2962.0399
 Charge=             -0.0000 electrons
 Dipole moment (field-independent basis, Debye):
    X=             -0.0450    Y=              2.5659    Z=              0.0481  Tot=              2.5667
 Quadrupole moment (field-independent basis, Debye-Ang):
   XX=            -84.1606   YY=            -93.9805   ZZ=            -93.5117
   XY=              0.0710   XZ=             -0.1753   YZ=             -0.0186
 Traceless Quadrupole moment (field-independent basis, Debye-Ang):
   XX=              6.3903   YY=             -3.4296   ZZ=             -2.9607
   XY=              0.0710   XZ=             -0.1753   YZ=             -0.0186
 Octapole moment (field-independent basis, Debye-Ang**2):
  XXX=             -0.7670  YYY=            -79.7013  ZZZ=             -1.5754  XYY=             -0.4964
  XXY=            -18.8018  XXZ=              0.6520  XZZ=              0.7533  YZZ=            -28.7113
  YYZ=              1.0151  XYZ=              1.1952
 Hexadecapole moment (field-independent basis, Debye-Ang**3):
 XXXX=          -2788.5914 YYYY=           -830.4445 ZZZZ=           -552.5196 XXXY=              2.7734
 XXXZ=             -8.7784 YYYX=              1.4820 YYYZ=              2.9447 ZZZX=              6.7028
 ZZZY=             -1.2796 XXYY=           -598.6679 XXZZ=           -562.7232 YYZZ=           -238.7545
 XXYZ=             -2.7893 YYXZ=             -3.6705 ZZXY=             -2.3486
 N-N= 8.389246674440D+02 E-N=-4.107043196533D+03  KE= 9.610701470163D+02
 Leave Link  601 at Wed Nov  6 10:35:30 2019, MaxMem=   140000000 cpu:               1.7 elap:               0.2
 (Enter /usr/g16/l9999.exe)
 1\1\GINC-LW06\SP\RB2PLYPD3-FC\def2TZVP\C6H20P2Pt1\WSR\06-Nov-2019\0\\#
 p B2PLYPD3/def2TZVP geom=allcheck scrf=(smd,solvent=benzene)\\Title Ca
 rd Required\\0,1\Pt,0,-0.0962818512,-0.6723105653,1.1477046529\P,0,1.9
 481868035,-0.1513514604,0.3338312076\P,0,-1.9839018289,-0.2015166203,-
 0.0042643352\C,0,2.155142761,1.6024716593,-0.1853219964\H,0,2.01622973
 64,2.2567119627,0.6807846089\H,0,3.1459481756,1.7835656217,-0.61731408
 62\H,0,1.3869055301,1.8516623782,-0.9238345354\C,0,3.499211383,-0.3918
 643709,1.3026702827\H,0,3.5895856732,-1.4472621644,1.5780731873\H,0,4.
 3896359865,-0.0880781096,0.7400127683\H,0,3.4406196285,0.1930921808,2.
 2259088612\C,0,2.3845990178,-1.0370847667,-1.2188052353\H,0,1.60685957
 33,-0.8563912873,-1.9669924901\H,0,3.3529365722,-0.7086633983,-1.61315
 42348\H,0,2.4225714688,-2.1131856347,-1.0242062532\C,0,-2.5690176918,1
 .5346129678,0.1659676961\H,0,-1.7613262691,2.2170524037,-0.1154388476\
 H,0,-3.4437328002,1.7278299322,-0.4652956362\H,0,-2.8291202945,1.73030
 44241,1.2104772961\C,0,-3.5547668707,-1.1218644953,0.2860323699\H,0,-4
 .364288518,-0.7707222921,-0.3643460363\H,0,-3.3868742539,-2.1881905702
 ,0.1050104747\H,0,-3.8525998149,-1.0005416894,1.3320624516\C,0,-1.8538
 734822,-0.347814282,-1.8348040455\H,0,-1.5673167089,-1.3706333668,-2.0
 984696377\H,0,-2.7982940673,-0.0995295309,-2.3326072044\H,0,-1.0707307
 139,0.3280304168,-2.1924019363\H,0,-0.6554923258,-1.5099540491,2.71215
 48068\H,0,0.1835847014,-1.4841750337,2.7980153869\\Version=ES64L-G16Re
 vA.03\State=1-A\HF=-1041.6406042\MP2=-1042.2653262\RMSD=7.380e-09\PG=C
 01 [X(C6H20P2Pt1)]\\@


 THE MORE ACCURATE THE CALCULATIONS BECOME, THE MORE THE CONCEPTS
 TEND TO VANISH INTO THIN AIR.
     -- R.S. MULLIKEN, J.C.P. 43,S2(1965)
 Job cpu time:       0 days  1 hours 40 minutes 29.0 seconds.
 Elapsed time:       0 days  0 hours  8 minutes 24.7 seconds.
 File lengths (MBytes):  RWF=  23813 Int=      0 D2E=      0 Chk=     20 Scr=      1
 Normal termination of Gaussian 16 at Wed Nov  6 10:35:30 2019.
