 Entering Gaussian System, Link 0=g16
 Input=Pt_ts3.gjf
 Output=Pt_ts3.log
 Initial command:
 /usr/g16/l1.exe "/scratch/wsr/gaussian/Gau-91358.inp" -scrdir="/scratch/wsr/gaussian/"
 Entering Link 1 = /usr/g16/l1.exe PID=     91359.
  
 Copyright (c) 1988,1990,1992,1993,1995,1998,2003,2009,2016,
            Gaussian, Inc.  All Rights Reserved.
  
 This is part of the Gaussian(R) 16 program.  It is based on
 the Gaussian(R) 09 system (copyright 2009, Gaussian, Inc.),
 the Gaussian(R) 03 system (copyright 2003, Gaussian, Inc.),
 the Gaussian(R) 98 system (copyright 1998, Gaussian, Inc.),
 the Gaussian(R) 94 system (copyright 1995, Gaussian, Inc.),
 the Gaussian 92(TM) system (copyright 1992, Gaussian, Inc.),
 the Gaussian 90(TM) system (copyright 1990, Gaussian, Inc.),
 the Gaussian 88(TM) system (copyright 1988, Gaussian, Inc.),
 the Gaussian 86(TM) system (copyright 1986, Carnegie Mellon
 University), and the Gaussian 82(TM) system (copyright 1983,
 Carnegie Mellon University). Gaussian is a federally registered
 trademark of Gaussian, Inc.
  
 This software contains proprietary and confidential information,
 including trade secrets, belonging to Gaussian, Inc.
  
 This software is provided under written license and may be
 used, copied, transmitted, or stored only in accord with that
 written license.
  
 The following legend is applicable only to US Government
 contracts under FAR:
  
                    RESTRICTED RIGHTS LEGEND
  
 Use, reproduction and disclosure by the US Government is
 subject to restrictions as set forth in subparagraphs (a)
 and (c) of the Commercial Computer Software - Restricted
 Rights clause in FAR 52.227-19.
  
 Gaussian, Inc.
 340 Quinnipiac St., Bldg. 40, Wallingford CT 06492
  
  
 ---------------------------------------------------------------
 Warning -- This program may not be used in any manner that
 competes with the business of Gaussian, Inc. or will provide
 assistance to any competitor of Gaussian, Inc.  The licensee
 of this program is prohibited from giving any competitor of
 Gaussian, Inc. access to this program.  By using this program,
 the user acknowledges that Gaussian, Inc. is engaged in the
 business of creating and licensing software in the field of
 computational chemistry and represents and warrants to the
 licensee that it is not a competitor of Gaussian, Inc. and that
 it will not use this program in any manner prohibited above.
 ---------------------------------------------------------------
  

 Cite this work as:
 Gaussian 16, Revision A.03,
 M. J. Frisch, G. W. Trucks, H. B. Schlegel, G. E. Scuseria, 
 M. A. Robb, J. R. Cheeseman, G. Scalmani, V. Barone, 
 G. A. Petersson, H. Nakatsuji, X. Li, M. Caricato, A. V. Marenich, 
 J. Bloino, B. G. Janesko, R. Gomperts, B. Mennucci, H. P. Hratchian, 
 J. V. Ortiz, A. F. Izmaylov, J. L. Sonnenberg, D. Williams-Young, 
 F. Ding, F. Lipparini, F. Egidi, J. Goings, B. Peng, A. Petrone, 
 T. Henderson, D. Ranasinghe, V. G. Zakrzewski, J. Gao, N. Rega, 
 G. Zheng, W. Liang, M. Hada, M. Ehara, K. Toyota, R. Fukuda, 
 J. Hasegawa, M. Ishida, T. Nakajima, Y. Honda, O. Kitao, H. Nakai, 
 T. Vreven, K. Throssell, J. A. Montgomery, Jr., J. E. Peralta, 
 F. Ogliaro, M. J. Bearpark, J. J. Heyd, E. N. Brothers, K. N. Kudin, 
 V. N. Staroverov, T. A. Keith, R. Kobayashi, J. Normand, 
 K. Raghavachari, A. P. Rendell, J. C. Burant, S. S. Iyengar, 
 J. Tomasi, M. Cossi, J. M. Millam, M. Klene, C. Adamo, R. Cammi, 
 J. W. Ochterski, R. L. Martin, K. Morokuma, O. Farkas, 
 J. B. Foresman, and D. J. Fox, Gaussian, Inc., Wallingford CT, 2016.
 
 ******************************************
 Gaussian 16:  ES64L-G16RevA.03 25-Dec-2016
                31-Oct-2019 
 ******************************************
 %chk=Pt_ts3.chk
 %nprocshared=24
 Will use up to   24 processors via shared memory.
 ----------------------------------------------------------------------
 #p opt=(ts,calcfc,noeigen,restart) freq b3lyp/gen em=gd3bj scrf=(smd,s
 olvent=benzene)
 ----------------------------------------------------------------------
 1/5=1,10=4,11=1,18=20,26=3,35=1/3;
 2/9=110,12=2,17=6,18=5,40=1/2;
 3/5=7,6=1,11=2,25=1,30=1,70=32205,71=2,72=12,74=-5,82=7,124=41,140=1/1,2,3;
 4/5=5,16=3,69=1/1;
 5/5=2,38=5,53=12/2;
 8/6=4,10=90,11=11/1;
 11/6=1,8=1,9=11,15=111,16=1/1,2,10;
 10/6=1,13=1/2;
 6/7=2,8=2,9=2,10=2,28=1/1;
 7/10=1,18=20,25=1/1,2,3,16;
 1/5=1,10=4,11=1,18=20,26=3/3(2);
 2/9=110/2;
 99//99;
 2/9=110/2;
 3/5=7,6=1,11=2,25=1,30=1,70=32205,71=1,72=12,74=-5,82=7,124=41/1,2,3;
 4/5=5,16=3,69=1/1;
 5/5=2,38=5,53=12/2;
 7//1,2,3,16;
 1/5=1,11=1,18=20,26=3/3(-5);
 2/9=110/2;
 6/7=2,8=2,9=2,10=2,19=2,28=1/1;
 99/9=1/99;
 Leave Link    1 at Thu Oct 31 04:12:28 2019, MaxMem=           0 cpu:               2.9 elap:               0.1
 (Enter /usr/g16/l103.exe)

 GradGradGradGradGradGradGradGradGradGradGradGradGradGradGradGradGradGrad
 Berny optimization.
 Restoring state from the checkpoint file "Pt_ts3.chk".
 ONIOM results not found on unit 2.
 Title:  Title Card Required
 Route:  #p opt=(ts,calcfc,noeigen) b3lyp/genecp em=gd3bj scrf=(smd,solvent=benze
 ne)
 FncErr=1.00D-07 GrdErr=1.00D-06 EigMax=2.50D+02 EigMin=1.00D-04
 FormGI is forming the generalized inverse of G from B-inverse, IUseBI=4.
 Internal  Forces:  Max     0.001494021 RMS     0.000197013
 Search for a saddle point.
 Step number 130 out of a maximum of  168
 All quantities printed in internal units (Hartrees-Bohrs-Radians)
 Swapping is turned off.
 Update second derivatives using D2CorX and points  129  130
 ITU=  0  0  0  0  0  0  0  0  0  0  0  0  0  0  0  0  0  0  0  0
 ITU=  0  0  0  0  0  0  0  0  0  0  0  0  0  0  0  0  0  0  0  0
 ITU=  0  0  0  0  0  0  0  0  0  0  0  0  0  0  0  0  0  0  0  0
 ITU=  0  0  0  0  0  0  0  0  0  0  0  0  0  0  0  0  0  0  0  0
 ITU=  0  0  0  0  0  0  0  0  0  0  0  0  0  0  0  0  0  0  0  0
     Eigenvalues ---   -0.00007   0.00132   0.00188   0.00209   0.00302
     Eigenvalues ---    0.00555   0.00631   0.00972   0.01336   0.01774
     Eigenvalues ---    0.02012   0.02268   0.03067   0.03360   0.03996
     Eigenvalues ---    0.04049   0.04064   0.04188   0.04206   0.04253
     Eigenvalues ---    0.04265   0.04281   0.04318   0.04321   0.04438
     Eigenvalues ---    0.04611   0.04939   0.05140   0.06244   0.06727
     Eigenvalues ---    0.06867   0.07184   0.07984   0.09912   0.11242
     Eigenvalues ---    0.11260   0.11333   0.11339   0.11530   0.11579
     Eigenvalues ---    0.11599   0.11620   0.11701   0.12429   0.12539
     Eigenvalues ---    0.12587   0.12655   0.13779   0.14090   0.14400
     Eigenvalues ---    0.14485   0.14532   0.14884   0.16132   0.17363
     Eigenvalues ---    0.20709   0.20748   0.20860   0.20922   0.21820
     Eigenvalues ---    0.21938   0.24404   0.33502   0.33522   0.33711
     Eigenvalues ---    0.33733   0.33825   0.33846   0.34238   0.34249
     Eigenvalues ---    0.34302   0.34323   0.34339   0.34538   0.34815
     Eigenvalues ---    0.34821   0.34852   0.34859   0.34873   0.36401
     Eigenvalues ---    0.41899
 Eigenvectors required to have negative eigenvalues:
                          D21       D20       D19       D18       D17
   1                   -0.35677  -0.35229  -0.33363  -0.27910  -0.27461
                          D16       D10       D7        D13       D2
   1                   -0.25596  -0.20222  -0.19913  -0.19378   0.17895
 RFO step:  Lambda0=1.017282267D-04 Lambda=-1.04245425D-04.
 Linear search not attempted -- option 19 set.
 Iteration  1 RMS(Cart)=  0.02687019 RMS(Int)=  0.00047277
 Iteration  2 RMS(Cart)=  0.00048572 RMS(Int)=  0.00002651
 Iteration  3 RMS(Cart)=  0.00000030 RMS(Int)=  0.00002651
 ITry= 1 IFail=0 DXMaxC= 1.12D-01 DCOld= 1.00D+10 DXMaxT= 3.00D-01 DXLimC= 3.00D+00 Rises=F
 Variable       Old X    -DE/DX   Delta X   Delta X   Delta X     New X
                                 (Linear)    (Quad)   (Total)
    R1        4.41771  -0.00009   0.00000  -0.00002   0.00002   4.41773
    R2        4.41451  -0.00005   0.00000  -0.00261  -0.00265   4.41187
    R3        3.05464   0.00149   0.00000   0.00806   0.00806   3.06270
    R4        3.06116   0.00126   0.00000   0.00521   0.00521   3.06637
    R5        3.47883   0.00005   0.00000  -0.00010  -0.00010   3.47873
    R6        3.48703   0.00015   0.00000   0.00162   0.00162   3.48866
    R7        3.48033   0.00001   0.00000   0.00051   0.00051   3.48084
    R8        3.47828  -0.00006   0.00000  -0.00077  -0.00077   3.47751
    R9        3.48765   0.00002   0.00000   0.00015   0.00015   3.48780
   R10        3.48258  -0.00014   0.00000  -0.00042  -0.00042   3.48216
   R11        2.06909   0.00002   0.00000   0.00013   0.00013   2.06922
   R12        2.07167   0.00001   0.00000  -0.00007  -0.00007   2.07160
   R13        2.06687   0.00000   0.00000   0.00008   0.00008   2.06695
   R14        2.06896   0.00005   0.00000  -0.00034  -0.00034   2.06862
   R15        2.07161   0.00001   0.00000  -0.00010  -0.00010   2.07151
   R16        2.06678  -0.00005   0.00000   0.00031   0.00031   2.06709
   R17        2.06752  -0.00001   0.00000  -0.00004  -0.00004   2.06748
   R18        2.07166   0.00002   0.00000   0.00004   0.00004   2.07170
   R19        2.06919  -0.00001   0.00000   0.00006   0.00006   2.06925
   R20        2.06710   0.00006   0.00000   0.00009   0.00009   2.06719
   R21        2.07151   0.00003   0.00000   0.00017   0.00017   2.07169
   R22        2.06875  -0.00000   0.00000  -0.00001  -0.00001   2.06874
   R23        2.07141   0.00002   0.00000   0.00012   0.00012   2.07153
   R24        2.06457   0.00022   0.00000   0.00067   0.00067   2.06524
   R25        2.06934  -0.00009   0.00000  -0.00051  -0.00051   2.06883
   R26        2.06924  -0.00004   0.00000  -0.00002  -0.00002   2.06923
   R27        2.07167   0.00003   0.00000   0.00003   0.00003   2.07170
   R28        2.06837  -0.00003   0.00000  -0.00008  -0.00008   2.06829
    A1        2.93410  -0.00002   0.00000  -0.00567  -0.00567   2.92843
    A2        1.50017  -0.00049   0.00000   0.00066   0.00072   1.50090
    A3        1.51902  -0.00009   0.00000   0.00679   0.00682   1.52584
    A4        2.95376   0.00038   0.00000   0.00088   0.00091   2.95466
    A5        1.43504   0.00046   0.00000  -0.00573  -0.00570   1.42933
    A6        1.96344   0.00015   0.00000   0.00194   0.00194   1.96538
    A7        2.14335  -0.00010   0.00000  -0.00291  -0.00289   2.14046
    A8        1.97662  -0.00004   0.00000   0.00070   0.00067   1.97729
    A9        1.77272  -0.00003   0.00000   0.00112   0.00113   1.77386
   A10        1.79062  -0.00001   0.00000   0.00098   0.00097   1.79159
   A11        1.77371   0.00004   0.00000  -0.00142  -0.00142   1.77230
   A12        1.98656  -0.00013   0.00000  -0.00334  -0.00329   1.98327
   A13        2.11000  -0.00015   0.00000  -0.00492  -0.00496   2.10504
   A14        1.98970   0.00024   0.00000   0.00697   0.00701   1.99672
   A15        1.76187   0.00029   0.00000   0.00561   0.00556   1.76742
   A16        1.79119  -0.00014   0.00000  -0.00151  -0.00149   1.78970
   A17        1.78273  -0.00010   0.00000  -0.00258  -0.00258   1.78015
   A18        1.90958  -0.00004   0.00000  -0.00058  -0.00058   1.90900
   A19        1.94875   0.00001   0.00000   0.00066   0.00066   1.94941
   A20        1.90177   0.00004   0.00000  -0.00004  -0.00004   1.90173
   A21        1.90583   0.00001   0.00000   0.00023   0.00023   1.90605
   A22        1.88454  -0.00001   0.00000  -0.00072  -0.00072   1.88382
   A23        1.91227  -0.00002   0.00000   0.00040   0.00040   1.91267
   A24        1.91412   0.00011   0.00000   0.00143   0.00143   1.91555
   A25        1.93739   0.00006   0.00000   0.00115   0.00114   1.93854
   A26        1.91974  -0.00012   0.00000  -0.00192  -0.00192   1.91782
   A27        1.89445   0.00006   0.00000   0.00247   0.00247   1.89692
   A28        1.89701  -0.00007   0.00000  -0.00113  -0.00113   1.89588
   A29        1.90047  -0.00005   0.00000  -0.00202  -0.00202   1.89845
   A30        1.90180  -0.00002   0.00000   0.00014   0.00014   1.90193
   A31        1.94937   0.00003   0.00000   0.00067   0.00067   1.95004
   A32        1.91097  -0.00002   0.00000  -0.00078  -0.00078   1.91019
   A33        1.90990   0.00000   0.00000   0.00040   0.00040   1.91030
   A34        1.88489   0.00001   0.00000  -0.00015  -0.00015   1.88473
   A35        1.90580  -0.00000   0.00000  -0.00030  -0.00030   1.90550
   A36        1.90356   0.00013   0.00000   0.00019   0.00019   1.90376
   A37        1.94962   0.00008   0.00000   0.00118   0.00118   1.95080
   A38        1.90652  -0.00023   0.00000  -0.00190  -0.00190   1.90462
   A39        1.91212  -0.00007   0.00000  -0.00014  -0.00014   1.91198
   A40        1.88304   0.00004   0.00000   0.00034   0.00034   1.88338
   A41        1.90778   0.00006   0.00000   0.00029   0.00029   1.90807
   A42        1.93637  -0.00003   0.00000   0.00041   0.00041   1.93678
   A43        1.92584  -0.00010   0.00000  -0.00276  -0.00276   1.92308
   A44        1.91002   0.00005   0.00000   0.00143   0.00143   1.91145
   A45        1.89766   0.00005   0.00000  -0.00049  -0.00049   1.89717
   A46        1.89924   0.00002   0.00000   0.00135   0.00134   1.90058
   A47        1.89400   0.00001   0.00000   0.00011   0.00011   1.89410
   A48        1.91134  -0.00012   0.00000  -0.00124  -0.00124   1.91009
   A49        1.95088   0.00001   0.00000  -0.00031  -0.00031   1.95057
   A50        1.90223   0.00006   0.00000   0.00174   0.00174   1.90396
   A51        1.90600   0.00003   0.00000  -0.00067  -0.00067   1.90533
   A52        1.88538   0.00002   0.00000  -0.00000  -0.00000   1.88538
   A53        1.90686   0.00000   0.00000   0.00050   0.00050   1.90737
   A54        4.45312  -0.00011   0.00000   0.00112   0.00115   4.45427
   A55        3.25663  -0.00029   0.00000   0.03003   0.03007   3.28669
    D1        0.75442   0.00013   0.00000  -0.03562  -0.03562   0.71880
    D2        2.87818   0.00015   0.00000  -0.03455  -0.03454   2.84365
    D3       -1.26623   0.00007   0.00000  -0.03864  -0.03863  -1.30486
    D4        0.85810  -0.00008   0.00000  -0.00910  -0.00908   0.84902
    D5        2.98187  -0.00006   0.00000  -0.00804  -0.00800   2.97387
    D6       -1.16255  -0.00014   0.00000  -0.01213  -0.01209  -1.17464
    D7        0.41107   0.00028   0.00000   0.03537   0.03547   0.44655
    D8       -1.43124  -0.00005   0.00000   0.02033   0.02031  -1.41093
    D9        3.07089   0.00009   0.00000   0.02298   0.02293   3.09382
   D10        2.18278   0.00022   0.00000   0.03433   0.03439   2.21717
   D11        0.34048  -0.00011   0.00000   0.01929   0.01922   0.35970
   D12       -1.44058   0.00003   0.00000   0.02194   0.02185  -1.41874
   D13       -2.33842   0.00024   0.00000   0.03030   0.03036  -2.30806
   D14        2.10246  -0.00009   0.00000   0.01526   0.01519   2.11765
   D15        0.32140   0.00005   0.00000   0.01791   0.01782   0.33921
   D16       -0.46971   0.00008   0.00000   0.03344   0.03338  -0.43633
   D17       -2.57115  -0.00009   0.00000   0.03272   0.03273  -2.53843
   D18        1.57703  -0.00003   0.00000   0.03408   0.03410   1.61113
   D19       -0.41320  -0.00014   0.00000   0.05093   0.05089  -0.36231
   D20       -2.51464  -0.00031   0.00000   0.05021   0.05023  -2.46441
   D21        1.63354  -0.00025   0.00000   0.05157   0.05161   1.68515
   D22        1.08405  -0.00001   0.00000  -0.01495  -0.01493   1.06912
   D23       -3.08734  -0.00002   0.00000  -0.01463  -0.01461  -3.10195
   D24       -0.97272  -0.00000   0.00000  -0.01373  -0.01371  -0.98643
   D25       -1.23909   0.00004   0.00000  -0.01340  -0.01340  -1.25249
   D26        0.87270   0.00003   0.00000  -0.01308  -0.01308   0.85962
   D27        2.98732   0.00005   0.00000  -0.01218  -0.01218   2.97514
   D28       -3.06931   0.00001   0.00000  -0.01248  -0.01249  -3.08180
   D29       -0.95751   0.00000   0.00000  -0.01216  -0.01217  -0.96968
   D30        1.15711   0.00002   0.00000  -0.01126  -0.01127   1.14583
   D31        1.12167  -0.00033   0.00000  -0.05444  -0.05445   1.06723
   D32       -3.06823  -0.00015   0.00000  -0.04971  -0.04971  -3.11794
   D33       -0.96375  -0.00025   0.00000  -0.05276  -0.05276  -1.01651
   D34       -2.95142  -0.00023   0.00000  -0.05278  -0.05278  -3.00420
   D35       -0.85813  -0.00004   0.00000  -0.04805  -0.04805  -0.90618
   D36        1.24635  -0.00014   0.00000  -0.05110  -0.05110   1.19525
   D37       -1.10789  -0.00023   0.00000  -0.05183  -0.05183  -1.15972
   D38        0.98540  -0.00005   0.00000  -0.04710  -0.04710   0.93830
   D39        3.08987  -0.00015   0.00000  -0.05015  -0.05015   3.03973
   D40        0.94622   0.00007   0.00000  -0.01657  -0.01658   0.92965
   D41        3.05830   0.00009   0.00000  -0.01555  -0.01556   3.04274
   D42       -1.11179   0.00009   0.00000  -0.01601  -0.01602  -1.12781
   D43       -1.17463  -0.00008   0.00000  -0.01991  -0.01990  -1.19453
   D44        0.93745  -0.00007   0.00000  -0.01889  -0.01888   0.91857
   D45        3.05055  -0.00006   0.00000  -0.01935  -0.01934   3.03120
   D46       -3.00407  -0.00005   0.00000  -0.02096  -0.02096  -3.02503
   D47       -0.89200  -0.00004   0.00000  -0.01994  -0.01994  -0.91194
   D48        1.22110  -0.00004   0.00000  -0.02040  -0.02041   1.20069
   D49        1.02821  -0.00001   0.00000  -0.00763  -0.00758   1.02063
   D50       -3.13878   0.00004   0.00000  -0.00691  -0.00686   3.13755
   D51       -1.02604   0.00000   0.00000  -0.00706  -0.00701  -1.03305
   D52       -2.96726  -0.00007   0.00000  -0.01177  -0.01179  -2.97905
   D53       -0.85105  -0.00002   0.00000  -0.01105  -0.01107  -0.86213
   D54        1.26169  -0.00005   0.00000  -0.01120  -0.01122   1.25046
   D55       -1.13044  -0.00014   0.00000  -0.01330  -0.01333  -1.14377
   D56        0.98576  -0.00009   0.00000  -0.01258  -0.01261   0.97315
   D57        3.09850  -0.00012   0.00000  -0.01273  -0.01276   3.08574
   D58        3.02588  -0.00002   0.00000  -0.02153  -0.02155   3.00433
   D59       -1.15298  -0.00005   0.00000  -0.02371  -0.02373  -1.17670
   D60        0.92994  -0.00006   0.00000  -0.02438  -0.02440   0.90554
   D61        0.81766  -0.00000   0.00000  -0.01864  -0.01864   0.79902
   D62        2.92199  -0.00003   0.00000  -0.02082  -0.02082   2.90117
   D63       -1.27828  -0.00004   0.00000  -0.02149  -0.02149  -1.29977
   D64       -1.02589   0.00010   0.00000  -0.01793  -0.01792  -1.04381
   D65        1.07844   0.00007   0.00000  -0.02011  -0.02010   1.05834
   D66       -3.12183   0.00005   0.00000  -0.02078  -0.02077   3.14058
   D67        1.07533   0.00007   0.00000  -0.00026  -0.00031   1.07502
   D68       -3.09327   0.00003   0.00000  -0.00216  -0.00220  -3.09547
   D69       -0.98375   0.00008   0.00000  -0.00056  -0.00060  -0.98435
   D70       -3.05131  -0.00005   0.00000  -0.00147  -0.00142  -3.05273
   D71       -0.93672  -0.00009   0.00000  -0.00336  -0.00332  -0.94004
   D72        1.17280  -0.00004   0.00000  -0.00177  -0.00172   1.17108
   D73       -1.23065   0.00018   0.00000   0.00333   0.00332  -1.22732
   D74        0.88394   0.00015   0.00000   0.00143   0.00143   0.88537
   D75        2.99346   0.00020   0.00000   0.00303   0.00303   2.99649
         Item               Value     Threshold  Converged?
 Maximum Force            0.001494     0.000450     NO 
 RMS     Force            0.000197     0.000300     YES
 Maximum Displacement     0.111757     0.001800     NO 
 RMS     Displacement     0.026807     0.001200     NO 
 Predicted change in Energy=-3.225098D-05
 GradGradGradGradGradGradGradGradGradGradGradGradGradGradGradGradGradGrad

 Leave Link  103 at Thu Oct 31 04:12:28 2019, MaxMem=   140000000 cpu:               2.0 elap:               0.1
 (Enter /usr/g16/l202.exe)
                          Input orientation:                          
 ---------------------------------------------------------------------
 Center     Atomic      Atomic             Coordinates (Angstroms)
 Number     Number       Type             X           Y           Z
 ---------------------------------------------------------------------
      1         78           0       -1.108537   -1.303444   -0.142721
      2         15           0        0.183356   -0.707739    1.712347
      3         15           0       -0.582896    0.290852   -1.765237
      4          6           0        1.124572   -2.129922    2.405384
      5          1           0        1.814285   -2.513595    1.646382
      6          1           0        1.693317   -1.843222    3.297622
      7          1           0        0.423564   -2.930346    2.658891
      8          6           0        1.484118    0.600354    1.641204
      9          1           0        1.029852    1.559632    1.373391
     10          1           0        1.987831    0.708272    2.608816
     11          1           0        2.229469    0.342987    0.883091
     12          6           0       -0.822190   -0.149858    3.151282
     13          1           0       -1.571363   -0.913877    3.379295
     14          1           0       -0.200399    0.027453    4.036606
     15          1           0       -1.349565    0.773879    2.891259
     16          6           0       -0.799759   -0.312740   -3.490073
     17          1           0       -1.837588   -0.628707   -3.630470
     18          1           0       -0.548885    0.460185   -4.225938
     19          1           0       -0.157877   -1.185353   -3.648102
     20          6           0        1.109083    1.023363   -1.849609
     21          1           0        1.223823    1.643499   -2.746234
     22          1           0        1.296176    1.642785   -0.968877
     23          1           0        1.853953    0.221463   -1.875457
     24          6           0       -1.649287    1.793194   -1.729973
     25          1           0       -1.532469    2.300501   -0.766650
     26          1           0       -1.395850    2.490506   -2.537062
     27          1           0       -2.696612    1.491130   -1.828845
     28          1           0       -2.073759   -1.998757   -1.243441
     29          1           0       -1.632830   -2.543261    0.763353
 ---------------------------------------------------------------------
                    Distance matrix (angstroms):
                    1          2          3          4          5
     1  Pt   0.000000
     2  P    2.337761   0.000000
     3  P    2.334660   3.698367   0.000000
     4  C    3.487504   1.840867   5.115630   0.000000
     5  H    3.634315   2.434213   5.024991   1.094985   0.000000
     6  H    4.469642   2.466252   5.947096   1.096246   1.786232
     7  H    3.583737   2.427679   5.564349   1.093781   1.770017
     8  C    3.678138   1.846118   3.996521   2.857911   3.131408
     9  H    3.881818   2.443854   3.749899   3.832335   4.157047
    10  H    4.604938   2.462697   5.090699   2.973541   3.367020
    11  H    3.860740   2.445049   3.863387   3.107000   2.985808
    12  C    3.501886   1.841980   4.942028   2.875222   3.847464
    13  H    3.573593   2.429043   5.375375   3.113733   4.126099
    14  H    4.479149   2.467784   5.820401   3.011760   4.028529
    15  H    3.684888   2.436160   4.743843   3.845711   4.729392
    16  C    3.504512   5.309210   1.840220   6.462322   6.169291
    17  H    3.626456   5.712806   2.428772   6.889091   6.688359
    18  H    4.482886   6.096184   2.466755   7.313245   6.993717
    19  H    3.633924   5.392492   2.430021   6.259519   5.803896
    20  C    3.639415   4.067089   1.845666   5.296075   5.022881
    21  H    4.571943   5.146827   2.460943   6.386527   6.076606
    22  H    3.891715   3.735277   2.448024   5.064426   4.937966
    23  H    3.755538   4.065297   2.440327   4.938279   4.459311
    24  C    3.521498   4.632797   1.842679   6.339267   6.476459
    25  H    3.682041   4.258989   2.436709   6.062204   6.340268
    26  H    4.495495   5.547986   2.468823   7.220018   7.269608
    27  H    3.629689   5.066486   2.431565   6.755898   6.961552
    28  H    1.620709   3.936747   2.781592   4.853911   4.871655
    29  H    1.622652   2.751047   3.940600   3.235796   3.558542
                    6          7          8          9         10
     6  H    0.000000
     7  H    1.789438   0.000000
     8  C    2.959485   3.824435   0.000000
     9  H    3.965132   4.709565   1.094667   0.000000
    10  H    2.659195   3.960932   1.096197   1.780116   0.000000
    11  H    3.301049   4.138776   1.093855   1.777554   1.780435
    12  C    3.035898   3.086336   2.856959   3.084366   2.987788
    13  H    3.395362   2.926578   3.827509   4.111961   3.986586
    14  H    2.762550   3.322048   2.983918   3.309653   2.700083
    15  H    4.034041   4.113304   3.102017   2.929669   3.349969
    16  C    7.391251   6.793978   5.690328   5.523272   6.783035
    17  H    7.870247   7.068692   6.350974   6.168441   7.439761
    18  H    8.181510   7.735776   6.210966   5.920615   7.294542
    19  H    7.218226   6.569721   5.819077   5.844744   6.880328
    20  C    5.920526   6.035588   3.536292   3.268270   4.555111
    21  H    6.993271   7.125717   4.517246   4.125041   5.489528
    22  H    5.523856   5.902176   2.816826   2.358826   3.761860
    23  H    5.572205   5.704403   3.556295   3.608996   4.512606
    24  C    7.047924   6.772788   4.754569   4.106483   5.764614
    25  H    6.640364   6.551500   4.217589   3.419671   5.130446
    26  H    7.897322   7.726179   5.415238   4.694912   6.411375
    27  H    7.527951   7.030272   5.505745   4.913811   6.499978
    28  H    5.902229   4.725746   5.266407   5.398365   6.218071
    29  H    4.239790   2.823411   4.513126   4.929073   5.204555
                   11         12         13         14         15
    11  H    0.000000
    12  C    3.834085   0.000000
    13  H    4.717739   1.094064   0.000000
    14  H    3.993554   1.096295   1.788212   0.000000
    15  H    4.126486   1.095000   1.770846   1.785933   0.000000
    16  C    5.360108   6.643389   6.938657   7.558165   6.496493
    17  H    6.152835   6.874044   7.020613   7.867337   6.688674
    18  H    5.816801   7.407444   7.795710   8.281204   7.168960
    19  H    5.344807   6.909789   7.173281   7.779938   6.929787
    20  C    3.030813   5.487729   6.187013   6.111801   5.346309
    21  H    3.984301   6.494843   7.202454   7.116665   6.257786
    22  H    2.447509   4.967570   5.802233   5.468445   4.759789
    23  H    2.786641   5.706814   6.374496   6.261827   5.769685
    24  C    4.896524   5.318476   5.782640   6.202463   4.741795
    25  H    4.550350   4.675355   5.246199   5.478360   3.967912
    26  H    5.426991   6.297449   6.828171   7.121015   5.693472
    27  H    5.739260   5.568479   5.845936   6.540408   4.960681
    28  H    5.340756   4.929345   4.774836   5.957676   5.030677
    29  H    4.823081   3.476740   3.082503   4.401660   3.951157
                   16         17         18         19         20
    16  C    0.000000
    17  H    1.093909   0.000000
    18  H    1.096289   1.789141   0.000000
    19  H    1.094732   1.769631   1.787338   0.000000
    20  C    2.849555   3.818857   2.951773   3.117401   0.000000
    21  H    2.911194   3.913698   2.594658   3.274884   1.096207
    22  H    3.817518   4.697257   3.925715   4.158230   1.092875
    23  H    3.151911   4.174965   3.369775   3.028013   1.094780
    24  C    2.873083   3.084307   3.036057   3.843861   2.866279
    25  H    3.844856   4.107897   4.039910   4.726885   3.127567
    26  H    3.020222   3.334691   2.773419   4.034715   2.983252
    27  H    3.100270   2.911612   3.379591   4.113202   3.834390
    28  H    3.084329   2.762376   4.155349   3.180350   4.430703
    29  H    4.874512   4.797200   5.923568   4.845652   5.202544
                   21         22         23         24         25
    21  H    0.000000
    22  H    1.778829   0.000000
    23  H    1.782556   1.775714   0.000000
    24  C    3.051221   3.045921   3.842420   0.000000
    25  H    3.456522   2.911136   4.125494   1.094987   0.000000
    26  H    2.761134   3.228752   4.018395   1.096297   1.785812
    27  H    4.029221   4.087162   4.724602   1.094490   1.771600
    28  H    5.137943   4.969173   4.555847   3.846529   4.359351
    29  H    6.164951   5.394690   5.173458   5.002179   5.080651
                   26         27         28         29
    26  H    0.000000
    27  H    1.786702   0.000000
    28  H    4.720858   3.593043   0.000000
    29  H    6.023929   4.911969   2.125589   0.000000
 Stoichiometry    C6H20P2Pt
 Framework group  C1[X(C6H20P2Pt)]
 Deg. of freedom    81
 Full point group                 C1      NOp   1
 RotChk:  IX=1 Diff= 2.06D-02
 Largest Abelian subgroup         C1      NOp   1
 Largest concise Abelian subgroup C1      NOp   1
                         Standard orientation:                         
 ---------------------------------------------------------------------
 Center     Atomic      Atomic             Coordinates (Angstroms)
 Number     Number       Type             X           Y           Z
 ---------------------------------------------------------------------
      1         78           0       -0.002392    0.871590    0.002565
      2         15           0        1.845915   -0.559801    0.005096
      3         15           0       -1.852444   -0.552467    0.005247
      4          6           0        3.077511   -0.122975    1.301687
      5          1           0        2.610192   -0.203827    2.288637
      6          1           0        3.955610   -0.778146    1.263633
      7          1           0        3.388821    0.916022    1.160525
      8          6           0        1.691714   -2.384691    0.237797
      9          1           0        1.085879   -2.810558   -0.568365
     10          1           0        2.675830   -2.867499    0.230150
     11          1           0        1.202392   -2.597945    1.192578
     12          6           0        2.840102   -0.468248   -1.542839
     13          1           0        3.107639    0.575501   -1.732543
     14          1           0        3.752332   -1.072553   -1.475653
     15          1           0        2.236184   -0.821023   -2.385370
     16          6           0       -3.354765    0.191273    0.764386
     17          1           0       -3.614702    1.104802    0.221675
     18          1           0       -4.204795   -0.500795    0.745960
     19          1           0       -3.134169    0.466589    1.800715
     20          6           0       -1.782206   -2.182837    0.867478
     21          1           0       -2.769917   -2.657821    0.889536
     22          1           0       -1.083881   -2.850081    0.356105
     23          1           0       -1.435334   -2.038166    1.895726
     24          6           0       -2.446892   -1.031493   -1.671843
     25          1           0       -1.654948   -1.574829   -2.197780
     26          1           0       -3.342820   -1.661245   -1.620938
     27          1           0       -2.673521   -0.126039   -2.243420
     28          1           0       -1.047188    2.109614    0.051543
     29          1           0        1.078130    2.081796    0.032106
 ---------------------------------------------------------------------
 Rotational constants (GHZ):           1.0000697           0.5098447           0.4162224
 Leave Link  202 at Thu Oct 31 04:12:28 2019, MaxMem=   140000000 cpu:               0.1 elap:               0.0
 (Enter /usr/g16/l301.exe)
 Basis read from rwf:  (5D, 7F)
 Pseudo-potential data read from rwf file.
 There are   207 symmetry adapted cartesian basis functions of A   symmetry.
 There are   196 symmetry adapted basis functions of A   symmetry.
   196 basis functions,   417 primitive gaussians,   207 cartesian basis functions
    52 alpha electrons       52 beta electrons
       nuclear repulsion energy       845.2965808376 Hartrees.
 IExCor=  402 DFT=T Ex+Corr=B3LYP ExCW=0 ScaHFX=  0.200000
 ScaDFX=  0.800000  0.720000  1.000000  0.810000 ScalE2=  1.000000  1.000000
 IRadAn=      5 IRanWt=     -1 IRanGd=            0 ICorTp=0 IEmpDi=141
 NAtoms=   29 NActive=   29 NUniq=   29 SFac= 1.00D+00 NAtFMM=   60 NAOKFM=F Big=F
 Integral buffers will be    131072 words long.
 Raffenetti 2 integral format.
 Two-electron integral symmetry is turned on.
 R6Disp:  Grimme-D3(BJ) Dispersion energy=       -0.0634514706 Hartrees.
 Nuclear repulsion after empirical dispersion term =      845.2331293670 Hartrees.
 No density basis found on file   724.
 Force inversion solution in PCM.
 ------------------------------------------------------------------------------
 Polarizable Continuum Model (PCM)
 =================================
 Model                : PCM.
 Atomic radii         : SMD-Coulomb.
 Polarization charges : Total charges.
 Charge compensation  : None.
 Solution method      : Matrix inversion.
 Cavity type          : VdW (van der Waals Surface) (Alpha=1.000).
 Cavity algorithm     : GePol (No added spheres)
                        Default sphere list used, NSphG=   29.
                        Lebedev-Laikov grids with approx.  5.0 points / Ang**2.
                        Smoothing algorithm: York/Karplus (Gamma=1.0000).
                        Polarization charges: spherical gaussians, with
                                              point-specific exponents (IZeta= 3).
                        Self-potential: point-specific (ISelfS= 7).
                        Self-field    : sphere-specific E.n sum rule (ISelfD= 2).
 1st derivatives      : Analytical E(r).r(x)/FMM algorithm (CHGder, D1EAlg=3).
                        Cavity 1st derivative terms included.
 2nd derivatives      : Analytical E(r).r(xy)/FMM algorithm (CHGder, D2EAlg=3).
                        Cavity 2nd derivative terms included.
 Solvent              : Benzene, Eps=   2.270600 Eps(inf)=   2.253301
 ------------------------------------------------------------------------------
 GePol: Number of generator spheres                  =      29
 GePol: Total number of spheres                      =      29
 GePol: Number of exposed spheres                    =      29 (100.00%)
 GePol: Number of points                             =    2136
 GePol: Average weight of points                     =       0.12
 GePol: Minimum weight of points                     =   0.52D-09
 GePol: Maximum weight of points                     =    0.22001
 GePol: Number of points with low weight             =     125
 GePol: Fraction of low-weight points (<1% of avg)   =       5.85%
 GePol: Cavity surface area                          =    250.755 Ang**2
 GePol: Cavity volume                                =    209.437 Ang**3
 ------------------------------------------------------------------------------
 Atomic radii for non-electrostatic terms: SMD-CDS.
 ------------------------------------------------------------------------------
 PCM non-electrostatic energy =         0.0000680309 Hartrees.
 Nuclear repulsion after PCM non-electrostatic terms =      845.2331973979 Hartrees.
 Leave Link  301 at Thu Oct 31 04:12:28 2019, MaxMem=   140000000 cpu:               3.0 elap:               0.2
 (Enter /usr/g16/l302.exe)
 NPDir=0 NMtPBC=     1 NCelOv=     1 NCel=       1 NClECP=     1 NCelD=      1
         NCelK=      1 NCelE2=     1 NClLst=     1 CellRange=     0.0.
 One-electron integrals computed using PRISM.
 One-electron integral symmetry used in STVInt
   1 Symmetry operations used in ECPInt.
 ECPInt:  NShTT=    3916 NPrTT=   20546 LenC2=    3799 LenP2D=   13582.
 LDataN:  DoStor=T MaxTD1= 7 Len=  274
 Number of processors reduced to  20 by ecpmxn.
 NBasis=   196 RedAO= T EigKep=  2.40D-03  NBF=   196
 NBsUse=   196 1.00D-06 EigRej= -1.00D+00 NBFU=   196
 Precomputing XC quadrature grid using
 IXCGrd= 4 IRadAn=           5 IRanWt=          -1 IRanGd=           0 AccXCQ= 0.00D+00.
 Defaulting to unpruned grid for atomic number  78.
 Generated NRdTot=       0 NPtTot=           0 NUsed=           0 NTot=          32
 NSgBfM=   205   205   205   205   205 MxSgAt=    29 MxSgA2=    29.
 Leave Link  302 at Thu Oct 31 04:12:29 2019, MaxMem=   140000000 cpu:              12.2 elap:               0.5
 (Enter /usr/g16/l303.exe)
 DipDrv:  MaxL=1.
 Leave Link  303 at Thu Oct 31 04:12:29 2019, MaxMem=   140000000 cpu:               0.9 elap:               0.1
 (Enter /usr/g16/l401.exe)
 Initial guess from the checkpoint file:  "Pt_ts3.chk"
 B after Tr=    -0.000000    0.000000    0.000000
         Rot=    0.999986    0.005307    0.000315   -0.000208 Ang=   0.61 deg.
 Guess basis will be translated and rotated to current coordinates.
 JPrj=2 DoOrth=T DoCkMO=T.
 Generating alternative initial guess.
 ExpMin= 1.50D-02 ExpMax= 1.94D+04 ExpMxC= 2.91D+03 IAcc=3 IRadAn=         5 AccDes= 0.00D+00
 Harris functional with IExCor=  402 and IRadAn=       5 diagonalized for initial guess.
 HarFok:  IExCor=  402 AccDes= 0.00D+00 IRadAn=         5 IDoV= 1 UseB2=F ITyADJ=14
 ICtDFT=  3500011 ScaDFX=  1.000000  1.000000  1.000000  1.000000
 Defaulting to unpruned grid for atomic number  78.
 FoFCou: FMM=F IPFlag=           0 FMFlag=      100000 FMFlg1=           0
         NFxFlg=           0 DoJE=T BraDBF=F KetDBF=T FulRan=T
         wScrn=  0.000000 ICntrl=       500 IOpCl=  0 I1Cent=   200000004 NGrid=           0
         NMat0=    1 NMatS0=      1 NMatT0=    0 NMatD0=    1 NMtDS0=    0 NMtDT0=    0
 Petite list used in FoFCou.
 Harris En= -1042.71917501310    
 Leave Link  401 at Thu Oct 31 04:12:30 2019, MaxMem=   140000000 cpu:              24.5 elap:               1.0
 (Enter /usr/g16/l502.exe)
 Integral symmetry usage will be decided dynamically.
 Closed shell SCF:
 Using DIIS extrapolation, IDIIS=  1040.
 NGot=   140000000 LenX=   139906737 LenY=   139863447
 Requested convergence on RMS density matrix=1.00D-08 within 128 cycles.
 Requested convergence on MAX density matrix=1.00D-06.
 Requested convergence on             energy=1.00D-06.
 No special actions if energy rises.
 Fock matrices will be formed incrementally for  20 cycles.

 Cycle   1  Pass 1  IDiag  1:
 FoFJK:  IHMeth= 1 ICntrl=       0 DoSepK=F KAlg= 0 I1Cent=           0 FoldK=F
 IRaf= 940000000 NMat=       1 IRICut=       1 DoRegI=T DoRafI=F ISym2E= 0 IDoP0=0 IntGTp=1.
 FoFCou: FMM=F IPFlag=           0 FMFlag=      100000 FMFlg1=           0
         NFxFlg=           0 DoJE=F BraDBF=F KetDBF=F FulRan=T
         wScrn=  0.000000 ICntrl=         0 IOpCl=  0 I1Cent=           0 NGrid=           0
         NMat0=    1 NMatS0=      1 NMatT0=    0 NMatD0=    1 NMtDS0=    0 NMtDT0=    0
 Symmetry not used in FoFCou.
 Defaulting to unpruned grid for atomic number  78.
 Defaulting to unpruned grid for atomic number  78.
 Defaulting to unpruned grid for atomic number  78.
 Defaulting to unpruned grid for atomic number  78.
 Defaulting to unpruned grid for atomic number  78.
 Defaulting to unpruned grid for atomic number  78.
 Defaulting to unpruned grid for atomic number  78.
 Defaulting to unpruned grid for atomic number  78.
 Defaulting to unpruned grid for atomic number  78.
 Defaulting to unpruned grid for atomic number  78.
 Defaulting to unpruned grid for atomic number  78.
 Defaulting to unpruned grid for atomic number  78.
 Defaulting to unpruned grid for atomic number  78.
 Defaulting to unpruned grid for atomic number  78.
 Defaulting to unpruned grid for atomic number  78.
 Defaulting to unpruned grid for atomic number  78.
 Defaulting to unpruned grid for atomic number  78.
 Defaulting to unpruned grid for atomic number  78.
 Defaulting to unpruned grid for atomic number  78.
 Defaulting to unpruned grid for atomic number  78.
 Defaulting to unpruned grid for atomic number  78.
 Defaulting to unpruned grid for atomic number  78.
 Defaulting to unpruned grid for atomic number  78.
 Defaulting to unpruned grid for atomic number  78.
 Inv3:  Mode=1 IEnd=    13687488.
 Iteration    1 A*A^-1 deviation from unit magnitude is 9.10D-15 for    165.
 Iteration    1 A*A^-1 deviation from orthogonality  is 4.66D-15 for   1083    186.
 Iteration    1 A^-1*A deviation from unit magnitude is 8.22D-15 for    165.
 Iteration    1 A^-1*A deviation from orthogonality  is 2.00D-15 for   2055   1359.
 E= -1042.92888657724    
 DIIS: error= 1.13D-03 at cycle   1 NSaved=   1.
 NSaved= 1 IEnMin= 1 EnMin= -1042.92888657724     IErMin= 1 ErrMin= 1.13D-03
 ErrMax= 1.13D-03  0.00D+00 EMaxC= 1.00D-01 BMatC= 6.63D-04 BMatP= 6.63D-04
 IDIUse=3 WtCom= 9.89D-01 WtEn= 1.13D-02
 Coeff-Com:  0.100D+01
 Coeff-En:   0.100D+01
 Coeff:      0.100D+01
 Gap=     3.908 Goal=   None    Shift=    0.000
 GapD=    3.908 DampG=2.000 DampE=1.000 DampFc=2.0000 IDamp=-1.
 RMSDP=1.74D-04 MaxDP=6.18D-03              OVMax= 6.71D-03

 Cycle   2  Pass 1  IDiag  1:
 RMSU=  1.74D-04    CP:  1.00D+00
 E= -1042.92998004101     Delta-E=       -0.001093463776 Rises=F Damp=F
 DIIS: error= 1.17D-04 at cycle   2 NSaved=   2.
 NSaved= 2 IEnMin= 2 EnMin= -1042.92998004101     IErMin= 2 ErrMin= 1.17D-04
 ErrMax= 1.17D-04  0.00D+00 EMaxC= 1.00D-01 BMatC= 5.26D-06 BMatP= 6.63D-04
 IDIUse=3 WtCom= 9.99D-01 WtEn= 1.17D-03
 Coeff-Com: -0.643D-01 0.106D+01
 Coeff-En:   0.000D+00 0.100D+01
 Coeff:     -0.642D-01 0.106D+01
 Gap=     0.197 Goal=   None    Shift=    0.000
 RMSDP=2.80D-05 MaxDP=8.38D-04 DE=-1.09D-03 OVMax= 9.12D-04

 Cycle   3  Pass 1  IDiag  1:
 RMSU=  2.03D-05    CP:  1.00D+00  1.11D+00
 E= -1042.92999048965     Delta-E=       -0.000010448640 Rises=F Damp=F
 DIIS: error= 1.09D-04 at cycle   3 NSaved=   3.
 NSaved= 3 IEnMin= 3 EnMin= -1042.92999048965     IErMin= 3 ErrMin= 1.09D-04
 ErrMax= 1.09D-04  0.00D+00 EMaxC= 1.00D-01 BMatC= 2.23D-06 BMatP= 5.26D-06
 IDIUse=3 WtCom= 9.99D-01 WtEn= 1.09D-03
 Coeff-Com: -0.324D-01 0.489D+00 0.543D+00
 Coeff-En:   0.000D+00 0.000D+00 0.100D+01
 Coeff:     -0.324D-01 0.489D+00 0.544D+00
 Gap=     0.197 Goal=   None    Shift=    0.000
 RMSDP=1.24D-05 MaxDP=5.52D-04 DE=-1.04D-05 OVMax= 5.62D-04

 Cycle   4  Pass 1  IDiag  1:
 RMSU=  1.00D-05    CP:  1.00D+00  1.12D+00  6.49D-01
 E= -1042.92999156481     Delta-E=       -0.000001075158 Rises=F Damp=F
 DIIS: error= 8.66D-05 at cycle   4 NSaved=   4.
 NSaved= 4 IEnMin= 4 EnMin= -1042.92999156481     IErMin= 4 ErrMin= 8.66D-05
 ErrMax= 8.66D-05  0.00D+00 EMaxC= 1.00D-01 BMatC= 1.18D-06 BMatP= 2.23D-06
 IDIUse=1 WtCom= 1.00D+00 WtEn= 0.00D+00
 Coeff-Com: -0.693D-02 0.782D-01 0.409D+00 0.520D+00
 Coeff:     -0.693D-02 0.782D-01 0.409D+00 0.520D+00
 Gap=     0.197 Goal=   None    Shift=    0.000
 RMSDP=6.02D-06 MaxDP=3.06D-04 DE=-1.08D-06 OVMax= 3.07D-04

 Cycle   5  Pass 1  IDiag  1:
 RMSU=  3.13D-06    CP:  1.00D+00  1.12D+00  7.88D-01  5.80D-01
 E= -1042.92999250396     Delta-E=       -0.000000939154 Rises=F Damp=F
 DIIS: error= 1.50D-05 at cycle   5 NSaved=   5.
 NSaved= 5 IEnMin= 5 EnMin= -1042.92999250396     IErMin= 5 ErrMin= 1.50D-05
 ErrMax= 1.50D-05  0.00D+00 EMaxC= 1.00D-01 BMatC= 7.50D-08 BMatP= 1.18D-06
 IDIUse=1 WtCom= 1.00D+00 WtEn= 0.00D+00
 Coeff-Com: -0.973D-03-0.127D-02 0.186D+00 0.300D+00 0.516D+00
 Coeff:     -0.973D-03-0.127D-02 0.186D+00 0.300D+00 0.516D+00
 Gap=     0.197 Goal=   None    Shift=    0.000
 RMSDP=1.62D-06 MaxDP=4.56D-05 DE=-9.39D-07 OVMax= 5.22D-05

 Cycle   6  Pass 1  IDiag  1:
 RMSU=  8.05D-07    CP:  1.00D+00  1.12D+00  7.98D-01  6.40D-01  5.99D-01
 E= -1042.92999257851     Delta-E=       -0.000000074548 Rises=F Damp=F
 DIIS: error= 2.05D-06 at cycle   6 NSaved=   6.
 NSaved= 6 IEnMin= 6 EnMin= -1042.92999257851     IErMin= 6 ErrMin= 2.05D-06
 ErrMax= 2.05D-06  0.00D+00 EMaxC= 1.00D-01 BMatC= 2.04D-09 BMatP= 7.50D-08
 IDIUse=1 WtCom= 1.00D+00 WtEn= 0.00D+00
 Coeff-Com:  0.183D-03-0.710D-02 0.386D-01 0.717D-01 0.205D+00 0.692D+00
 Coeff:      0.183D-03-0.710D-02 0.386D-01 0.717D-01 0.205D+00 0.692D+00
 Gap=     0.197 Goal=   None    Shift=    0.000
 RMSDP=2.96D-07 MaxDP=6.05D-06 DE=-7.45D-08 OVMax= 8.65D-06

 Cycle   7  Pass 1  IDiag  1:
 RMSU=  1.62D-07    CP:  1.00D+00  1.12D+00  8.03D-01  6.40D-01  6.25D-01
                    CP:  7.44D-01
 E= -1042.92999258076     Delta-E=       -0.000000002250 Rises=F Damp=F
 DIIS: error= 3.15D-07 at cycle   7 NSaved=   7.
 NSaved= 7 IEnMin= 7 EnMin= -1042.92999258076     IErMin= 7 ErrMin= 3.15D-07
 ErrMax= 3.15D-07  0.00D+00 EMaxC= 1.00D-01 BMatC= 4.78D-11 BMatP= 2.04D-09
 IDIUse=1 WtCom= 1.00D+00 WtEn= 0.00D+00
 Coeff-Com:  0.867D-04-0.248D-02 0.891D-02 0.176D-01 0.594D-01 0.243D+00
 Coeff-Com:  0.673D+00
 Coeff:      0.867D-04-0.248D-02 0.891D-02 0.176D-01 0.594D-01 0.243D+00
 Coeff:      0.673D+00
 Gap=     0.197 Goal=   None    Shift=    0.000
 RMSDP=7.59D-08 MaxDP=2.89D-06 DE=-2.25D-09 OVMax= 2.94D-06

 Cycle   8  Pass 1  IDiag  1:
 RMSU=  5.53D-08    CP:  1.00D+00  1.12D+00  8.03D-01  6.40D-01  6.35D-01
                    CP:  7.69D-01  7.90D-01
 E= -1042.92999258082     Delta-E=       -0.000000000058 Rises=F Damp=F
 DIIS: error= 9.50D-08 at cycle   8 NSaved=   8.
 NSaved= 8 IEnMin= 8 EnMin= -1042.92999258082     IErMin= 8 ErrMin= 9.50D-08
 ErrMax= 9.50D-08  0.00D+00 EMaxC= 1.00D-01 BMatC= 6.87D-12 BMatP= 4.78D-11
 IDIUse=1 WtCom= 1.00D+00 WtEn= 0.00D+00
 Coeff-Com:  0.131D-04-0.104D-03-0.143D-02-0.207D-02-0.209D-02 0.116D-01
 Coeff-Com:  0.274D+00 0.720D+00
 Coeff:      0.131D-04-0.104D-03-0.143D-02-0.207D-02-0.209D-02 0.116D-01
 Coeff:      0.274D+00 0.720D+00
 Gap=     0.197 Goal=   None    Shift=    0.000
 RMSDP=2.52D-08 MaxDP=1.16D-06 DE=-5.78D-11 OVMax= 1.08D-06

 Cycle   9  Pass 1  IDiag  1:
 RMSU=  1.54D-08    CP:  1.00D+00  1.12D+00  8.03D-01  6.41D-01  6.35D-01
                    CP:  7.80D-01  8.82D-01  8.52D-01
 E= -1042.92999258082     Delta-E=        0.000000000000 Rises=F Damp=F
 DIIS: error= 2.59D-08 at cycle   9 NSaved=   9.
 NSaved= 9 IEnMin= 8 EnMin= -1042.92999258082     IErMin= 9 ErrMin= 2.59D-08
 ErrMax= 2.59D-08  0.00D+00 EMaxC= 1.00D-01 BMatC= 4.63D-13 BMatP= 6.87D-12
 IDIUse=1 WtCom= 1.00D+00 WtEn= 0.00D+00
 Coeff-Com: -0.202D-05 0.163D-03-0.127D-02-0.221D-02-0.564D-02-0.155D-01
 Coeff-Com:  0.463D-01 0.268D+00 0.710D+00
 Coeff:     -0.202D-05 0.163D-03-0.127D-02-0.221D-02-0.564D-02-0.155D-01
 Coeff:      0.463D-01 0.268D+00 0.710D+00
 Gap=     0.197 Goal=   None    Shift=    0.000
 RMSDP=6.29D-09 MaxDP=1.90D-07 DE= 4.55D-13 OVMax= 3.16D-07

 Error on total polarization charges =  0.04758
 SCF Done:  E(RB3LYP) =  -1042.92999258     A.U. after    9 cycles
            NFock=  9  Conv=0.63D-08     -V/T= 2.0858
 KE= 9.605455180753D+02 PE=-4.118003611671D+03 EE= 1.269294903617D+03
 SMD-CDS (non-electrostatic) energy       (kcal/mol) =       0.04
 (included in total energy above)
 Leave Link  502 at Thu Oct 31 04:12:47 2019, MaxMem=   140000000 cpu:             385.1 elap:              17.3
 (Enter /usr/g16/l801.exe)
 DoSCS=F DFT=T ScalE2(SS,OS)=  1.000000  1.000000
 Range of M.O.s used for correlation:     1   196
 NBasis=   196 NAE=    52 NBE=    52 NFC=     0 NFV=     0
 NROrb=    196 NOA=    52 NOB=    52 NVA=   144 NVB=   144
 Leave Link  801 at Thu Oct 31 04:12:47 2019, MaxMem=   140000000 cpu:               0.5 elap:               0.0
 (Enter /usr/g16/l1101.exe)
 Using compressed storage, NAtomX=    29.
 Will process     30 centers per pass.
   1 Symmetry operations used in ECPInt.
 ECPInt:  NShTT=    3916 NPrTT=   20546 LenC2=    3799 LenP2D=   13582.
 LDataN:  DoStor=T MaxTD1= 8 Len=  415
 Number of processors reduced to   7 by ecpmxn.
 R6Disp: Adding Grimme-D3(BJ) dispersion energy 1st derivatives to the gradient.
 Leave Link 1101 at Thu Oct 31 04:12:48 2019, MaxMem=   140000000 cpu:              12.6 elap:               0.9
 (Enter /usr/g16/l1102.exe)
 Symmetrizing basis deriv contribution to polar:
 IMax=3 JMax=2 DiffMx= 0.00D+00
 Leave Link 1102 at Thu Oct 31 04:12:48 2019, MaxMem=   140000000 cpu:               1.7 elap:               0.1
 (Enter /usr/g16/l1110.exe)
 Forming Gx(P) for the SCF density, NAtomX=    29.
 Integral derivatives from FoFJK, PRISM(SPDF).
 Do as many integral derivatives as possible in FoFJK.
 G2DrvN: MDV=     139997776.
 G2DrvN: will do    30 centers at a time, making    1 passes.
 Calling FoFCou, ICntrl=  3107 FMM=F I1Cent=   0 AccDes= 0.00D+00.
 FoFJK:  IHMeth= 1 ICntrl=    3107 DoSepK=F KAlg= 0 I1Cent=           0 FoldK=F
 IRaf=         0 NMat=       1 IRICut=       1 DoRegI=T DoRafI=F ISym2E= 0 IDoP0=0 IntGTp=1.
 FoFCou: FMM=F IPFlag=           0 FMFlag=      100000 FMFlg1=           0
         NFxFlg=           0 DoJE=F BraDBF=F KetDBF=F FulRan=T
         wScrn=  0.000000 ICntrl=      3107 IOpCl=  0 I1Cent=           0 NGrid=           0
         NMat0=    1 NMatS0=      1 NMatT0=    0 NMatD0=    1 NMtDS0=    0 NMtDT0=    0
 Symmetry not used in FoFCou.
 Defaulting to unpruned grid for atomic number  78.
 Defaulting to unpruned grid for atomic number  78.
 Defaulting to unpruned grid for atomic number  78.
 Defaulting to unpruned grid for atomic number  78.
 Defaulting to unpruned grid for atomic number  78.
 Defaulting to unpruned grid for atomic number  78.
 Defaulting to unpruned grid for atomic number  78.
 Defaulting to unpruned grid for atomic number  78.
 Defaulting to unpruned grid for atomic number  78.
 Defaulting to unpruned grid for atomic number  78.
 Defaulting to unpruned grid for atomic number  78.
 Defaulting to unpruned grid for atomic number  78.
 Defaulting to unpruned grid for atomic number  78.
 Defaulting to unpruned grid for atomic number  78.
 Defaulting to unpruned grid for atomic number  78.
 Defaulting to unpruned grid for atomic number  78.
 Defaulting to unpruned grid for atomic number  78.
 Defaulting to unpruned grid for atomic number  78.
 Defaulting to unpruned grid for atomic number  78.
 Defaulting to unpruned grid for atomic number  78.
 Defaulting to unpruned grid for atomic number  78.
 Defaulting to unpruned grid for atomic number  78.
 Defaulting to unpruned grid for atomic number  78.
 Defaulting to unpruned grid for atomic number  78.
 NEqPCM:  Using equilibrium solvation (IEInf=0, Eps=   2.2706, EpsInf=   2.2533)
 G2PCM: DoFxE=T DoFxN=T DoGrad=T DoDP/DQ/DG/TGxP=FFFF NFrqRd=   0 IEInf=0 SqF1=F DoCFld=F IF1Alg=4.
 GePol: Maximum number of non-zero 1st derivatives   =     243
 CoulSu:  requested number of processors reduced to:  17 ShMem   1 Linda.
 CoulSu:  requested number of processors reduced to:  20 ShMem   1 Linda.
 End of G2Drv F.D. properties file   721 does not exist.
 End of G2Drv F.D. properties file   722 does not exist.
 End of G2Drv F.D. properties file   788 does not exist.
 Leave Link 1110 at Thu Oct 31 04:13:30 2019, MaxMem=   140000000 cpu:             992.8 elap:              41.6
 (Enter /usr/g16/l1002.exe)
 Minotr:  Closed shell wavefunction.
          IDoAtm=11111111111111111111111111111
 NEqPCM:  Using equilibrium solvation (IEInf=0, Eps=   2.2706, EpsInf=   2.2533)
          Direct CPHF calculation.
          Differentiating once with respect to nuclear coordinates.
          Requested convergence is 1.0D-08 RMS, and 1.0D-07 maximum.
          Secondary convergence is 1.0D-12 RMS, and 1.0D-12 maximum.
          NewPWx=T KeepS1=F KeepF1=F KeepIn=T MapXYZ=F SortEE=F KeepMc=T.
 Defaulting to unpruned grid for atomic number  78.
         8993 words used for storage of precomputed grid.
 Two-electron integrals replicated using symmetry.
          MDV=     140000000 using IRadAn=       1.
          Solving linear equations simultaneously, MaxMat=     384.
 FoF2E skips out because all densities are zero.
 CalDSu exits because no D1Ps are significant.
 FoFJK:  IHMeth= 1 ICntrl=       0 DoSepK=F KAlg= 0 I1Cent=           0 FoldK=F
 IRaf= 920000000 NMat=      48 IRICut=     120 DoRegI=T DoRafI=T ISym2E= 2 IDoP0=3 IntGTp=3.
 Defaulting to unpruned grid for atomic number  78.
 Defaulting to unpruned grid for atomic number  78.
 Defaulting to unpruned grid for atomic number  78.
 Defaulting to unpruned grid for atomic number  78.
 Defaulting to unpruned grid for atomic number  78.
 Defaulting to unpruned grid for atomic number  78.
 Defaulting to unpruned grid for atomic number  78.
 Defaulting to unpruned grid for atomic number  78.
 Defaulting to unpruned grid for atomic number  78.
 Defaulting to unpruned grid for atomic number  78.
 Defaulting to unpruned grid for atomic number  78.
 Defaulting to unpruned grid for atomic number  78.
 Defaulting to unpruned grid for atomic number  78.
 Defaulting to unpruned grid for atomic number  78.
 Defaulting to unpruned grid for atomic number  78.
 Defaulting to unpruned grid for atomic number  78.
 Defaulting to unpruned grid for atomic number  78.
 Defaulting to unpruned grid for atomic number  78.
 Defaulting to unpruned grid for atomic number  78.
 Defaulting to unpruned grid for atomic number  78.
 Defaulting to unpruned grid for atomic number  78.
 Defaulting to unpruned grid for atomic number  78.
 Defaulting to unpruned grid for atomic number  78.
 Defaulting to unpruned grid for atomic number  78.
          There are    90 degrees of freedom in the 1st order CPHF.  IDoFFX=6 NUNeed=     0.
     84 vectors produced by pass  0 Test12= 8.32D-15 1.11D-09 XBig12= 7.01D-02 9.16D-02.
 AX will form    48 AO Fock derivatives at one time.
     84 vectors produced by pass  1 Test12= 8.32D-15 1.11D-09 XBig12= 9.56D-03 2.98D-02.
     84 vectors produced by pass  2 Test12= 8.32D-15 1.11D-09 XBig12= 1.72D-04 3.35D-03.
     84 vectors produced by pass  3 Test12= 8.32D-15 1.11D-09 XBig12= 3.00D-07 8.06D-05.
     84 vectors produced by pass  4 Test12= 8.32D-15 1.11D-09 XBig12= 5.51D-10 4.61D-06.
     46 vectors produced by pass  5 Test12= 8.32D-15 1.11D-09 XBig12= 5.95D-13 1.44D-07.
      2 vectors produced by pass  6 Test12= 8.32D-15 1.11D-09 XBig12= 4.20D-16 2.71D-09.
 InvSVY:  IOpt=1 It=  1 EMax= 3.89D-16
 Solved reduced A of dimension   468 with    90 vectors.
 End of Minotr F.D. properties file   721 does not exist.
 End of Minotr F.D. properties file   722 does not exist.
 End of Minotr F.D. properties file   788 does not exist.
 Leave Link 1002 at Thu Oct 31 04:14:24 2019, MaxMem=   140000000 cpu:            1299.8 elap:              54.2
 (Enter /usr/g16/l601.exe)
 Copying SCF densities to generalized density rwf, IOpCl= 0 IROHF=0.

 **********************************************************************

            Population analysis using the SCF density.

 **********************************************************************

 Orbital symmetries:
       Occupied  (A) (A) (A) (A) (A) (A) (A) (A) (A) (A) (A) (A)
                 (A) (A) (A) (A) (A) (A) (A) (A) (A) (A) (A) (A)
                 (A) (A) (A) (A) (A) (A) (A) (A) (A) (A) (A) (A)
                 (A) (A) (A) (A) (A) (A) (A) (A) (A) (A) (A) (A)
                 (A) (A) (A) (A)
       Virtual   (A) (A) (A) (A) (A) (A) (A) (A) (A) (A) (A) (A)
                 (A) (A) (A) (A) (A) (A) (A) (A) (A) (A) (A) (A)
                 (A) (A) (A) (A) (A) (A) (A) (A) (A) (A) (A) (A)
                 (A) (A) (A) (A) (A) (A) (A) (A) (A) (A) (A) (A)
                 (A) (A) (A) (A) (A) (A) (A) (A) (A) (A) (A) (A)
                 (A) (A) (A) (A) (A) (A) (A) (A) (A) (A) (A) (A)
                 (A) (A) (A) (A) (A) (A) (A) (A) (A) (A) (A) (A)
                 (A) (A) (A) (A) (A) (A) (A) (A) (A) (A) (A) (A)
                 (A) (A) (A) (A) (A) (A) (A) (A) (A) (A) (A) (A)
                 (A) (A) (A) (A) (A) (A) (A) (A) (A) (A) (A) (A)
                 (A) (A) (A) (A) (A) (A) (A) (A) (A) (A) (A) (A)
                 (A) (A) (A) (A) (A) (A) (A) (A) (A) (A) (A) (A)
 The electronic state is 1-A.
 Alpha  occ. eigenvalues --  -77.09028 -77.08997 -10.17742 -10.17617 -10.17458
 Alpha  occ. eigenvalues --  -10.17259 -10.17137 -10.16999  -6.56855  -6.56835
 Alpha  occ. eigenvalues --   -4.73046  -4.73029  -4.73025  -4.73009  -4.72708
 Alpha  occ. eigenvalues --   -4.72687  -3.89203  -2.14569  -2.14221  -2.11129
 Alpha  occ. eigenvalues --   -0.76956  -0.76628  -0.69674  -0.69211  -0.69065
 Alpha  occ. eigenvalues --   -0.68974  -0.55073  -0.54240  -0.45161  -0.43864
 Alpha  occ. eigenvalues --   -0.43225  -0.42780  -0.42718  -0.42576  -0.40836
 Alpha  occ. eigenvalues --   -0.40279  -0.40215  -0.39723  -0.38770  -0.38645
 Alpha  occ. eigenvalues --   -0.36705  -0.36186  -0.34241  -0.33735  -0.33665
 Alpha  occ. eigenvalues --   -0.33113  -0.27300  -0.24415  -0.23711  -0.23600
 Alpha  occ. eigenvalues --   -0.23103  -0.20687
 Alpha virt. eigenvalues --   -0.00974   0.00232   0.02280   0.04686   0.05768
 Alpha virt. eigenvalues --    0.07588   0.08120   0.08695   0.09133   0.09710
 Alpha virt. eigenvalues --    0.10063   0.11096   0.11897   0.12407   0.12600
 Alpha virt. eigenvalues --    0.12763   0.14477   0.15579   0.15670   0.16566
 Alpha virt. eigenvalues --    0.16721   0.17688   0.18060   0.18668   0.18832
 Alpha virt. eigenvalues --    0.19398   0.19917   0.20986   0.21589   0.21870
 Alpha virt. eigenvalues --    0.22708   0.23077   0.24165   0.26124   0.26967
 Alpha virt. eigenvalues --    0.28960   0.31733   0.32552   0.36504   0.38857
 Alpha virt. eigenvalues --    0.41830   0.42018   0.43365   0.43645   0.44375
 Alpha virt. eigenvalues --    0.46949   0.48436   0.49488   0.55867   0.58636
 Alpha virt. eigenvalues --    0.59527   0.62377   0.62549   0.64147   0.64740
 Alpha virt. eigenvalues --    0.65434   0.66549   0.67707   0.68065   0.68587
 Alpha virt. eigenvalues --    0.70605   0.71504   0.73226   0.75706   0.76126
 Alpha virt. eigenvalues --    0.78345   0.80746   0.80907   0.81744   0.83008
 Alpha virt. eigenvalues --    0.83241   0.83678   0.84804   0.85344   0.87088
 Alpha virt. eigenvalues --    0.88509   0.90318   0.90580   0.91295   0.92042
 Alpha virt. eigenvalues --    0.92197   0.93234   0.93533   0.94424   0.94860
 Alpha virt. eigenvalues --    0.95238   0.96174   0.96592   0.96820   0.98935
 Alpha virt. eigenvalues --    1.00169   1.01183   1.03447   1.05120   1.06098
 Alpha virt. eigenvalues --    1.09249   1.10128   1.11158   1.17126   1.32346
 Alpha virt. eigenvalues --    1.34871   1.36415   1.37120   1.38471   1.39851
 Alpha virt. eigenvalues --    1.41790   1.46132   1.50674   1.59619   1.65322
 Alpha virt. eigenvalues --    1.65499   1.70238   1.70475   1.70787   1.71449
 Alpha virt. eigenvalues --    1.79476   1.80063   1.82147   1.83043   1.91118
 Alpha virt. eigenvalues --    1.92967   2.10809   2.11349   2.22286   2.22751
 Alpha virt. eigenvalues --    2.23091   2.23539   2.23888   2.25200   2.25825
 Alpha virt. eigenvalues --    2.25954   2.26704   2.26960   2.27040   2.27398
 Alpha virt. eigenvalues --    2.28137   2.28903   2.29462   2.33368   2.58844
 Alpha virt. eigenvalues --   45.82032  45.89622  45.92752 114.24109
          Condensed to atoms (all electrons):
               1          2          3          4          5          6
     1  Pt  17.820112   0.203413   0.197820  -0.014535   0.003021   0.006228
     2  P    0.203413  13.391948   0.006770   0.330897  -0.027024  -0.019270
     3  P    0.197820   0.006770  13.391022   0.000375   0.000026  -0.000015
     4  C   -0.014535   0.330897   0.000375   5.331553   0.367085   0.347722
     5  H    0.003021  -0.027024   0.000026   0.367085   0.498245  -0.027190
     6  H    0.006228  -0.019270  -0.000015   0.347722  -0.027190   0.548066
     7  H    0.005005  -0.024553  -0.000000   0.367682  -0.021972  -0.025400
     8  C   -0.006972   0.315744  -0.004260  -0.038651  -0.001193  -0.004237
     9  H    0.000871  -0.025533  -0.000295   0.002245   0.000000  -0.000028
    10  H    0.004959  -0.016515   0.000176  -0.004291  -0.000266   0.003144
    11  H    0.003222  -0.027701  -0.001748  -0.001282   0.000835  -0.000314
    12  C   -0.008444   0.321986  -0.000081  -0.034330   0.002131  -0.003874
    13  H    0.004432  -0.025606   0.000022  -0.001446   0.000002  -0.000251
    14  H    0.006022  -0.018873  -0.000004  -0.003915  -0.000044   0.002688
    15  H    0.002940  -0.026789  -0.000077   0.002128  -0.000042  -0.000048
    16  C   -0.014193   0.000443   0.335059  -0.000000  -0.000000   0.000000
    17  H    0.005065  -0.000000  -0.025195  -0.000000   0.000000   0.000000
    18  H    0.006077  -0.000021  -0.018598   0.000000   0.000000  -0.000000
    19  H    0.003628   0.000040  -0.027278  -0.000000   0.000000   0.000000
    20  C   -0.006256  -0.004526   0.316977  -0.000011  -0.000001   0.000000
    21  H    0.005217   0.000182  -0.017713  -0.000000   0.000000  -0.000000
    22  H    0.000325  -0.001274  -0.024402   0.000009  -0.000001  -0.000000
    23  H    0.004140  -0.000677  -0.028814  -0.000000  -0.000010  -0.000000
    24  C   -0.005916  -0.000627   0.320345  -0.000000  -0.000000   0.000000
    25  H    0.002685  -0.000048  -0.026754  -0.000000   0.000000  -0.000000
    26  H    0.005708   0.000021  -0.018842   0.000000   0.000000  -0.000000
    27  H    0.004204   0.000008  -0.025881  -0.000000   0.000000   0.000000
    28  H    0.338225  -0.019229   0.006018   0.000108   0.000007  -0.000001
    29  H    0.334184   0.011119  -0.019289  -0.003819  -0.000068   0.000121
               7          8          9         10         11         12
     1  Pt   0.005005  -0.006972   0.000871   0.004959   0.003222  -0.008444
     2  P   -0.024553   0.315744  -0.025533  -0.016515  -0.027701   0.321986
     3  P   -0.000000  -0.004260  -0.000295   0.000176  -0.001748  -0.000081
     4  C    0.367682  -0.038651   0.002245  -0.004291  -0.001282  -0.034330
     5  H   -0.021972  -0.001193   0.000000  -0.000266   0.000835   0.002131
     6  H   -0.025400  -0.004237  -0.000028   0.003144  -0.000314  -0.003874
     7  H    0.480339   0.002140  -0.000044  -0.000021   0.000002  -0.001709
     8  C    0.002140   5.348936   0.365528   0.350806   0.368299  -0.037922
     9  H   -0.000044   0.365528   0.518124  -0.026984  -0.024695  -0.001596
    10  H   -0.000021   0.350806  -0.026984   0.537265  -0.026559  -0.004258
    11  H    0.000002   0.368299  -0.024695  -0.026559   0.509764   0.002219
    12  C   -0.001709  -0.037922  -0.001596  -0.004258   0.002219   5.334933
    13  H    0.000724   0.002156   0.000008  -0.000031  -0.000043   0.368183
    14  H   -0.000266  -0.004069  -0.000279   0.003021  -0.000038   0.348559
    15  H    0.000015  -0.001203   0.001080  -0.000289  -0.000005   0.365993
    16  C    0.000000  -0.000003   0.000000   0.000000   0.000000  -0.000000
    17  H    0.000000   0.000000   0.000000  -0.000000  -0.000000   0.000000
    18  H    0.000000   0.000000  -0.000000  -0.000000  -0.000000   0.000000
    19  H    0.000000   0.000000   0.000000   0.000000  -0.000000  -0.000000
    20  C    0.000000  -0.001644  -0.001281   0.000075   0.000093   0.000008
    21  H   -0.000000   0.000046  -0.000014  -0.000001  -0.000001   0.000000
    22  H   -0.000000   0.000790   0.002635   0.000001   0.000410   0.000002
    23  H    0.000000  -0.000219  -0.000068  -0.000009   0.000649  -0.000000
    24  C    0.000000  -0.000016   0.000022  -0.000001   0.000011   0.000001
    25  H    0.000000  -0.000003   0.000072  -0.000002  -0.000009  -0.000012
    26  H   -0.000000  -0.000002  -0.000007   0.000000  -0.000000   0.000000
    27  H    0.000000   0.000002  -0.000001   0.000000  -0.000000  -0.000000
    28  H    0.000004   0.000037   0.000001  -0.000001   0.000001   0.000102
    29  H    0.000255   0.000293   0.000001  -0.000003   0.000004  -0.002074
              13         14         15         16         17         18
     1  Pt   0.004432   0.006022   0.002940  -0.014193   0.005065   0.006077
     2  P   -0.025606  -0.018873  -0.026789   0.000443  -0.000000  -0.000021
     3  P    0.000022  -0.000004  -0.000077   0.335059  -0.025195  -0.018598
     4  C   -0.001446  -0.003915   0.002128  -0.000000  -0.000000   0.000000
     5  H    0.000002  -0.000044  -0.000042  -0.000000   0.000000   0.000000
     6  H   -0.000251   0.002688  -0.000048   0.000000   0.000000  -0.000000
     7  H    0.000724  -0.000266   0.000015   0.000000   0.000000   0.000000
     8  C    0.002156  -0.004069  -0.001203  -0.000003   0.000000   0.000000
     9  H    0.000008  -0.000279   0.001080   0.000000   0.000000  -0.000000
    10  H   -0.000031   0.003021  -0.000289   0.000000  -0.000000  -0.000000
    11  H   -0.000043  -0.000038  -0.000005   0.000000  -0.000000  -0.000000
    12  C    0.368183   0.348559   0.365993  -0.000000   0.000000   0.000000
    13  H    0.480789  -0.025796  -0.021647  -0.000000   0.000000   0.000000
    14  H   -0.025796   0.545545  -0.027375   0.000000  -0.000000  -0.000000
    15  H   -0.021647  -0.027375   0.503715  -0.000000   0.000000   0.000000
    16  C   -0.000000   0.000000  -0.000000   5.329892   0.367583   0.345344
    17  H    0.000000  -0.000000   0.000000   0.367583   0.484790  -0.025565
    18  H    0.000000  -0.000000   0.000000   0.345344  -0.025565   0.552608
    19  H    0.000000   0.000000   0.000000   0.368393  -0.022209  -0.026962
    20  C    0.000000  -0.000000   0.000001  -0.039637   0.002193  -0.004320
    21  H   -0.000000   0.000000  -0.000000  -0.004799  -0.000001   0.003438
    22  H   -0.000000  -0.000000  -0.000006   0.002274  -0.000048  -0.000018
    23  H    0.000000  -0.000000   0.000000  -0.000850  -0.000008  -0.000292
    24  C   -0.000000   0.000000  -0.000001  -0.035699  -0.001663  -0.003790
    25  H    0.000000  -0.000000  -0.000031   0.002174   0.000019  -0.000055
    26  H   -0.000000  -0.000000  -0.000000  -0.003663  -0.000252   0.002566
    27  H    0.000000   0.000000   0.000000  -0.001357   0.000846  -0.000269
    28  H    0.000007  -0.000001   0.000005  -0.005078  -0.000056   0.000216
    29  H    0.000171   0.000054  -0.000004   0.000092   0.000002  -0.000001
              19         20         21         22         23         24
     1  Pt   0.003628  -0.006256   0.005217   0.000325   0.004140  -0.005916
     2  P    0.000040  -0.004526   0.000182  -0.001274  -0.000677  -0.000627
     3  P   -0.027278   0.316977  -0.017713  -0.024402  -0.028814   0.320345
     4  C   -0.000000  -0.000011  -0.000000   0.000009  -0.000000  -0.000000
     5  H    0.000000  -0.000001   0.000000  -0.000001  -0.000010  -0.000000
     6  H    0.000000   0.000000  -0.000000  -0.000000  -0.000000   0.000000
     7  H    0.000000   0.000000  -0.000000  -0.000000   0.000000   0.000000
     8  C    0.000000  -0.001644   0.000046   0.000790  -0.000219  -0.000016
     9  H    0.000000  -0.001281  -0.000014   0.002635  -0.000068   0.000022
    10  H    0.000000   0.000075  -0.000001   0.000001  -0.000009  -0.000001
    11  H   -0.000000   0.000093  -0.000001   0.000410   0.000649   0.000011
    12  C   -0.000000   0.000008   0.000000   0.000002  -0.000000   0.000001
    13  H    0.000000   0.000000  -0.000000  -0.000000   0.000000  -0.000000
    14  H    0.000000  -0.000000   0.000000  -0.000000  -0.000000   0.000000
    15  H    0.000000   0.000001  -0.000000  -0.000006   0.000000  -0.000001
    16  C    0.368393  -0.039637  -0.004799   0.002274  -0.000850  -0.035699
    17  H   -0.022209   0.002193  -0.000001  -0.000048  -0.000008  -0.001663
    18  H   -0.026962  -0.004320   0.003438  -0.000018  -0.000292  -0.003790
    19  H    0.493658  -0.001157  -0.000295  -0.000002   0.000716   0.002113
    20  C   -0.001157   5.347949   0.351368   0.363948   0.368807  -0.036829
    21  H   -0.000295   0.351368   0.537648  -0.025958  -0.026913  -0.003648
    22  H   -0.000002   0.363948  -0.025958   0.519909  -0.023396  -0.001883
    23  H    0.000716   0.368807  -0.026913  -0.023396   0.502315   0.002195
    24  C    0.002113  -0.036829  -0.003648  -0.001883   0.002195   5.335207
    25  H   -0.000041  -0.001217  -0.000253   0.001148  -0.000007   0.365338
    26  H   -0.000045  -0.003995   0.002731  -0.000250  -0.000040   0.349333
    27  H   -0.000003   0.002121  -0.000049   0.000014  -0.000041   0.368247
    28  H   -0.000335   0.000283  -0.000002  -0.000001   0.000011  -0.000362
    29  H    0.000007   0.000046  -0.000001   0.000000   0.000003   0.000088
              25         26         27         28         29
     1  Pt   0.002685   0.005708   0.004204   0.338225   0.334184
     2  P   -0.000048   0.000021   0.000008  -0.019229   0.011119
     3  P   -0.026754  -0.018842  -0.025881   0.006018  -0.019289
     4  C   -0.000000   0.000000  -0.000000   0.000108  -0.003819
     5  H    0.000000   0.000000   0.000000   0.000007  -0.000068
     6  H   -0.000000  -0.000000   0.000000  -0.000001   0.000121
     7  H    0.000000  -0.000000   0.000000   0.000004   0.000255
     8  C   -0.000003  -0.000002   0.000002   0.000037   0.000293
     9  H    0.000072  -0.000007  -0.000001   0.000001   0.000001
    10  H   -0.000002   0.000000   0.000000  -0.000001  -0.000003
    11  H   -0.000009  -0.000000  -0.000000   0.000001   0.000004
    12  C   -0.000012   0.000000  -0.000000   0.000102  -0.002074
    13  H    0.000000  -0.000000   0.000000   0.000007   0.000171
    14  H   -0.000000  -0.000000   0.000000  -0.000001   0.000054
    15  H   -0.000031  -0.000000   0.000000   0.000005  -0.000004
    16  C    0.002174  -0.003663  -0.001357  -0.005078   0.000092
    17  H    0.000019  -0.000252   0.000846  -0.000056   0.000002
    18  H   -0.000055   0.002566  -0.000269   0.000216  -0.000001
    19  H   -0.000041  -0.000045  -0.000003  -0.000335   0.000007
    20  C   -0.001217  -0.003995   0.002121   0.000283   0.000046
    21  H   -0.000253   0.002731  -0.000049  -0.000002  -0.000001
    22  H    0.001148  -0.000250   0.000014  -0.000001   0.000000
    23  H   -0.000007  -0.000040  -0.000041   0.000011   0.000003
    24  C    0.365338   0.349333   0.368247  -0.000362   0.000088
    25  H    0.507914  -0.027476  -0.022075  -0.000013   0.000004
    26  H   -0.027476   0.543658  -0.026189   0.000012  -0.000001
    27  H   -0.022075  -0.026189   0.485472   0.000086   0.000005
    28  H   -0.000013   0.000012   0.000086   0.668316   0.017806
    29  H    0.000004  -0.000001   0.000005   0.017806   0.670836
 Mulliken charges:
               1
     1  Pt  -0.911188
     2  P    0.655694
     3  P    0.664638
     4  C   -0.647522
     5  H    0.206460
     6  H    0.172659
     7  H    0.217799
     8  C   -0.654383
     9  H    0.190237
    10  H    0.179784
    11  H    0.196885
    12  C   -0.649816
    13  H    0.218327
    14  H    0.174772
    15  H    0.201639
    16  C   -0.645973
    17  H    0.214499
    18  H    0.169642
    19  H    0.209772
    20  C   -0.652995
    21  H    0.179018
    22  H    0.185774
    23  H    0.202506
    24  C   -0.652464
    25  H    0.198640
    26  H    0.176732
    27  H    0.214860
    28  H   -0.006164
    29  H   -0.009832
 Sum of Mulliken charges =  -0.00000
 Mulliken charges with hydrogens summed into heavy atoms:
               1
     1  Pt  -0.927184
     2  P    0.655694
     3  P    0.664638
     4  C   -0.050604
     8  C   -0.087478
    12  C   -0.055077
    16  C   -0.052060
    20  C   -0.085697
    24  C   -0.062232
 APT charges:
               1
     1  Pt  -1.050881
     2  P    0.151241
     3  P    0.161076
     4  C   -1.366376
     5  H    0.357494
     6  H    0.660772
     7  H    0.461892
     8  C   -1.310296
     9  H    0.341020
    10  H    0.681789
    11  H    0.357478
    12  C   -1.360496
    13  H    0.450766
    14  H    0.668132
    15  H    0.341392
    16  C   -1.372526
    17  H    0.456905
    18  H    0.651372
    19  H    0.389687
    20  C   -1.310505
    21  H    0.681047
    22  H    0.331997
    23  H    0.365739
    24  C   -1.345121
    25  H    0.307860
    26  H    0.669544
    27  H    0.452215
    28  H    0.092815
    29  H    0.083968
 Sum of APT charges =  -0.00000
 APT charges with hydrogens summed into heavy atoms:
               1
     1  Pt  -0.874099
     2  P    0.151241
     3  P    0.161076
     4  C    0.113782
     8  C    0.069991
    12  C    0.099794
    16  C    0.125438
    20  C    0.068278
    24  C    0.084498
 Electronic spatial extent (au):  <R**2>=           2845.2490
 Charge=              0.0000 electrons
 Dipole moment (field-independent basis, Debye):
    X=              0.0312    Y=             -7.3893    Z=             -0.0756  Tot=              7.3897
 Quadrupole moment (field-independent basis, Debye-Ang):
   XX=            -76.3769   YY=            -98.8063   ZZ=            -91.2117
   XY=             -0.0394   XZ=              0.0934   YZ=             -0.1135
 Traceless Quadrupole moment (field-independent basis, Debye-Ang):
   XX=             12.4214   YY=            -10.0080   ZZ=             -2.4134
   XY=             -0.0394   XZ=              0.0934   YZ=             -0.1135
 Octapole moment (field-independent basis, Debye-Ang**2):
  XXX=              0.0043  YYY=             63.9432  ZZZ=              1.4142  XYY=              0.3834
  XXY=             17.9376  XXZ=             -0.3504  XZZ=             -0.5756  YZZ=             24.7842
  YYZ=             -1.0554  XYZ=              0.2991
 Hexadecapole moment (field-independent basis, Debye-Ang**3):
 XXXX=          -2332.1541 YYYY=           -977.6922 ZZZZ=           -537.2461 XXXY=              0.4187
 XXXZ=              1.8708 YYYX=              0.1332 YYYZ=              2.2236 ZZZX=             -0.4948
 ZZZY=             -1.5396 XXYY=           -545.6368 XXZZ=           -493.1150 YYZZ=           -248.3679
 XXYZ=             -3.0400 YYXZ=              0.3620 ZZXY=             -1.6673
 N-N= 8.452331973979D+02 E-N=-4.118003613125D+03  KE= 9.605455180753D+02
  Exact polarizability:   0.000   0.000   0.000   0.000   0.000   0.000
 Approx polarizability: 242.820  -0.294 228.409  -0.341   0.396 206.717
 No NMR shielding tensors so no spin-rotation constants.
 Leave Link  601 at Thu Oct 31 04:14:24 2019, MaxMem=   140000000 cpu:               4.1 elap:               0.2
 (Enter /usr/g16/l701.exe)
 ... and contract with generalized density number  0.
 Compute integral second derivatives.
 R6Disp: Adding Grimme-D3(BJ) dispersion energy 2nd derivatives to the Hessian.
   1 Symmetry operations used in ECPInt.
 ECPInt:  NShTT=    3916 NPrTT=   20546 LenC2=    3799 LenP2D=   13582.
 LDataN:  DoStor=T MaxTD1= 9 Len=  602
 Number of processors reduced to  17 by ecpmxn.
 D2PCM: PCM CHGder 2nd derivatives, FixD1E=F FixD2E=F DoIter=F DoCFld=F I1PDM=0
 GePol: Maximum number of non-zero 2nd derivatives   =     243
 Leave Link  701 at Thu Oct 31 04:14:35 2019, MaxMem=   140000000 cpu:             237.0 elap:              10.4
 (Enter /usr/g16/l702.exe)
 L702 exits ... SP integral derivatives will be done elsewhere.
 Leave Link  702 at Thu Oct 31 04:14:35 2019, MaxMem=   140000000 cpu:               1.5 elap:               0.1
 (Enter /usr/g16/l703.exe)
 Integral derivatives from FoFJK, PRISM(SPDF).
 Compute integral second derivatives, UseDBF=F ICtDFT=           0.
 Calling FoFJK, ICntrl=    100147 FMM=F ISym2X=0 I1Cent= 0 IOpClX= 0 NMat=1 NMatS=1 NMatT=0.
 FoFJK:  IHMeth= 1 ICntrl=  100147 DoSepK=F KAlg= 0 I1Cent=           0 FoldK=F
 IRaf=         0 NMat=       1 IRICut=       1 DoRegI=T DoRafI=F ISym2E= 0 IDoP0=0 IntGTp=1.
 FoFCou: FMM=F IPFlag=           0 FMFlag=      100000 FMFlg1=         800
         NFxFlg=           0 DoJE=F BraDBF=F KetDBF=F FulRan=T
         wScrn=  0.000000 ICntrl=    100147 IOpCl=  0 I1Cent=           0 NGrid=           0
         NMat0=    1 NMatS0=      1 NMatT0=    0 NMatD0=    1 NMtDS0=    0 NMtDT0=    0
 Symmetry not used in FoFCou.
 Defaulting to unpruned grid for atomic number  78.
 Defaulting to unpruned grid for atomic number  78.
 Defaulting to unpruned grid for atomic number  78.
 Defaulting to unpruned grid for atomic number  78.
 Defaulting to unpruned grid for atomic number  78.
 Defaulting to unpruned grid for atomic number  78.
 Defaulting to unpruned grid for atomic number  78.
 Defaulting to unpruned grid for atomic number  78.
 Defaulting to unpruned grid for atomic number  78.
 Defaulting to unpruned grid for atomic number  78.
 Defaulting to unpruned grid for atomic number  78.
 Defaulting to unpruned grid for atomic number  78.
 Defaulting to unpruned grid for atomic number  78.
 Defaulting to unpruned grid for atomic number  78.
 Defaulting to unpruned grid for atomic number  78.
 Defaulting to unpruned grid for atomic number  78.
 Defaulting to unpruned grid for atomic number  78.
 Defaulting to unpruned grid for atomic number  78.
 Defaulting to unpruned grid for atomic number  78.
 Defaulting to unpruned grid for atomic number  78.
 Defaulting to unpruned grid for atomic number  78.
 Defaulting to unpruned grid for atomic number  78.
 Defaulting to unpruned grid for atomic number  78.
 Defaulting to unpruned grid for atomic number  78.
 Leave Link  703 at Thu Oct 31 04:15:16 2019, MaxMem=   140000000 cpu:             977.9 elap:              40.8
 (Enter /usr/g16/l716.exe)
 Dipole        = 1.22685418D-02-2.90716853D+00-2.97623661D-02
 Polarizability= 0.00000000D+00 0.00000000D+00 0.00000000D+00
                 0.00000000D+00 0.00000000D+00 0.00000000D+00
 ***** Axes restored to original set *****
 -------------------------------------------------------------------
 Center     Atomic                   Forces (Hartrees/Bohr)
 Number     Number              X              Y              Z
 -------------------------------------------------------------------
      1       78           0.003280635   -0.002308053   -0.001282374
      2       15          -0.000978938    0.000463905    0.000320570
      3       15          -0.000511204    0.000619796    0.000100784
      4        6           0.000256508    0.000084945   -0.000215146
      5        1           0.000005288    0.000054345    0.000043008
      6        1          -0.000049385    0.000014051    0.000048513
      7        1          -0.000007068    0.000021435    0.000025555
      8        6          -0.000125441   -0.000117514    0.000015774
      9        1          -0.000006028   -0.000033757   -0.000029642
     10        1          -0.000067570    0.000053257    0.000065515
     11        1           0.000011443   -0.000047703   -0.000072160
     12        6          -0.000079837   -0.000146646   -0.000035126
     13        1           0.000017275   -0.000007819    0.000041526
     14        1           0.000018469   -0.000015181   -0.000033649
     15        1           0.000000060   -0.000004707   -0.000014835
     16        6          -0.000125796    0.000101761   -0.000034269
     17        1           0.000050089   -0.000054966    0.000043105
     18        1          -0.000014507   -0.000002262   -0.000023743
     19        1           0.000033189    0.000005350   -0.000031696
     20        6          -0.000028122   -0.000051531    0.000093314
     21        1          -0.000020053   -0.000021495    0.000011205
     22        1           0.000066693   -0.000083130    0.000007384
     23        1           0.000026383    0.000024699   -0.000060229
     24        6           0.000011150    0.000028878    0.000012642
     25        1           0.000006335    0.000062440   -0.000024735
     26        1          -0.000084359   -0.000050912   -0.000081607
     27        1           0.000010581   -0.000011599    0.000061322
     28        1          -0.000934078    0.000952413    0.000037015
     29        1          -0.000761712    0.000469999    0.001011978
 -------------------------------------------------------------------
 Cartesian Forces:  Max     0.003280635 RMS     0.000520610
 FormGI is forming the generalized inverse of G from B-inverse, IUseBI=4.
 Leave Link  716 at Thu Oct 31 04:15:16 2019, MaxMem=   140000000 cpu:               1.8 elap:               0.1
 (Enter /usr/g16/l103.exe)

 GradGradGradGradGradGradGradGradGradGradGradGradGradGradGradGradGradGrad
 Berny optimization.
 Red2BG is reusing G-inverse.
 Internal  Forces:  Max     0.000918894 RMS     0.000134720
 Search for a saddle point.
 Step number 131 out of a maximum of  168
 All quantities printed in internal units (Hartrees-Bohrs-Radians)
 Swapping is turned off.
 Second derivative matrix not updated -- analytic derivatives used.
 ITU=  0  0  0  0  0  0  0  0  0  0  0  0  0  0  0  0  0  0  0  0
[...]
                 (A) (A) (A) (A) (A) (A) (A) (A) (A) (A) (A) (A)
                 (A) (A) (A) (A) (A) (A) (A) (A) (A) (A) (A) (A)
                 (A) (A) (A) (A) (A) (A) (A) (A) (A) (A) (A) (A)
                 (A) (A) (A) (A) (A) (A) (A) (A) (A) (A) (A) (A)
                 (A) (A) (A) (A) (A) (A) (A) (A) (A) (A) (A) (A)
                 (A) (A) (A) (A) (A) (A) (A) (A) (A) (A) (A) (A)
                 (A) (A) (A) (A) (A) (A) (A) (A) (A) (A) (A) (A)
 The electronic state is 1-A.
 Alpha  occ. eigenvalues --  -77.09032 -77.09015 -10.17749 -10.17629 -10.17465
 Alpha  occ. eigenvalues --  -10.17204 -10.17197 -10.17012  -6.56861  -6.56853
 Alpha  occ. eigenvalues --   -4.73052  -4.73043  -4.73034  -4.73027  -4.72715
 Alpha  occ. eigenvalues --   -4.72705  -3.89204  -2.14586  -2.14207  -2.11127
 Alpha  occ. eigenvalues --   -0.76968  -0.76642  -0.69669  -0.69237  -0.69075
 Alpha  occ. eigenvalues --   -0.68989  -0.55082  -0.54254  -0.45158  -0.43890
 Alpha  occ. eigenvalues --   -0.43131  -0.42892  -0.42763  -0.42579  -0.40796
 Alpha  occ. eigenvalues --   -0.40272  -0.40208  -0.39794  -0.38763  -0.38671
 Alpha  occ. eigenvalues --   -0.36694  -0.36193  -0.34241  -0.33740  -0.33706
 Alpha  occ. eigenvalues --   -0.33129  -0.27204  -0.24417  -0.23777  -0.23494
 Alpha  occ. eigenvalues --   -0.23214  -0.20677
 Alpha virt. eigenvalues --   -0.00955   0.00240   0.02250   0.04703   0.05758
 Alpha virt. eigenvalues --    0.07644   0.08159   0.08650   0.09032   0.09859
 Alpha virt. eigenvalues --    0.09988   0.11197   0.11946   0.12296   0.12862
 Alpha virt. eigenvalues --    0.13024   0.14394   0.15404   0.15635   0.16341
 Alpha virt. eigenvalues --    0.16708   0.17754   0.18069   0.18600   0.18944
 Alpha virt. eigenvalues --    0.19150   0.19803   0.21304   0.21530   0.21667
 Alpha virt. eigenvalues --    0.22600   0.22911   0.24045   0.26186   0.26939
 Alpha virt. eigenvalues --    0.28997   0.31509   0.32589   0.36669   0.38949
 Alpha virt. eigenvalues --    0.41778   0.41873   0.43290   0.43936   0.44392
 Alpha virt. eigenvalues --    0.46701   0.48561   0.49536   0.55654   0.58887
 Alpha virt. eigenvalues --    0.59520   0.62160   0.62797   0.64250   0.64918
 Alpha virt. eigenvalues --    0.65620   0.66477   0.67528   0.68082   0.68549
 Alpha virt. eigenvalues --    0.70832   0.72056   0.72943   0.75646   0.76111
 Alpha virt. eigenvalues --    0.78322   0.80780   0.81130   0.81925   0.82581
 Alpha virt. eigenvalues --    0.82765   0.83767   0.84815   0.84955   0.87081
 Alpha virt. eigenvalues --    0.88542   0.89790   0.90382   0.91236   0.91935
 Alpha virt. eigenvalues --    0.92342   0.93250   0.93376   0.94570   0.95064
 Alpha virt. eigenvalues --    0.95571   0.96189   0.96678   0.97053   0.98730
 Alpha virt. eigenvalues --    1.00285   1.01395   1.03636   1.05230   1.06188
 Alpha virt. eigenvalues --    1.09142   1.10018   1.10930   1.17106   1.32461
 Alpha virt. eigenvalues --    1.34270   1.36576   1.37423   1.38636   1.39019
 Alpha virt. eigenvalues --    1.42511   1.45899   1.50330   1.59934   1.65254
 Alpha virt. eigenvalues --    1.65491   1.70235   1.70365   1.70885   1.71479
 Alpha virt. eigenvalues --    1.79373   1.80194   1.82092   1.83335   1.91105
 Alpha virt. eigenvalues --    1.92934   2.10912   2.11310   2.22324   2.22754
 Alpha virt. eigenvalues --    2.23088   2.23454   2.23979   2.25219   2.25754
 Alpha virt. eigenvalues --    2.25966   2.26697   2.26854   2.27127   2.27381
 Alpha virt. eigenvalues --    2.28128   2.28828   2.29589   2.32816   2.59435
 Alpha virt. eigenvalues --   45.82055  45.89615  45.92859 114.24346
          Condensed to atoms (all electrons):
               1          2          3          4          5          6
     1  Pt  17.820733   0.203177   0.197206  -0.011360   0.002896   0.005973
     2  P    0.203177  13.391781   0.006378   0.326358  -0.026949  -0.019046
     3  P    0.197206   0.006378  13.389787   0.000276  -0.000000  -0.000010
     4  C   -0.011360   0.326358   0.000276   5.332839   0.366660   0.348241
     5  H    0.002896  -0.026949  -0.000000   0.366660   0.500408  -0.027179
     6  H    0.005973  -0.019046  -0.000010   0.348241  -0.027179   0.546720
     7  H    0.004891  -0.025124   0.000003   0.367931  -0.021820  -0.025589
     8  C   -0.007292   0.315845  -0.004193  -0.038058  -0.001293  -0.004142
     9  H    0.001224  -0.026514  -0.000436   0.002259   0.000002  -0.000035
    10  H    0.005119  -0.016608   0.000180  -0.004076  -0.000261   0.002945
    11  H    0.002805  -0.026688  -0.001689  -0.001583   0.000986  -0.000313
    12  C   -0.011606   0.326202   0.000096  -0.034263   0.002125  -0.003882
    13  H    0.004651  -0.024948   0.000014  -0.001549   0.000006  -0.000255
    14  H    0.006373  -0.019087  -0.000010  -0.003931  -0.000045   0.002702
    15  H    0.002918  -0.026822  -0.000043   0.002121  -0.000042  -0.000046
    16  C   -0.013233   0.000429   0.333597  -0.000000  -0.000000   0.000000
    17  H    0.005244  -0.000002  -0.025324  -0.000000   0.000000   0.000000
    18  H    0.005977  -0.000020  -0.018360   0.000000   0.000000  -0.000000
    19  H    0.003546   0.000037  -0.027293  -0.000000   0.000000   0.000000
    20  C   -0.005408  -0.004407   0.315699  -0.000013  -0.000001  -0.000000
    21  H    0.005078   0.000183  -0.017544  -0.000000  -0.000000   0.000000
    22  H    0.000393  -0.001389  -0.024354   0.000010  -0.000003  -0.000000
    23  H    0.004200  -0.000598  -0.028796   0.000001  -0.000014  -0.000000
    24  C   -0.007814  -0.000544   0.323329   0.000000  -0.000000  -0.000000
    25  H    0.002435  -0.000095  -0.026222  -0.000000   0.000000  -0.000000
    26  H    0.006043   0.000022  -0.019134   0.000000  -0.000000   0.000000
    27  H    0.004221   0.000005  -0.025974  -0.000000   0.000000   0.000000
    28  H    0.338511  -0.019392   0.006034   0.000103   0.000005  -0.000001
    29  H    0.333978   0.011412  -0.019236  -0.002928  -0.000018   0.000082
               7          8          9         10         11         12
     1  Pt   0.004891  -0.007292   0.001224   0.005119   0.002805  -0.011606
     2  P   -0.025124   0.315845  -0.026514  -0.016608  -0.026688   0.326202
     3  P    0.000003  -0.004193  -0.000436   0.000180  -0.001689   0.000096
     4  C    0.367931  -0.038058   0.002259  -0.004076  -0.001583  -0.034263
     5  H   -0.021820  -0.001293   0.000002  -0.000261   0.000986   0.002125
     6  H   -0.025589  -0.004142  -0.000035   0.002945  -0.000313  -0.003882
     7  H    0.480116   0.002146  -0.000042  -0.000033   0.000010  -0.001578
     8  C    0.002146   5.349783   0.366397   0.350809   0.367346  -0.038493
     9  H   -0.000042   0.366397   0.517024  -0.027257  -0.024916  -0.001356
    10  H   -0.000033   0.350809  -0.027257   0.537053  -0.026300  -0.004401
    11  H    0.000010   0.367346  -0.024916  -0.026300   0.511489   0.002212
    12  C   -0.001578  -0.038493  -0.001356  -0.004401   0.002212   5.334008
    13  H    0.000701   0.002157   0.000003  -0.000020  -0.000044   0.367863
    14  H   -0.000263  -0.004165  -0.000286   0.003158  -0.000033   0.348140
    15  H    0.000009  -0.001121   0.000936  -0.000303  -0.000004   0.366389
    16  C    0.000000  -0.000003   0.000000   0.000000   0.000001  -0.000000
    17  H    0.000000   0.000000   0.000000  -0.000000  -0.000000   0.000000
    18  H    0.000000   0.000000  -0.000000  -0.000000  -0.000000   0.000000
    19  H    0.000000   0.000000   0.000000   0.000000  -0.000000  -0.000000
    20  C    0.000000  -0.001545  -0.000985   0.000069  -0.000177   0.000003
    21  H   -0.000000   0.000041  -0.000016  -0.000000  -0.000001   0.000000
    22  H   -0.000000   0.000916   0.001910  -0.000006   0.001183   0.000004
    23  H    0.000000  -0.000201  -0.000029  -0.000008   0.000485  -0.000000
    24  C    0.000000  -0.000054   0.000058  -0.000001   0.000013   0.000001
    25  H    0.000000   0.000006   0.000209  -0.000003  -0.000016  -0.000009
    26  H   -0.000000  -0.000002  -0.000009   0.000000  -0.000001   0.000000
    27  H    0.000000   0.000003  -0.000003  -0.000000  -0.000000  -0.000000
    28  H    0.000005   0.000037   0.000002  -0.000001   0.000001   0.000110
    29  H    0.000246   0.000302   0.000003  -0.000003   0.000003  -0.003051
              13         14         15         16         17         18
     1  Pt   0.004651   0.006373   0.002918  -0.013233   0.005244   0.005977
     2  P   -0.024948  -0.019087  -0.026822   0.000429  -0.000002  -0.000020
     3  P    0.000014  -0.000010  -0.000043   0.333597  -0.025324  -0.018360
     4  C   -0.001549  -0.003931   0.002121  -0.000000  -0.000000   0.000000
     5  H    0.000006  -0.000045  -0.000042  -0.000000   0.000000   0.000000
     6  H   -0.000255   0.002702  -0.000046   0.000000   0.000000  -0.000000
     7  H    0.000701  -0.000263   0.000009   0.000000   0.000000   0.000000
     8  C    0.002157  -0.004165  -0.001121  -0.000003   0.000000   0.000000
     9  H    0.000003  -0.000286   0.000936   0.000000   0.000000  -0.000000
    10  H   -0.000020   0.003158  -0.000303   0.000000  -0.000000  -0.000000
    11  H   -0.000044  -0.000033  -0.000004   0.000001  -0.000000  -0.000000
    12  C    0.367863   0.348140   0.366389  -0.000000   0.000000   0.000000
    13  H    0.479797  -0.025640  -0.021607  -0.000000   0.000000   0.000000
    14  H   -0.025640   0.546400  -0.027347   0.000000  -0.000000  -0.000000
    15  H   -0.021607  -0.027347   0.501016  -0.000000   0.000000   0.000000
    16  C   -0.000000   0.000000  -0.000000   5.330513   0.367595   0.345310
    17  H    0.000000  -0.000000   0.000000   0.367595   0.483931  -0.025547
    18  H    0.000000  -0.000000   0.000000   0.345310  -0.025547   0.552215
    19  H    0.000000   0.000000   0.000000   0.368225  -0.022215  -0.026948
    20  C    0.000000  -0.000000   0.000001  -0.039253   0.002194  -0.004286
    21  H   -0.000000   0.000000  -0.000000  -0.004811  -0.000004   0.003397
    22  H   -0.000000  -0.000000  -0.000003   0.002258  -0.000048  -0.000020
    23  H    0.000000  -0.000000   0.000000  -0.000864  -0.000008  -0.000292
    24  C   -0.000000   0.000000  -0.000002  -0.035728  -0.001635  -0.003839
    25  H    0.000000  -0.000000  -0.000026   0.002166   0.000018  -0.000052
    26  H   -0.000000  -0.000000  -0.000000  -0.003825  -0.000264   0.002651
    27  H    0.000000   0.000000   0.000000  -0.001280   0.000797  -0.000267
    28  H    0.000006  -0.000001   0.000006  -0.004978   0.000011   0.000209
    29  H    0.000230   0.000085  -0.000016   0.000091   0.000003  -0.000001
              19         20         21         22         23         24
     1  Pt   0.003546  -0.005408   0.005078   0.000393   0.004200  -0.007814
     2  P    0.000037  -0.004407   0.000183  -0.001389  -0.000598  -0.000544
     3  P   -0.027293   0.315699  -0.017544  -0.024354  -0.028796   0.323329
     4  C   -0.000000  -0.000013  -0.000000   0.000010   0.000001   0.000000
     5  H    0.000000  -0.000001  -0.000000  -0.000003  -0.000014  -0.000000
     6  H    0.000000  -0.000000   0.000000  -0.000000  -0.000000  -0.000000
     7  H    0.000000   0.000000  -0.000000  -0.000000   0.000000   0.000000
     8  C    0.000000  -0.001545   0.000041   0.000916  -0.000201  -0.000054
     9  H    0.000000  -0.000985  -0.000016   0.001910  -0.000029   0.000058
    10  H    0.000000   0.000069  -0.000000  -0.000006  -0.000008  -0.000001
    11  H   -0.000000  -0.000177  -0.000001   0.001183   0.000485   0.000013
    12  C   -0.000000   0.000003   0.000000   0.000004  -0.000000   0.000001
    13  H    0.000000   0.000000  -0.000000  -0.000000   0.000000  -0.000000
    14  H    0.000000  -0.000000   0.000000  -0.000000  -0.000000   0.000000
    15  H    0.000000   0.000001  -0.000000  -0.000003   0.000000  -0.000002
    16  C    0.368225  -0.039253  -0.004811   0.002258  -0.000864  -0.035728
    17  H   -0.022215   0.002194  -0.000004  -0.000048  -0.000008  -0.001635
    18  H   -0.026948  -0.004286   0.003397  -0.000020  -0.000292  -0.003839
    19  H    0.494649  -0.001176  -0.000294  -0.000001   0.000734   0.002114
    20  C   -0.001176   5.349035   0.351137   0.364008   0.368806  -0.036942
    21  H   -0.000294   0.351137   0.537812  -0.025895  -0.026946  -0.003538
    22  H   -0.000001   0.364008  -0.025895   0.519707  -0.023707  -0.001870
    23  H    0.000734   0.368806  -0.026946  -0.023707   0.502477   0.002190
    24  C    0.002114  -0.036942  -0.003538  -0.001870   0.002190   5.333595
    25  H   -0.000041  -0.001294  -0.000254   0.001190  -0.000004   0.365157
    26  H   -0.000043  -0.003851   0.002638  -0.000246  -0.000044   0.349534
    27  H   -0.000004   0.002111  -0.000050   0.000014  -0.000041   0.368379
    28  H   -0.000278   0.000284  -0.000003  -0.000001   0.000009  -0.000472
    29  H    0.000006   0.000044  -0.000001   0.000001   0.000003   0.000092
              25         26         27         28         29
     1  Pt   0.002435   0.006043   0.004221   0.338511   0.333978
     2  P   -0.000095   0.000022   0.000005  -0.019392   0.011412
     3  P   -0.026222  -0.019134  -0.025974   0.006034  -0.019236
     4  C   -0.000000   0.000000  -0.000000   0.000103  -0.002928
     5  H    0.000000  -0.000000   0.000000   0.000005  -0.000018
     6  H   -0.000000   0.000000   0.000000  -0.000001   0.000082
     7  H    0.000000  -0.000000   0.000000   0.000005   0.000246
     8  C    0.000006  -0.000002   0.000003   0.000037   0.000302
     9  H    0.000209  -0.000009  -0.000003   0.000002   0.000003
    10  H   -0.000003   0.000000  -0.000000  -0.000001  -0.000003
    11  H   -0.000016  -0.000001  -0.000000   0.000001   0.000003
    12  C   -0.000009   0.000000  -0.000000   0.000110  -0.003051
    13  H    0.000000  -0.000000   0.000000   0.000006   0.000230
    14  H   -0.000000  -0.000000   0.000000  -0.000001   0.000085
    15  H   -0.000026  -0.000000   0.000000   0.000006  -0.000016
    16  C    0.002166  -0.003825  -0.001280  -0.004978   0.000091
    17  H    0.000018  -0.000264   0.000797   0.000011   0.000003
    18  H   -0.000052   0.002651  -0.000267   0.000209  -0.000001
    19  H   -0.000041  -0.000043  -0.000004  -0.000278   0.000006
    20  C   -0.001294  -0.003851   0.002111   0.000284   0.000044
    21  H   -0.000254   0.002638  -0.000050  -0.000003  -0.000001
    22  H    0.001190  -0.000246   0.000014  -0.000001   0.000001
    23  H   -0.000004  -0.000044  -0.000041   0.000009   0.000003
    24  C    0.365157   0.349534   0.368379  -0.000472   0.000092
    25  H    0.508518  -0.027399  -0.022064  -0.000010   0.000004
    26  H   -0.027399   0.543081  -0.026250   0.000015  -0.000001
    27  H   -0.022064  -0.026250   0.483941   0.000095   0.000006
    28  H   -0.000010   0.000015   0.000095   0.670639   0.017678
    29  H    0.000004  -0.000001   0.000006   0.017678   0.672209
 Mulliken charges:
               1
     1  Pt  -0.910880
     2  P    0.656404
     3  P    0.666018
     4  C   -0.649038
     5  H    0.204537
     6  H    0.173835
     7  H    0.218392
     8  C   -0.655225
     9  H    0.191858
    10  H    0.179947
    11  H    0.195230
    12  C   -0.648512
    13  H    0.218635
    14  H    0.173951
    15  H    0.203985
    16  C   -0.646211
    17  H    0.215252
    18  H    0.169874
    19  H    0.208981
    20  C   -0.654052
    21  H    0.179069
    22  H    0.185948
    23  H    0.202645
    24  C   -0.652024
    25  H    0.197784
    26  H    0.177085
    27  H    0.216360
    28  H   -0.008624
    29  H   -0.011224
 Sum of Mulliken charges =  -0.00000
 Mulliken charges with hydrogens summed into heavy atoms:
               1
     1  Pt  -0.930728
     2  P    0.656404
     3  P    0.666018
     4  C   -0.052274
     8  C   -0.088190
    12  C   -0.051941
    16  C   -0.052104
    20  C   -0.086390
    24  C   -0.060795
 Electronic spatial extent (au):  <R**2>=           2843.4668
 Charge=             -0.0000 electrons
 Dipole moment (field-independent basis, Debye):
    X=              0.0241    Y=             -7.4005    Z=             -0.0493  Tot=              7.4007
 Quadrupole moment (field-independent basis, Debye-Ang):
   XX=            -76.3183   YY=            -98.8660   ZZ=            -91.1864
   XY=             -0.0354   XZ=              0.1057   YZ=             -0.0169
 Traceless Quadrupole moment (field-independent basis, Debye-Ang):
   XX=             12.4719   YY=            -10.0758   ZZ=             -2.3962
   XY=             -0.0354   XZ=              0.1057   YZ=             -0.0169
 Octapole moment (field-independent basis, Debye-Ang**2):
  XXX=              0.0866  YYY=             63.8642  ZZZ=              2.0003  XYY=              0.4961
  XXY=             17.8179  XXZ=             -0.0124  XZZ=             -0.5673  YZZ=             24.6301
  YYZ=             -0.3059  XYZ=              0.4119
 Hexadecapole moment (field-independent basis, Debye-Ang**3):
 XXXX=          -2330.0454 YYYY=           -976.5860 ZZZZ=           -537.1276 XXXY=              0.9991
 XXXZ=              2.1338 YYYX=              0.1507 YYYZ=              2.8302 ZZZX=             -1.0828
 ZZZY=             -0.6939 XXYY=           -545.1837 XXZZ=           -493.0170 YYZZ=           -248.0016
 XXYZ=             -1.4160 YYXZ=              0.7126 ZZXY=             -1.7057
 N-N= 8.454389618967D+02 E-N=-4.118408377903D+03  KE= 9.605452629275D+02
 No NMR shielding tensors so no spin-rotation constants.
 Leave Link  601 at Thu Oct 31 04:18:10 2019, MaxMem=   140000000 cpu:               2.8 elap:               0.1
 (Enter /usr/g16/l9999.exe)
 B after Tr=     1.037115    1.170280   -0.003513
         Rot=    0.991562    0.110148    0.068077   -0.006199 Ang=  14.90 deg.
 Atom  29 needs variable  80=   1.6244904167 but is    1.6219636898
 Input z-matrix variables are not compatible with final structure.
 1\1\GINC-LW06\FTS\RB3LYP\GenECP\C6H20P2Pt1\WSR\31-Oct-2019\0\\#p opt=(
 ts,calcfc,noeigen) b3lyp/genecp em=gd3bj scrf=(smd,solvent=benzene)\\T
 itle Card Required\\0,1\Pt,-1.1541928665,-1.2638248815,-0.1212834537\P
 ,0.1631543691,-0.6959818601,1.7208626614\P,-0.5617839869,0.2763941196,
 -1.7731297347\C,1.2009507632,-2.0875293682,2.3337360568\H,1.9117057544
 ,-2.3818901696,1.5546053895\H,1.752960455,-1.8122798138,3.2400166982\H
 ,0.556602085,-2.9458538944,2.5452506877\C,1.3835034761,0.6877994145,1.
 6777481439\H,0.8763410565,1.6187249373,1.4041072511\H,1.8638043412,0.8
 227305613,2.6539110051\H,2.1555801814,0.4773493632,0.9319298581\C,-0.8
 41612419,-0.2562557559,3.1997657212\H,-1.5295775043,-1.0774889769,3.42
 06843783\H,-0.2101843898,-0.0622578892,4.0746829509\H,-1.4384784185,0.
 6355250192,2.9819572117\C,-0.817744555,-0.3370377256,-3.4891571563\H,-
 1.8668415459,-0.6201824053,-3.6142407308\H,-0.5498751994,0.4195175557,
 -4.2359624273\H,-0.2066997723,-1.2319175445,-3.6455917755\C,1.15757727
 31,0.9393352254,-1.8781014237\H,1.2903779198,1.5477132618,-2.780257329
 \H,1.3783057976,1.5566277609,-1.003663705\H,1.8685839571,0.107036423,-
 1.9039083202\C,-1.5694394989,1.8185876984,-1.7464217966\H,-1.408272663
 1,2.3454027462,-0.8001445631\H,-1.3122864463,2.4851441933,-2.577936320
 3\H,-2.6293251354,1.5534086309,-1.8101905625\H,-2.1996126242,-1.885905
 6622,-1.1940738542\H,-1.7699864497,-2.4236588182,0.8350389899\\Version
 =ES64L-G16RevA.03\State=1-A\HF=-1042.930268\RMSD=9.291e-09\RMSF=1.169e
 -06\Dipole=1.9422794,2.1586243,0.2137636\Quadrupole=-3.8925688,-4.1141
 844,8.0067531,-3.4230227,1.8376462,-3.0749069\PG=C01 [X(C6H20P2Pt1)]\\
 @


 I WANT TO KNOW HOW GOD CREATED THE WORLD.  I AM NOT INTERESTED IN
 THIS OR THAT PHENOMENON, IN THE SPECTRUM OF THIS OR THAT ELEMENT.
 I WANT TO KNOW HIS THOUGHTS, THE REST ARE DETAILS.
     -- ALBERT EINSTEIN
 Job cpu time:       0 days  2 hours 10 minutes 16.5 seconds.
 Elapsed time:       0 days  0 hours  5 minutes 40.1 seconds.
 File lengths (MBytes):  RWF=    230 Int=      0 D2E=      0 Chk=     17 Scr=      1
 Normal termination of Gaussian 16 at Thu Oct 31 04:18:10 2019.
