 Entering Gaussian System, Link 0=g16
 Input=Pt_ts.gjf
 Output=Pt_ts.log
 Initial command:
 /usr/g16/l1.exe "/scratch/wsr/gaussian/Gau-38308.inp" -scrdir="/scratch/wsr/gaussian/"
 Entering Link 1 = /usr/g16/l1.exe PID=     38309.
  
 Copyright (c) 1988,1990,1992,1993,1995,1998,2003,2009,2016,
            Gaussian, Inc.  All Rights Reserved.
  
 This is part of the Gaussian(R) 16 program.  It is based on
 the Gaussian(R) 09 system (copyright 2009, Gaussian, Inc.),
 the Gaussian(R) 03 system (copyright 2003, Gaussian, Inc.),
 the Gaussian(R) 98 system (copyright 1998, Gaussian, Inc.),
 the Gaussian(R) 94 system (copyright 1995, Gaussian, Inc.),
 the Gaussian 92(TM) system (copyright 1992, Gaussian, Inc.),
 the Gaussian 90(TM) system (copyright 1990, Gaussian, Inc.),
 the Gaussian 88(TM) system (copyright 1988, Gaussian, Inc.),
 the Gaussian 86(TM) system (copyright 1986, Carnegie Mellon
 University), and the Gaussian 82(TM) system (copyright 1983,
 Carnegie Mellon University). Gaussian is a federally registered
 trademark of Gaussian, Inc.
  
 This software contains proprietary and confidential information,
 including trade secrets, belonging to Gaussian, Inc.
  
 This software is provided under written license and may be
 used, copied, transmitted, or stored only in accord with that
 written license.
  
 The following legend is applicable only to US Government
 contracts under FAR:
  
                    RESTRICTED RIGHTS LEGEND
  
 Use, reproduction and disclosure by the US Government is
 subject to restrictions as set forth in subparagraphs (a)
 and (c) of the Commercial Computer Software - Restricted
 Rights clause in FAR 52.227-19.
  
 Gaussian, Inc.
 340 Quinnipiac St., Bldg. 40, Wallingford CT 06492
  
  
 ---------------------------------------------------------------
 Warning -- This program may not be used in any manner that
 competes with the business of Gaussian, Inc. or will provide
 assistance to any competitor of Gaussian, Inc.  The licensee
 of this program is prohibited from giving any competitor of
 Gaussian, Inc. access to this program.  By using this program,
 the user acknowledges that Gaussian, Inc. is engaged in the
 business of creating and licensing software in the field of
 computational chemistry and represents and warrants to the
 licensee that it is not a competitor of Gaussian, Inc. and that
 it will not use this program in any manner prohibited above.
 ---------------------------------------------------------------
  

 Cite this work as:
 Gaussian 16, Revision A.03,
 M. J. Frisch, G. W. Trucks, H. B. Schlegel, G. E. Scuseria, 
 M. A. Robb, J. R. Cheeseman, G. Scalmani, V. Barone, 
 G. A. Petersson, H. Nakatsuji, X. Li, M. Caricato, A. V. Marenich, 
 J. Bloino, B. G. Janesko, R. Gomperts, B. Mennucci, H. P. Hratchian, 
 J. V. Ortiz, A. F. Izmaylov, J. L. Sonnenberg, D. Williams-Young, 
 F. Ding, F. Lipparini, F. Egidi, J. Goings, B. Peng, A. Petrone, 
 T. Henderson, D. Ranasinghe, V. G. Zakrzewski, J. Gao, N. Rega, 
 G. Zheng, W. Liang, M. Hada, M. Ehara, K. Toyota, R. Fukuda, 
 J. Hasegawa, M. Ishida, T. Nakajima, Y. Honda, O. Kitao, H. Nakai, 
 T. Vreven, K. Throssell, J. A. Montgomery, Jr., J. E. Peralta, 
 F. Ogliaro, M. J. Bearpark, J. J. Heyd, E. N. Brothers, K. N. Kudin, 
 V. N. Staroverov, T. A. Keith, R. Kobayashi, J. Normand, 
 K. Raghavachari, A. P. Rendell, J. C. Burant, S. S. Iyengar, 
 J. Tomasi, M. Cossi, J. M. Millam, M. Klene, C. Adamo, R. Cammi, 
 J. W. Ochterski, R. L. Martin, K. Morokuma, O. Farkas, 
 J. B. Foresman, and D. J. Fox, Gaussian, Inc., Wallingford CT, 2016.
 
 ******************************************
 Gaussian 16:  ES64L-G16RevA.03 25-Dec-2016
                30-Oct-2019 
 ******************************************
 %chk=Pt_ts.chk
 %nprocshared=24
 Will use up to   24 processors via shared memory.
 ----------------------------------------------------------------------
 #p opt=(ts,calcfc) freq b3lyp/genecp scrf=(smd,solvent=benzene) em=gd3
 bj
 ----------------------------------------------------------------------
 1/5=1,10=4,18=20,26=3,38=1/1,3;
 2/9=110,12=2,17=6,18=5,40=1/2;
 3/5=7,11=2,16=1,17=8,25=1,30=1,70=32201,71=2,72=12,74=-5,124=41,140=1/1,2,3;
 4//1;
 5/5=2,38=5,53=12/2;
 8/6=4,10=90,11=11/1;
 11/6=1,8=1,9=11,15=111,16=1/1,2,10;
 10/6=1,13=1/2;
 6/7=2,8=2,9=2,10=2,28=1/1;
 7/10=1,18=20,25=1/1,2,3,16;
 1/5=1,10=4,18=20,26=3/3(2);
 2/9=110/2;
 99//99;
 2/9=110/2;
 3/5=7,6=1,11=2,16=1,17=8,25=1,30=1,70=32205,71=1,72=12,74=-5,82=7,124=41/1,2,3;
 4/5=5,16=3,69=1/1;
 5/5=2,38=5,53=12/2;
 7//1,2,3,16;
 1/5=1,18=20,26=3/3(-5);
 2/9=110/2;
 6/7=2,8=2,9=2,10=2,19=2,28=1/1;
 99/9=1/99;
 Leave Link    1 at Wed Oct 30 13:33:58 2019, MaxMem=           0 cpu:               2.3 elap:               0.1
 (Enter /usr/g16/l101.exe)
 -------------------
 Title Card Required
 -------------------
 Symbolic Z-matrix:
 Charge =  0 Multiplicity = 1
 Pt                   -0.00001  -0.00018   0.00028 
 P                     2.2788   -0.00001  -0.00014 
 P                    -2.27882   0.00011  -0.00001 
 C                     3.09451   1.00577  -1.31482 
 H                     2.77885   2.05026  -1.22188 
 H                     4.1882    0.95145  -1.24349 
 H                     2.77919   0.64292  -2.29878 
 C                     3.09563   0.63598   1.52757 
 H                     2.78045   0.03391   2.38631 
 H                     4.18923   0.60109   1.44416 
 H                     2.78081   1.66976   1.70501 
 C                     3.09533  -1.64108  -0.21379 
 H                     2.77976  -2.08342  -1.16461 
 H                     4.18897  -1.55164  -0.20268 
 H                     2.78052  -2.31173   0.59269 
 C                    -3.09576  -1.00376   1.31536 
 H                    -2.7808   -0.63986   2.29905 
 H                    -4.18937  -0.94903   1.24336 
 H                    -2.78052  -2.04851   1.22387 
 C                    -3.0948   -0.63733  -1.52755 
 H                    -4.18845  -0.60225  -1.44487 
 H                    -2.77899  -0.03612  -2.38666 
 H                    -2.77996  -1.6713   -1.7038 
 C                    -3.09485   1.64176   0.21115 
 H                    -2.77894   2.31146  -0.59568 
 H                    -4.18852   1.55276   0.19903 
 H                    -2.78006   2.08493   1.16185 
 H                     0.00021   1.90283  -0.05282 
 H                    -0.00001   1.1716   -1.52033 
 
 ITRead=  0  0  0  0  0  0  0  0  0  0  0  0  0  0  0  0  0  0  0  0
 ITRead=  0  0  0  0  0  0  0  0  0
 MicOpt= -1 -1 -1 -1 -1 -1 -1 -1 -1 -1 -1 -1 -1 -1 -1 -1 -1 -1 -1 -1
 MicOpt= -1 -1 -1 -1 -1 -1 -1 -1 -1
 NAtoms=     29 NQM=       29 NQMF=       0 NMMI=      0 NMMIF=      0
                NMic=       0 NMicF=      0.
                    Isotopes and Nuclear Properties:
 (Nuclear quadrupole moments (NQMom) in fm**2, nuclear magnetic moments (NMagM)
  in nuclear magnetons)

  Atom         1           2           3           4           5           6           7           8           9          10
 IAtWgt=         195          31          31          12           1           1           1          12           1           1
 AtmWgt= 194.9648000  30.9737634  30.9737634  12.0000000   1.0078250   1.0078250   1.0078250  12.0000000   1.0078250   1.0078250
 NucSpn=           1           1           1           0           1           1           1           0           1           1
 AtZEff=  -0.0000000  -0.0000000  -0.0000000  -0.0000000  -0.0000000  -0.0000000  -0.0000000  -0.0000000  -0.0000000  -0.0000000
 NQMom=    0.0000000   0.0000000   0.0000000   0.0000000   0.0000000   0.0000000   0.0000000   0.0000000   0.0000000   0.0000000
 NMagM=    0.6095000   1.1316000   1.1316000   0.0000000   2.7928460   2.7928460   2.7928460   0.0000000   2.7928460   2.7928460
 AtZNuc=  78.0000000  15.0000000  15.0000000   6.0000000   1.0000000   1.0000000   1.0000000   6.0000000   1.0000000   1.0000000

  Atom        11          12          13          14          15          16          17          18          19          20
 IAtWgt=           1          12           1           1           1          12           1           1           1          12
 AtmWgt=   1.0078250  12.0000000   1.0078250   1.0078250   1.0078250  12.0000000   1.0078250   1.0078250   1.0078250  12.0000000
 NucSpn=           1           0           1           1           1           0           1           1           1           0
 AtZEff=  -0.0000000  -0.0000000  -0.0000000  -0.0000000  -0.0000000  -0.0000000  -0.0000000  -0.0000000  -0.0000000  -0.0000000
 NQMom=    0.0000000   0.0000000   0.0000000   0.0000000   0.0000000   0.0000000   0.0000000   0.0000000   0.0000000   0.0000000
 NMagM=    2.7928460   0.0000000   2.7928460   2.7928460   2.7928460   0.0000000   2.7928460   2.7928460   2.7928460   0.0000000
 AtZNuc=   1.0000000   6.0000000   1.0000000   1.0000000   1.0000000   6.0000000   1.0000000   1.0000000   1.0000000   6.0000000

  Atom        21          22          23          24          25          26          27          28          29
 IAtWgt=           1           1           1          12           1           1           1           1           1
 AtmWgt=   1.0078250   1.0078250   1.0078250  12.0000000   1.0078250   1.0078250   1.0078250   1.0078250   1.0078250
 NucSpn=           1           1           1           0           1           1           1           1           1
 AtZEff=  -0.0000000  -0.0000000  -0.0000000  -0.0000000  -0.0000000  -0.0000000  -0.0000000  -0.0000000  -0.0000000
 NQMom=    0.0000000   0.0000000   0.0000000   0.0000000   0.0000000   0.0000000   0.0000000   0.0000000   0.0000000
 NMagM=    2.7928460   2.7928460   2.7928460   0.0000000   2.7928460   2.7928460   2.7928460   2.7928460   2.7928460
 AtZNuc=   1.0000000   1.0000000   1.0000000   6.0000000   1.0000000   1.0000000   1.0000000   1.0000000   1.0000000
 Leave Link  101 at Wed Oct 30 13:33:59 2019, MaxMem=   140000000 cpu:               9.1 elap:               0.4
 (Enter /usr/g16/l103.exe)

 GradGradGradGradGradGradGradGradGradGradGradGradGradGradGradGradGradGrad
 Berny optimization.
 Initialization pass.
                           ----------------------------
                           !    Initial Parameters    !
                           ! (Angstroms and Degrees)  !
 --------------------------                            --------------------------
 ! Name  Definition              Value          Derivative Info.                !
 --------------------------------------------------------------------------------
 ! R1    R(1,2)                  2.2788         calculate D2E/DX2 analytically  !
 ! R2    R(1,3)                  2.2788         calculate D2E/DX2 analytically  !
 ! R3    R(1,28)                 1.9037         calculate D2E/DX2 analytically  !
 ! R4    R(1,29)                 1.9197         calculate D2E/DX2 analytically  !
 ! R5    R(2,4)                  1.8454         calculate D2E/DX2 analytically  !
 ! R6    R(2,8)                  1.8454         calculate D2E/DX2 analytically  !
 ! R7    R(2,12)                 1.8454         calculate D2E/DX2 analytically  !
 ! R8    R(3,16)                 1.8454         calculate D2E/DX2 analytically  !
 ! R9    R(3,20)                 1.8454         calculate D2E/DX2 analytically  !
 ! R10   R(3,24)                 1.8454         calculate D2E/DX2 analytically  !
 ! R11   R(4,5)                  1.0951         calculate D2E/DX2 analytically  !
 ! R12   R(4,6)                  1.0974         calculate D2E/DX2 analytically  !
 ! R13   R(4,7)                  1.0951         calculate D2E/DX2 analytically  !
 ! R14   R(8,9)                  1.0951         calculate D2E/DX2 analytically  !
 ! R15   R(8,10)                 1.0973         calculate D2E/DX2 analytically  !
 ! R16   R(8,11)                 1.0951         calculate D2E/DX2 analytically  !
 ! R17   R(12,13)                1.0951         calculate D2E/DX2 analytically  !
 ! R18   R(12,14)                1.0974         calculate D2E/DX2 analytically  !
 ! R19   R(12,15)                1.0951         calculate D2E/DX2 analytically  !
 ! R20   R(16,17)                1.0951         calculate D2E/DX2 analytically  !
 ! R21   R(16,18)                1.0973         calculate D2E/DX2 analytically  !
 ! R22   R(16,19)                1.0951         calculate D2E/DX2 analytically  !
 ! R23   R(20,21)                1.0973         calculate D2E/DX2 analytically  !
 ! R24   R(20,22)                1.0951         calculate D2E/DX2 analytically  !
 ! R25   R(20,23)                1.0951         calculate D2E/DX2 analytically  !
 ! R26   R(24,25)                1.0951         calculate D2E/DX2 analytically  !
 ! R27   R(24,26)                1.0974         calculate D2E/DX2 analytically  !
 ! R28   R(24,27)                1.0951         calculate D2E/DX2 analytically  !
 ! A1    A(2,1,28)              89.9887         calculate D2E/DX2 analytically  !
 ! A2    A(2,1,29)              89.989          calculate D2E/DX2 analytically  !
 ! A3    A(3,1,28)              89.9991         calculate D2E/DX2 analytically  !
 ! A4    A(3,1,29)              89.9899         calculate D2E/DX2 analytically  !
 ! A5    A(28,1,29)             50.784          calculate D2E/DX2 analytically  !
 ! A6    A(1,2,4)              116.2448         calculate D2E/DX2 analytically  !
 ! A7    A(1,2,8)              116.2633         calculate D2E/DX2 analytically  !
 ! A8    A(1,2,12)             116.2584         calculate D2E/DX2 analytically  !
 ! A9    A(4,2,8)              101.9047         calculate D2E/DX2 analytically  !
 ! A10   A(4,2,12)             101.924          calculate D2E/DX2 analytically  !
 ! A11   A(8,2,12)             101.9157         calculate D2E/DX2 analytically  !
 ! A12   A(1,3,16)             116.266          calculate D2E/DX2 analytically  !
 ! A13   A(1,3,20)             116.2459         calculate D2E/DX2 analytically  !
 ! A14   A(1,3,24)             116.2502         calculate D2E/DX2 analytically  !
 ! A15   A(16,3,20)            101.9098         calculate D2E/DX2 analytically  !
 ! A16   A(16,3,24)            101.9239         calculate D2E/DX2 analytically  !
 ! A17   A(20,3,24)            101.916          calculate D2E/DX2 analytically  !
 ! A18   A(2,4,5)              109.3881         calculate D2E/DX2 analytically  !
 ! A19   A(2,4,6)              111.5472         calculate D2E/DX2 analytically  !
 ! A20   A(2,4,7)              109.4054         calculate D2E/DX2 analytically  !
 ! A21   A(5,4,6)              109.2069         calculate D2E/DX2 analytically  !
 ! A22   A(5,4,7)              108.0158         calculate D2E/DX2 analytically  !
 ! A23   A(6,4,7)              109.2069         calculate D2E/DX2 analytically  !
 ! A24   A(2,8,9)              109.4081         calculate D2E/DX2 analytically  !
 ! A25   A(2,8,10)             111.545          calculate D2E/DX2 analytically  !
 ! A26   A(2,8,11)             109.4034         calculate D2E/DX2 analytically  !
 ! A27   A(9,8,10)             109.2051         calculate D2E/DX2 analytically  !
 ! A28   A(9,8,11)             108.0105         calculate D2E/DX2 analytically  !
 ! A29   A(10,8,11)            109.198          calculate D2E/DX2 analytically  !
 ! A30   A(2,12,13)            109.4035         calculate D2E/DX2 analytically  !
 ! A31   A(2,12,14)            111.5503         calculate D2E/DX2 analytically  !
 ! A32   A(2,12,15)            109.3987         calculate D2E/DX2 analytically  !
 ! A33   A(13,12,14)           109.2021         calculate D2E/DX2 analytically  !
 ! A34   A(13,12,15)           108.0106         calculate D2E/DX2 analytically  !
 ! A35   A(14,12,15)           109.2048         calculate D2E/DX2 analytically  !
 ! A36   A(3,16,17)            109.4019         calculate D2E/DX2 analytically  !
 ! A37   A(3,16,18)            111.5488         calculate D2E/DX2 analytically  !
 ! A38   A(3,16,19)            109.3897         calculate D2E/DX2 analytically  !
 ! A39   A(17,16,18)           109.2075         calculate D2E/DX2 analytically  !
 ! A40   A(17,16,19)           108.0157         calculate D2E/DX2 analytically  !
 ! A41   A(18,16,19)           109.2066         calculate D2E/DX2 analytically  !
 ! A42   A(3,20,21)            111.5476         calculate D2E/DX2 analytically  !
 ! A43   A(3,20,22)            109.4038         calculate D2E/DX2 analytically  !
 ! A44   A(3,20,23)            109.4046         calculate D2E/DX2 analytically  !
 ! A45   A(21,20,22)           109.2057         calculate D2E/DX2 analytically  !
 ! A46   A(21,20,23)           109.1982         calculate D2E/DX2 analytically  !
 ! A47   A(22,20,23)           108.0101         calculate D2E/DX2 analytically  !
 ! A48   A(3,24,25)            109.3994         calculate D2E/DX2 analytically  !
 ! A49   A(3,24,26)            111.5487         calculate D2E/DX2 analytically  !
 ! A50   A(3,24,27)            109.4035         calculate D2E/DX2 analytically  !
 ! A51   A(25,24,26)           109.2057         calculate D2E/DX2 analytically  !
 ! A52   A(25,24,27)           108.0108         calculate D2E/DX2 analytically  !
 ! A53   A(26,24,27)           109.2019         calculate D2E/DX2 analytically  !
 ! A54   L(2,1,3,28,-1)        179.9878         calculate D2E/DX2 analytically  !
 ! A55   L(2,1,3,28,-2)        179.9827         calculate D2E/DX2 analytically  !
 ! D1    D(28,1,2,4)           -50.9834         calculate D2E/DX2 analytically  !
 ! D2    D(28,1,2,8)            69.0            calculate D2E/DX2 analytically  !
 ! D3    D(28,1,2,12)         -170.9896         calculate D2E/DX2 analytically  !
 ! D4    D(29,1,2,4)            -0.1994         calculate D2E/DX2 analytically  !
 ! D5    D(29,1,2,8)           119.784          calculate D2E/DX2 analytically  !
 ! D6    D(29,1,2,12)         -120.2056         calculate D2E/DX2 analytically  !
 ! D7    D(4,2,3,16)          -179.933          calculate D2E/DX2 analytically  !
 ! D8    D(4,2,3,20)            60.0693         calculate D2E/DX2 analytically  !
 ! D9    D(4,2,3,24)           -59.9107         calculate D2E/DX2 analytically  !
 ! D10   D(8,2,3,16)           -59.9536         calculate D2E/DX2 analytically  !
 ! D11   D(8,2,3,20)          -179.9513         calculate D2E/DX2 analytically  !
 ! D12   D(8,2,3,24)            60.0687         calculate D2E/DX2 analytically  !
 ! D13   D(12,2,3,16)           60.0658         calculate D2E/DX2 analytically  !
 ! D14   D(12,2,3,20)          -59.9319         calculate D2E/DX2 analytically  !
 ! D15   D(12,2,3,24)         -179.9118         calculate D2E/DX2 analytically  !
 ! D16   D(28,1,3,16)         -128.949          calculate D2E/DX2 analytically  !
 ! D17   D(28,1,3,20)          111.0573         calculate D2E/DX2 analytically  !
 ! D18   D(28,1,3,24)           -8.9316         calculate D2E/DX2 analytically  !
 ! D19   D(29,1,3,16)         -179.733          calculate D2E/DX2 analytically  !
 ! D20   D(29,1,3,20)           60.2733         calculate D2E/DX2 analytically  !
 ! D21   D(29,1,3,24)          -59.7156         calculate D2E/DX2 analytically  !
 ! D22   D(1,2,4,5)             59.0602         calculate D2E/DX2 analytically  !
 ! D23   D(1,2,4,6)            179.9856         calculate D2E/DX2 analytically  !
 ! D24   D(1,2,4,7)            -59.0772         calculate D2E/DX2 analytically  !
 ! D25   D(8,2,4,5)            -68.3951         calculate D2E/DX2 analytically  !
 ! D26   D(8,2,4,6)             52.5304         calculate D2E/DX2 analytically  !
 ! D27   D(8,2,4,7)            173.4675         calculate D2E/DX2 analytically  !
 ! D28   D(12,2,4,5)          -173.476          calculate D2E/DX2 analytically  !
 ! D29   D(12,2,4,6)           -52.5505         calculate D2E/DX2 analytically  !
 ! D30   D(12,2,4,7)            68.3866         calculate D2E/DX2 analytically  !
 ! D31   D(1,2,8,9)             59.0469         calculate D2E/DX2 analytically  !
 ! D32   D(1,2,8,10)           179.9821         calculate D2E/DX2 analytically  !
 ! D33   D(1,2,8,11)           -59.0947         calculate D2E/DX2 analytically  !
 ! D34   D(4,2,8,9)           -173.5098         calculate D2E/DX2 analytically  !
 ! D35   D(4,2,8,10)           -52.5746         calculate D2E/DX2 analytically  !
 ! D36   D(4,2,8,11)            68.3486         calculate D2E/DX2 analytically  !
 ! D37   D(12,2,8,9)           -68.4224         calculate D2E/DX2 analytically  !
 ! D38   D(12,2,8,10)           52.5128         calculate D2E/DX2 analytically  !
 ! D39   D(12,2,8,11)          173.436          calculate D2E/DX2 analytically  !
 ! D40   D(1,2,12,13)           59.0511         calculate D2E/DX2 analytically  !
 ! D41   D(1,2,12,14)          179.9828         calculate D2E/DX2 analytically  !
 ! D42   D(1,2,12,15)          -59.0852         calculate D2E/DX2 analytically  !
 ! D43   D(4,2,12,13)          -68.404          calculate D2E/DX2 analytically  !
 ! D44   D(4,2,12,14)           52.5277         calculate D2E/DX2 analytically  !
 ! D45   D(4,2,12,15)          173.4597         calculate D2E/DX2 analytically  !
 ! D46   D(8,2,12,13)         -173.4764         calculate D2E/DX2 analytically  !
 ! D47   D(8,2,12,14)          -52.5446         calculate D2E/DX2 analytically  !
 ! D48   D(8,2,12,15)           68.3873         calculate D2E/DX2 analytically  !
 ! D49   D(1,3,16,17)           59.0752         calculate D2E/DX2 analytically  !
 ! D50   D(1,3,16,18)         -179.9883         calculate D2E/DX2 analytically  !
 ! D51   D(1,3,16,19)          -59.0611         calculate D2E/DX2 analytically  !
 ! D52   D(20,3,16,17)        -173.4745         calculate D2E/DX2 analytically  !
 ! D53   D(20,3,16,18)         -52.538          calculate D2E/DX2 analytically  !
 ! D54   D(20,3,16,19)          68.3892         calculate D2E/DX2 analytically  !
 ! D55   D(24,3,16,17)         -68.3919         calculate D2E/DX2 analytically  !
 ! D56   D(24,3,16,18)          52.5446         calculate D2E/DX2 analytically  !
 ! D57   D(24,3,16,19)         173.4718         calculate D2E/DX2 analytically  !
 ! D58   D(1,3,20,21)         -179.9803         calculate D2E/DX2 analytically  !
 ! D59   D(1,3,20,22)          -59.0455         calculate D2E/DX2 analytically  !
 ! D60   D(1,3,20,23)           59.0937         calculate D2E/DX2 analytically  !
 ! D61   D(16,3,20,21)          52.5563         calculate D2E/DX2 analytically  !
 ! D62   D(16,3,20,22)         173.4911         calculate D2E/DX2 analytically  !
 ! D63   D(16,3,20,23)         -68.3696         calculate D2E/DX2 analytically  !
 ! D64   D(24,3,20,21)         -52.5325         calculate D2E/DX2 analytically  !
 ! D65   D(24,3,20,22)          68.4023         calculate D2E/DX2 analytically  !
 ! D66   D(24,3,20,23)        -173.4584         calculate D2E/DX2 analytically  !
 ! D67   D(1,3,24,25)           59.0386         calculate D2E/DX2 analytically  !
 ! D68   D(1,3,24,26)          179.9711         calculate D2E/DX2 analytically  !
 ! D69   D(1,3,24,27)          -59.0984         calculate D2E/DX2 analytically  !
 ! D70   D(16,3,24,25)        -173.4842         calculate D2E/DX2 analytically  !
 ! D71   D(16,3,24,26)         -52.5517         calculate D2E/DX2 analytically  !
 ! D72   D(16,3,24,27)          68.3788         calculate D2E/DX2 analytically  !
 ! D73   D(20,3,24,25)         -68.4065         calculate D2E/DX2 analytically  !
 ! D74   D(20,3,24,26)          52.526          calculate D2E/DX2 analytically  !
 ! D75   D(20,3,24,27)         173.4565         calculate D2E/DX2 analytically  !
 --------------------------------------------------------------------------------
 Trust Radius=3.00D-01 FncErr=1.00D-07 GrdErr=1.00D-06 EigMax=2.50D+02 EigMin=1.00D-04
 Number of steps in this run=    168 maximum allowed number of steps=    174.
 Search for a saddle point of order  1.
 GradGradGradGradGradGradGradGradGradGradGradGradGradGradGradGradGradGrad

 Leave Link  103 at Wed Oct 30 13:33:59 2019, MaxMem=   140000000 cpu:               1.0 elap:               0.1
 (Enter /usr/g16/l202.exe)
                          Input orientation:                          
 ---------------------------------------------------------------------
 Center     Atomic      Atomic             Coordinates (Angstroms)
 Number     Number       Type             X           Y           Z
 ---------------------------------------------------------------------
      1         78           0       -0.000006   -0.000182    0.000278
      2         15           0        2.278802   -0.000006   -0.000138
      3         15           0       -2.278823    0.000108   -0.000007
      4          6           0        3.094514    1.005765   -1.314818
      5          1           0        2.778852    2.050263   -1.221881
      6          1           0        4.188197    0.951446   -1.243487
      7          1           0        2.779189    0.642916   -2.298776
      8          6           0        3.095626    0.635983    1.527571
      9          1           0        2.780446    0.033908    2.386313
     10          1           0        4.189226    0.601088    1.444160
     11          1           0        2.780805    1.669755    1.705014
     12          6           0        3.095329   -1.641079   -0.213792
     13          1           0        2.779761   -2.083423   -1.164608
     14          1           0        4.188974   -1.551639   -0.202675
     15          1           0        2.780523   -2.311727    0.592686
     16          6           0       -3.095757   -1.003756    1.315364
     17          1           0       -2.780802   -0.639858    2.299054
     18          1           0       -4.189373   -0.949032    1.243363
     19          1           0       -2.780520   -2.048510    1.223865
     20          6           0       -3.094796   -0.637334   -1.527547
     21          1           0       -4.188448   -0.602251   -1.444874
     22          1           0       -2.778992   -0.036116   -2.386660
     23          1           0       -2.779961   -1.671304   -1.703797
     24          6           0       -3.094847    1.641760    0.211154
     25          1           0       -2.778938    2.311459   -0.595678
     26          1           0       -4.188517    1.552756    0.199025
     27          1           0       -2.780058    2.084926    1.161845
     28          1           0        0.000214    1.902825   -0.052815
     29          1           0       -0.000005    1.171599   -1.520329
 ---------------------------------------------------------------------
                    Distance matrix (angstroms):
                    1          2          3          4          5
     1  Pt   0.000000
     2  P    2.278808   0.000000
     3  P    2.278817   4.557625   0.000000
     4  C    3.509624   1.845358   5.622528   0.000000
     5  H    3.663339   2.438505   5.592512   1.095105   0.000000
     6  H    4.471419   2.469204   6.653844   1.097352   1.787210
     7  H    3.663762   2.438744   5.592944   1.095108   1.772097
     8  C    3.510024   1.845421   5.623392   2.866342   3.108057
     9  H    3.664047   2.438841   5.593914   3.839468   4.133371
    10  H    4.471687   2.469217   6.654506   2.995683   3.346197
    11  H    3.664386   2.438781   5.594162   3.107842   2.951526
    12  C    3.509910   1.845396   5.623229   2.866713   3.839584
    13  H    3.663872   2.438765   5.593449   3.108812   4.134083
    14  H    4.471662   2.469280   6.654426   2.995834   4.000115
    15  H    3.664086   2.438692   5.594001   3.839650   4.724364
    16  C    3.510027   5.623517   1.845352   7.019650   7.090534
    17  H    3.664203   5.594219   2.438692   7.091367   7.109394
    18  H    4.471730   6.654640   2.469218   7.963701   7.976801
    19  H    3.663887   5.593862   2.438524   7.091511   7.327225
    20  C    3.509692   5.622697   1.845406   6.407229   6.466556
    21  H    4.471465   6.653968   2.469240   7.459502   7.458473
    22  H    3.663540   5.592680   2.438769   6.060729   6.049737
    23  H    3.663969   5.593458   2.438782   6.467415   6.706915
    24  C    3.509770   5.622823   1.845401   6.406346   6.059769
    25  H    3.663511   5.592698   2.438705   6.059657   5.599052
    26  H    4.471548   6.654093   2.469263   7.458784   7.128164
    27  H    3.664096   5.593676   2.438771   6.465991   6.048540
    28  H    1.903748   2.969092   2.969365   3.460067   3.018159
    29  H    1.919718   2.979363   2.979393   3.105767   2.929705
                    6          7          8          9         10
     6  H    0.000000
     7  H    1.787213   0.000000
     8  C    2.995328   3.839416   0.000000
     9  H    3.999886   4.724505   1.095112   0.000000
    10  H    2.710387   3.999940   1.097331   1.787178   0.000000
    11  H    3.345202   4.133369   1.095118   1.772051   1.787105
    12  C    2.995967   3.108655   2.866593   3.108903   2.995451
    13  H    3.346691   2.952840   3.839631   4.134263   3.999858
    14  H    2.710853   3.346222   2.995806   3.346755   2.710406
    15  H    4.000172   4.134062   3.108423   2.952812   3.345735
    16  C    7.964077   7.091440   6.408354   6.062462   7.460770
    17  H    7.978019   7.327964   6.062620   5.602594   7.131065
    18  H    8.943149   7.977588   7.460848   7.130980   8.523152
    19  H    7.978131   7.110776   6.467444   6.050793   7.459642
    20  C    7.459685   6.061150   7.019716   7.091356   7.963775
    21  H    8.521896   7.129345   7.964068   7.977981   8.943152
    22  H    7.129084   5.600195   7.091125   7.327587   7.977297
    23  H    7.459620   6.050931   7.091392   7.110195   7.977654
    24  C    7.458904   6.465426   6.408315   6.468042   7.460631
    25  H    7.128132   6.047921   6.467295   6.707180   7.459331
    26  H    8.521253   7.457597   7.460848   7.460400   8.523063
    27  H    7.458349   6.705260   6.062743   6.051876   7.131087
    28  H    4.456683   3.788722   3.699201   4.143898   4.635006
    29  H    4.203112   2.934179   4.377158   4.928195   5.163655
                   11         12         13         14         15
    11  H    0.000000
    12  C    3.839579   0.000000
    13  H    4.724519   1.095127   0.000000
    14  H    3.999950   1.097352   1.787174   0.000000
    15  H    4.133942   1.095116   1.772062   1.787195   0.000000
    16  C    6.467880   6.408904   6.468203   7.461362   6.063309
    17  H    6.051336   6.468829   6.708256   7.461084   6.052700
    18  H    7.460198   7.461174   7.460161   8.523547   7.131603
    19  H    6.707111   6.062875   6.051673   7.131321   5.602934
    20  C    7.091882   6.407114   6.060802   7.459527   6.466711
    21  H    7.978364   7.459768   7.129401   8.522065   7.459257
    22  H    7.110776   6.465672   6.048521   7.457825   6.705454
    23  H    7.328355   6.061358   5.600989   7.129779   6.050038
    24  C    6.062647   7.019679   7.090891   7.963862   7.091939
    25  H    6.051092   7.090515   7.108995   7.976827   7.327596
    26  H    7.131139   7.964007   7.977355   8.943209   7.978516
    27  H    5.602731   7.091944   7.327967   7.978341   7.111579
    28  H    3.297874   4.707963   4.985192   5.431528   5.090112
    29  H    4.287645   4.381700   4.295208   5.167184   4.932518
                   16         17         18         19         20
    16  C    0.000000
    17  H    1.095109   0.000000
    18  H    1.097349   1.787217   0.000000
    19  H    1.095106   1.772098   1.787204   0.000000
    20  C    2.866428   3.839463   2.995529   3.108127   0.000000
    21  H    2.995679   3.999985   2.710512   3.346057   1.097333
    22  H    3.839486   4.724450   3.999957   4.133476   1.095112
    23  H    3.108164   4.133606   3.345724   2.951862   1.095116
    24  C    2.866712   3.108654   2.995938   3.839593   2.866592
    25  H    3.839675   4.133975   4.000275   4.724412   3.108621
    26  H    2.996012   3.346541   2.711012   4.000234   2.995625
    27  H    3.108567   2.952574   3.346299   4.133901   3.839608
    28  H    4.461520   4.441911   5.231234   4.997544   4.266887
    29  H    4.728319   5.059831   5.448474   5.062703   3.584693
                   21         22         23         24         25
    21  H    0.000000
    22  H    1.787187   0.000000
    23  H    1.787107   1.772045   0.000000
    24  C    2.995660   3.108644   3.839607   0.000000
    25  H    3.346275   2.952749   4.134045   1.095113   0.000000
    26  H    2.710435   3.346198   3.999916   1.097353   1.787203
    27  H    3.999933   4.134091   4.724528   1.095126   1.772063
    28  H    5.075246   4.114646   4.819701   3.117248   2.861008
    29  H    4.549208   3.151487   3.980441   3.577307   3.142726
                   26         27         28         29
    26  H    0.000000
    27  H    1.787172   0.000000
    28  H    4.210871   3.039485   0.000000
    29  H    4.543687   3.969498   1.639600   0.000000
 Stoichiometry    C6H20P2Pt
 Framework group  C1[X(C6H20P2Pt)]
 Deg. of freedom    81
 Full point group                 C1      NOp   1
 Largest Abelian subgroup         C1      NOp   1
 Largest concise Abelian subgroup C1      NOp   1
                         Standard orientation:                         
 ---------------------------------------------------------------------
 Center     Atomic      Atomic             Coordinates (Angstroms)
 Number     Number       Type             X           Y           Z
 ---------------------------------------------------------------------
      1         78           0        0.000007   -0.021347   -0.000140
      2         15           0       -2.278801   -0.021002    0.000150
      3         15           0        2.278824   -0.020958   -0.000020
      4          6           0       -3.094513    1.474026    0.710677
      5          1           0       -2.778852    2.360900    0.151151
      6          1           0       -4.188196    1.393133    0.672011
      7          1           0       -2.779188    1.600396    1.751764
      8          6           0       -3.095625   -0.152592   -1.649414
      9          1           0       -2.780445   -1.080301   -2.138584
     10          1           0       -4.189225   -0.145560   -1.559271
     11          1           0       -2.780805    0.686160   -2.279229
     12          6           0       -3.095327   -1.383545    0.939430
     13          1           0       -2.779758   -1.343033    1.987322
     14          1           0       -4.188972   -1.309045    0.888708
     15          1           0       -2.780520   -2.348404    0.528064
     16          6           0        3.095759   -1.514605   -0.712032
     17          1           0        2.780804   -1.639919   -1.753360
     18          1           0        4.189375   -1.433045   -0.672955
     19          1           0        2.780523   -2.402363   -0.153669
     20          6           0        3.094798    0.109262    1.650057
     21          1           0        4.188450    0.102734    1.560485
     22          1           0        2.778993    1.036378    2.139949
     23          1           0        2.779963   -0.730210    2.278901
     24          6           0        3.094847    1.343239   -0.937346
     25          1           0        2.778938    2.307415   -0.525232
     26          1           0        4.188517    1.269589   -0.885923
     27          1           0        2.780058    1.303515   -1.985502
     28          1           0       -0.000214    1.696018   -0.821672
     29          1           0        0.000006    1.715393    0.817814
 ---------------------------------------------------------------------
 Rotational constants (GHZ):           1.7533133           0.3735783           0.3723004
 Leave Link  202 at Wed Oct 30 13:33:59 2019, MaxMem=   140000000 cpu:               1.9 elap:               0.1
 (Enter /usr/g16/l301.exe)
 General basis read from cards:  (5D, 7F)
 Centers:       1
 SDD
 ****
 Centers:       2      3      4      8     12     16     20     24      5      6
 Centers:       7      9     10     11     13     14     15     17     18     19
 Centers:      21     22     23     25     26     27     28     29
 6-31g*
 ****
 ======================================================================================================
                                       Pseudopotential Parameters
 ======================================================================================================
  Center     Atomic      Valence      Angular      Power
  Number     Number     Electrons     Momentum     of R      Exponent        Coefficient   SO-Coeffient
 ======================================================================================================
    1         78           18
                                      H and up 
                                                     2        1.0000000        0.00000000    0.00000000
                                      S - H
                                                     2       13.4286510      579.22386100    0.00000000
                                                     2        6.7143260       29.66949100    0.00000000
                                      P - H
                                                     2       10.3659440      280.86077400    0.00000000
                                                     2        5.1829720       26.74538200    0.00000000
                                      D - H
                                                     2        7.6004790      120.39644400    0.00000000
                                                     2        3.8002400       15.81092100    0.00000000
                                      F - H
                                                     2        3.3095690       24.31437600    0.00000000
                                      G - H
                                                     2        5.2772890      -24.21867500    0.00000000
    2         15
                                   No pseudopotential on this center.
    3         15
                                   No pseudopotential on this center.
    4          6
                                   No pseudopotential on this center.
    5          1
                                   No pseudopotential on this center.
    6          1
                                   No pseudopotential on this center.
    7          1
                                   No pseudopotential on this center.
    8          6
                                   No pseudopotential on this center.
    9          1
                                   No pseudopotential on this center.
   10          1
                                   No pseudopotential on this center.
   11          1
                                   No pseudopotential on this center.
   12          6
                                   No pseudopotential on this center.
   13          1
                                   No pseudopotential on this center.
   14          1
                                   No pseudopotential on this center.
   15          1
                                   No pseudopotential on this center.
   16          6
                                   No pseudopotential on this center.
   17          1
                                   No pseudopotential on this center.
   18          1
                                   No pseudopotential on this center.
   19          1
                                   No pseudopotential on this center.
   20          6
                                   No pseudopotential on this center.
   21          1
                                   No pseudopotential on this center.
   22          1
                                   No pseudopotential on this center.
   23          1
                                   No pseudopotential on this center.
   24          6
                                   No pseudopotential on this center.
   25          1
                                   No pseudopotential on this center.
   26          1
                                   No pseudopotential on this center.
   27          1
                                   No pseudopotential on this center.
   28          1
                                   No pseudopotential on this center.
   29          1
                                   No pseudopotential on this center.
 ======================================================================================================
 Ernie: Thresh=  0.10000D-02 Tol=  0.10000D-05 Strict=F.
 There are   207 symmetry adapted cartesian basis functions of A   symmetry.
 There are   196 symmetry adapted basis functions of A   symmetry.
   196 basis functions,   417 primitive gaussians,   207 cartesian basis functions
    52 alpha electrons       52 beta electrons
       nuclear repulsion energy       814.0905179843 Hartrees.
 IExCor=  402 DFT=T Ex+Corr=B3LYP ExCW=0 ScaHFX=  0.200000
 ScaDFX=  0.800000  0.720000  1.000000  0.810000 ScalE2=  1.000000  1.000000
 IRadAn=      5 IRanWt=     -1 IRanGd=            0 ICorTp=0 IEmpDi=141
 NAtoms=   29 NActive=   29 NUniq=   29 SFac= 1.00D+00 NAtFMM=   60 NAOKFM=F Big=F
 Integral buffers will be    131072 words long.
 Raffenetti 2 integral format.
 Two-electron integral symmetry is turned on.
 R6Disp:  Grimme-D3(BJ) Dispersion energy=       -0.0611799611 Hartrees.
 Nuclear repulsion after empirical dispersion term =      814.0293380232 Hartrees.
 Force inversion solution in PCM.
 ------------------------------------------------------------------------------
 Polarizable Continuum Model (PCM)
 =================================
 Model                : PCM.
 Atomic radii         : SMD-Coulomb.
 Polarization charges : Total charges.
 Charge compensation  : None.
 Solution method      : Matrix inversion.
 Cavity type          : VdW (van der Waals Surface) (Alpha=1.000).
 Cavity algorithm     : GePol (No added spheres)
                        Default sphere list used, NSphG=   29.
                        Lebedev-Laikov grids with approx.  5.0 points / Ang**2.
                        Smoothing algorithm: York/Karplus (Gamma=1.0000).
                        Polarization charges: spherical gaussians, with
                                              point-specific exponents (IZeta= 3).
                        Self-potential: point-specific (ISelfS= 7).
                        Self-field    : sphere-specific E.n sum rule (ISelfD= 2).
 1st derivatives      : Analytical E(r).r(x)/FMM algorithm (CHGder, D1EAlg=3).
                        Cavity 1st derivative terms included.
 2nd derivatives      : Analytical E(r).r(xy)/FMM algorithm (CHGder, D2EAlg=3).
                        Cavity 2nd derivative terms included.
 Solvent              : Benzene, Eps=   2.270600 Eps(inf)=   2.253301
 ------------------------------------------------------------------------------
 GePol: Number of generator spheres                  =      29
 GePol: Total number of spheres                      =      29
 GePol: Number of exposed spheres                    =      29 (100.00%)
 GePol: Number of points                             =    2145
 GePol: Average weight of points                     =       0.12
 GePol: Minimum weight of points                     =   0.43D-10
 GePol: Maximum weight of points                     =    0.22001
 GePol: Number of points with low weight             =     123
 GePol: Fraction of low-weight points (<1% of avg)   =       5.73%
 GePol: Cavity surface area                          =    256.327 Ang**2
 GePol: Cavity volume                                =    210.550 Ang**3
 ------------------------------------------------------------------------------
 Atomic radii for non-electrostatic terms: SMD-CDS.
 ------------------------------------------------------------------------------
 PCM non-electrostatic energy =         0.0000589889 Hartrees.
 Nuclear repulsion after PCM non-electrostatic terms =      814.0293970121 Hartrees.
 Leave Link  301 at Wed Oct 30 13:33:59 2019, MaxMem=   140000000 cpu:               5.7 elap:               0.3
 (Enter /usr/g16/l302.exe)
 NPDir=0 NMtPBC=     1 NCelOv=     1 NCel=       1 NClECP=     1 NCelD=      1
         NCelK=      1 NCelE2=     1 NClLst=     1 CellRange=     0.0.
 One-electron integrals computed using PRISM.
 One-electron integral symmetry used in STVInt
   1 Symmetry operations used in ECPInt.
 ECPInt:  NShTT=    3916 NPrTT=   20546 LenC2=    3685 LenP2D=   12931.
 LDataN:  DoStor=T MaxTD1= 7 Len=  274
 Number of processors reduced to  20 by ecpmxn.
 NBasis=   196 RedAO= T EigKep=  1.28D-03  NBF=   196
 NBsUse=   196 1.00D-06 EigRej= -1.00D+00 NBFU=   196
 Precomputing XC quadrature grid using
 IXCGrd= 4 IRadAn=           5 IRanWt=          -1 IRanGd=           0 AccXCQ= 0.00D+00.
 Defaulting to unpruned grid for atomic number  78.
 Generated NRdTot=       0 NPtTot=           0 NUsed=           0 NTot=          32
 NSgBfM=   207   207   207   207   207 MxSgAt=    29 MxSgA2=    29.
 Leave Link  302 at Wed Oct 30 13:34:00 2019, MaxMem=   140000000 cpu:              21.8 elap:               0.9
 (Enter /usr/g16/l303.exe)
 DipDrv:  MaxL=1.
 Leave Link  303 at Wed Oct 30 13:34:01 2019, MaxMem=   140000000 cpu:               4.0 elap:               0.2
 (Enter /usr/g16/l401.exe)
 ExpMin= 1.50D-02 ExpMax= 1.94D+04 ExpMxC= 2.91D+03 IAcc=3 IRadAn=         5 AccDes= 0.00D+00
 Harris functional with IExCor=  402 and IRadAn=       5 diagonalized for initial guess.
 HarFok:  IExCor=  402 AccDes= 0.00D+00 IRadAn=         5 IDoV= 1 UseB2=F ITyADJ=14
 ICtDFT=  3500011 ScaDFX=  1.000000  1.000000  1.000000  1.000000
 Defaulting to unpruned grid for atomic number  78.
 FoFCou: FMM=F IPFlag=           0 FMFlag=      100000 FMFlg1=           0
         NFxFlg=           0 DoJE=T BraDBF=F KetDBF=T FulRan=T
         wScrn=  0.000000 ICntrl=       500 IOpCl=  0 I1Cent=   200000004 NGrid=           0
         NMat0=    1 NMatS0=      1 NMatT0=    0 NMatD0=    1 NMtDS0=    0 NMtDT0=    0
 Petite list used in FoFCou.
 Harris En= -1042.62008649449    
 JPrj=0 DoOrth=F DoCkMO=F.
 Leave Link  401 at Wed Oct 30 13:34:03 2019, MaxMem=   140000000 cpu:              49.3 elap:               2.1
 (Enter /usr/g16/l502.exe)
 Integral symmetry usage will be decided dynamically.
 Closed shell SCF:
 Using DIIS extrapolation, IDIIS=  1040.
 NGot=   140000000 LenX=   139906737 LenY=   139863447
 Requested convergence on RMS density matrix=1.00D-08 within 128 cycles.
 Requested convergence on MAX density matrix=1.00D-06.
 Requested convergence on             energy=1.00D-06.
 No special actions if energy rises.
 Fock matrices will be formed incrementally for  20 cycles.

 Cycle   1  Pass 1  IDiag  1:
 FoFJK:  IHMeth= 1 ICntrl=       0 DoSepK=F KAlg= 0 I1Cent=           0 FoldK=F
 IRaf= 900000000 NMat=       1 IRICut=       1 DoRegI=T DoRafI=F ISym2E= 0 IDoP0=0 IntGTp=1.
 FoFCou: FMM=F IPFlag=           0 FMFlag=      100000 FMFlg1=           0
         NFxFlg=           0 DoJE=F BraDBF=F KetDBF=F FulRan=T
         wScrn=  0.000000 ICntrl=         0 IOpCl=  0 I1Cent=           0 NGrid=           0
         NMat0=    1 NMatS0=      1 NMatT0=    0 NMatD0=    1 NMtDS0=    0 NMtDT0=    0
 Symmetry not used in FoFCou.
 Defaulting to unpruned grid for atomic number  78.
 Defaulting to unpruned grid for atomic number  78.
 Defaulting to unpruned grid for atomic number  78.
 Defaulting to unpruned grid for atomic number  78.
 Defaulting to unpruned grid for atomic number  78.
 Defaulting to unpruned grid for atomic number  78.
 Defaulting to unpruned grid for atomic number  78.
 Defaulting to unpruned grid for atomic number  78.
 Defaulting to unpruned grid for atomic number  78.
 Defaulting to unpruned grid for atomic number  78.
 Defaulting to unpruned grid for atomic number  78.
 Defaulting to unpruned grid for atomic number  78.
 Defaulting to unpruned grid for atomic number  78.
 Defaulting to unpruned grid for atomic number  78.
 Defaulting to unpruned grid for atomic number  78.
 Defaulting to unpruned grid for atomic number  78.
 Defaulting to unpruned grid for atomic number  78.
 Defaulting to unpruned grid for atomic number  78.
 Defaulting to unpruned grid for atomic number  78.
 Defaulting to unpruned grid for atomic number  78.
 Defaulting to unpruned grid for atomic number  78.
 Defaulting to unpruned grid for atomic number  78.
 Defaulting to unpruned grid for atomic number  78.
 Defaulting to unpruned grid for atomic number  78.
 Inv3:  Mode=1 IEnd=    13803075.
 Iteration    1 A*A^-1 deviation from unit magnitude is 8.44D-15 for    152.
 Iteration    1 A*A^-1 deviation from orthogonality  is 2.99D-15 for   1217    186.
 Iteration    1 A^-1*A deviation from unit magnitude is 7.66D-15 for    162.
 Iteration    1 A^-1*A deviation from orthogonality  is 2.16D-15 for   1164    160.
 E= -1041.92890665308    
 DIIS: error= 7.27D-02 at cycle   1 NSaved=   1.
 NSaved= 1 IEnMin= 1 EnMin= -1041.92890665308     IErMin= 1 ErrMin= 7.27D-02
 ErrMax= 7.27D-02  0.00D+00 EMaxC= 1.00D-01 BMatC= 9.98D-01 BMatP= 9.98D-01
 IDIUse=3 WtCom= 2.73D-01 WtEn= 7.27D-01
 Coeff-Com:  0.100D+01
 Coeff-En:   0.100D+01
 Coeff:      0.100D+01
 Gap=     0.107 Goal=   None    Shift=    0.000
 GapD=    0.107 DampG=1.000 DampE=0.250 DampFc=0.2500 IDamp=-1.
 Damping current iteration by 2.50D-01
 RMSDP=1.26D-02 MaxDP=6.12D-01              OVMax= 5.67D-01

 Cycle   2  Pass 1  IDiag  1:
 RMSU=  3.15D-03    CP:  9.96D-01
 E= -1042.29502931751     Delta-E=       -0.366122664430 Rises=F Damp=T
 DIIS: error= 2.77D-02 at cycle   2 NSaved=   2.
 NSaved= 2 IEnMin= 2 EnMin= -1042.29502931751     IErMin= 2 ErrMin= 2.77D-02
 ErrMax= 2.77D-02  0.00D+00 EMaxC= 1.00D-01 BMatC= 1.37D-01 BMatP= 9.98D-01
 IDIUse=3 WtCom= 7.23D-01 WtEn= 2.77D-01
 Coeff-Com: -0.492D+00 0.149D+01
 Coeff-En:   0.000D+00 0.100D+01
 Coeff:     -0.356D+00 0.136D+01
 Gap=     0.184 Goal=   None    Shift=    0.000
 RMSDP=3.09D-03 MaxDP=1.63D-01 DE=-3.66D-01 OVMax= 3.86D-01

 Cycle   3  Pass 1  IDiag  1:
 RMSU=  2.94D-03    CP:  9.87D-01  1.28D+00
 E= -1042.78788867139     Delta-E=       -0.492859353880 Rises=F Damp=F
 DIIS: error= 1.70D-02 at cycle   3 NSaved=   3.
 NSaved= 3 IEnMin= 3 EnMin= -1042.78788867139     IErMin= 3 ErrMin= 1.70D-02
 ErrMax= 1.70D-02  0.00D+00 EMaxC= 1.00D-01 BMatC= 3.45D-02 BMatP= 1.37D-01
 IDIUse=3 WtCom= 8.30D-01 WtEn= 1.70D-01
 Coeff-Com: -0.544D-01 0.437D+00 0.617D+00
 Coeff-En:   0.000D+00 0.000D+00 0.100D+01
 Coeff:     -0.451D-01 0.363D+00 0.683D+00
 Gap=     0.069 Goal=   None    Shift=    0.000
 RMSDP=1.07D-03 MaxDP=2.64D-02 DE=-4.93D-01 OVMax= 3.28D-02

 Cycle   4  Pass 1  IDiag  1:
 RMSU=  6.44D-04    CP:  9.90D-01  1.07D+00  8.25D-01
 E= -1042.82032703608     Delta-E=       -0.032438364693 Rises=F Damp=F
 DIIS: error= 5.04D-03 at cycle   4 NSaved=   4.
 NSaved= 4 IEnMin= 4 EnMin= -1042.82032703608     IErMin= 4 ErrMin= 5.04D-03
 ErrMax= 5.04D-03  0.00D+00 EMaxC= 1.00D-01 BMatC= 3.03D-03 BMatP= 3.45D-02
 IDIUse=3 WtCom= 9.50D-01 WtEn= 5.04D-02
 Coeff-Com:  0.358D-01-0.270D-01 0.294D+00 0.698D+00
 Coeff-En:   0.000D+00 0.000D+00 0.000D+00 0.100D+01
 Coeff:      0.340D-01-0.256D-01 0.279D+00 0.713D+00
 Gap=     0.070 Goal=   None    Shift=    0.000
 RMSDP=3.33D-04 MaxDP=9.11D-03 DE=-3.24D-02 OVMax= 1.11D-02

 Cycle   5  Pass 1  IDiag  1:
 RMSU=  2.44D-04    CP:  9.88D-01  1.11D+00  8.71D-01  8.10D-01
 E= -1042.82329373946     Delta-E=       -0.002966703379 Rises=F Damp=F
 DIIS: error= 6.95D-04 at cycle   5 NSaved=   5.
 NSaved= 5 IEnMin= 5 EnMin= -1042.82329373946     IErMin= 5 ErrMin= 6.95D-04
 ErrMax= 6.95D-04  0.00D+00 EMaxC= 1.00D-01 BMatC= 1.66D-04 BMatP= 3.03D-03
 IDIUse=3 WtCom= 9.93D-01 WtEn= 6.95D-03
 Coeff-Com:  0.990D-02-0.194D-01 0.761D-01 0.317D+00 0.617D+00
 Coeff-En:   0.000D+00 0.000D+00 0.000D+00 0.000D+00 0.100D+01
 Coeff:      0.983D-02-0.193D-01 0.756D-01 0.314D+00 0.620D+00
 Gap=     0.070 Goal=   None    Shift=    0.000
 RMSDP=9.80D-05 MaxDP=3.52D-03 DE=-2.97D-03 OVMax= 4.25D-03

 Cycle   6  Pass 1  IDiag  1:
 RMSU=  4.11D-05    CP:  9.89D-01  1.10D+00  8.75D-01  8.37D-01  6.54D-01
 E= -1042.82347496725     Delta-E=       -0.000181227793 Rises=F Damp=F
 DIIS: error= 4.91D-05 at cycle   6 NSaved=   6.
 NSaved= 6 IEnMin= 6 EnMin= -1042.82347496725     IErMin= 6 ErrMin= 4.91D-05
 ErrMax= 4.91D-05  0.00D+00 EMaxC= 1.00D-01 BMatC= 8.90D-07 BMatP= 1.66D-04
 IDIUse=1 WtCom= 1.00D+00 WtEn= 0.00D+00
 Coeff-Com:  0.159D-02-0.359D-02 0.132D-01 0.608D-01 0.143D+00 0.785D+00
 Coeff:      0.159D-02-0.359D-02 0.132D-01 0.608D-01 0.143D+00 0.785D+00
 Gap=     0.070 Goal=   None    Shift=    0.000
 RMSDP=1.34D-05 MaxDP=2.75D-04 DE=-1.81D-04 OVMax= 7.15D-04

 Cycle   7  Pass 1  IDiag  1:
 RMSU=  1.22D-05    CP:  9.88D-01  1.10D+00  8.76D-01  8.40D-01  6.62D-01
                    CP:  9.25D-01
 E= -1042.82347572084     Delta-E=       -0.000000753594 Rises=F Damp=F
 DIIS: error= 4.13D-05 at cycle   7 NSaved=   7.
 NSaved= 7 IEnMin= 7 EnMin= -1042.82347572084     IErMin= 7 ErrMin= 4.13D-05
 ErrMax= 4.13D-05  0.00D+00 EMaxC= 1.00D-01 BMatC= 3.87D-07 BMatP= 8.90D-07
 IDIUse=1 WtCom= 1.00D+00 WtEn= 0.00D+00
 Coeff-Com:  0.679D-04-0.501D-03 0.127D-02 0.878D-02 0.287D-01 0.414D+00
 Coeff-Com:  0.547D+00
 Coeff:      0.679D-04-0.501D-03 0.127D-02 0.878D-02 0.287D-01 0.414D+00
 Coeff:      0.547D+00
 Gap=     0.070 Goal=   None    Shift=    0.000
 RMSDP=4.45D-06 MaxDP=1.09D-04 DE=-7.54D-07 OVMax= 1.75D-04

 Cycle   8  Pass 1  IDiag  1:
 RMSU=  2.03D-06    CP:  9.88D-01  1.10D+00  8.76D-01  8.41D-01  6.64D-01
                    CP:  9.76D-01  7.45D-01
 E= -1042.82347617917     Delta-E=       -0.000000458322 Rises=F Damp=F
 DIIS: error= 6.53D-06 at cycle   8 NSaved=   8.
 NSaved= 8 IEnMin= 8 EnMin= -1042.82347617917     IErMin= 8 ErrMin= 6.53D-06
 ErrMax= 6.53D-06  0.00D+00 EMaxC= 1.00D-01 BMatC= 9.49D-09 BMatP= 3.87D-07
 IDIUse=1 WtCom= 1.00D+00 WtEn= 0.00D+00
 Coeff-Com: -0.604D-04 0.769D-04-0.715D-03-0.255D-02-0.134D-02 0.776D-01
 Coeff-Com:  0.162D+00 0.765D+00
 Coeff:     -0.604D-04 0.769D-04-0.715D-03-0.255D-02-0.134D-02 0.776D-01
 Coeff:      0.162D+00 0.765D+00
 Gap=     0.070 Goal=   None    Shift=    0.000
 RMSDP=9.40D-07 MaxDP=1.90D-05 DE=-4.58D-07 OVMax= 5.29D-05

 Cycle   9  Pass 1  IDiag  1:
 RMSU=  6.68D-07    CP:  9.88D-01  1.10D+00  8.76D-01  8.41D-01  6.64D-01
                    CP:  9.90D-01  7.50D-01  9.39D-01
 E= -1042.82347618792     Delta-E=       -0.000000008758 Rises=F Damp=F
 DIIS: error= 3.88D-06 at cycle   9 NSaved=   9.
 NSaved= 9 IEnMin= 9 EnMin= -1042.82347618792     IErMin= 9 ErrMin= 3.88D-06
 ErrMax= 3.88D-06  0.00D+00 EMaxC= 1.00D-01 BMatC= 2.47D-09 BMatP= 9.49D-09
 IDIUse=1 WtCom= 1.00D+00 WtEn= 0.00D+00
 Coeff-Com:  0.112D-04 0.943D-05-0.380D-03-0.180D-02-0.195D-02 0.112D-01
 Coeff-Com:  0.369D-01 0.337D+00 0.619D+00
 Coeff:      0.112D-04 0.943D-05-0.380D-03-0.180D-02-0.195D-02 0.112D-01
 Coeff:      0.369D-01 0.337D+00 0.619D+00
 Gap=     0.070 Goal=   None    Shift=    0.000
 RMSDP=4.10D-07 MaxDP=1.69D-05 DE=-8.76D-09 OVMax= 2.50D-05

 Cycle  10  Pass 1  IDiag  1:
 RMSU=  2.27D-07    CP:  9.88D-01  1.10D+00  8.76D-01  8.41D-01  6.65D-01
                    CP:  9.89D-01  7.70D-01  1.00D+00  8.51D-01
 E= -1042.82347619075     Delta-E=       -0.000000002831 Rises=F Damp=F
 DIIS: error= 4.62D-07 at cycle  10 NSaved=  10.
 NSaved=10 IEnMin=10 EnMin= -1042.82347619075     IErMin=10 ErrMin= 4.62D-07
 ErrMax= 4.62D-07  0.00D+00 EMaxC= 1.00D-01 BMatC= 3.99D-11 BMatP= 2.47D-09
 IDIUse=1 WtCom= 1.00D+00 WtEn= 0.00D+00
 Coeff-Com:  0.130D-04-0.145D-04 0.139D-05-0.729D-04-0.147D-03-0.452D-02
 Coeff-Com: -0.922D-02-0.158D-01 0.926D-01 0.937D+00
 Coeff:      0.130D-04-0.145D-04 0.139D-05-0.729D-04-0.147D-03-0.452D-02
 Coeff:     -0.922D-02-0.158D-01 0.926D-01 0.937D+00
 Gap=     0.070 Goal=   None    Shift=    0.000
 RMSDP=1.35D-07 MaxDP=4.53D-06 DE=-2.83D-09 OVMax= 1.61D-05

 Cycle  11  Pass 1  IDiag  1:
 RMSU=  6.88D-08    CP:  9.88D-01  1.10D+00  8.76D-01  8.41D-01  6.65D-01
                    CP:  9.90D-01  7.72D-01  1.03D+00  9.57D-01  1.21D+00
 E= -1042.82347619088     Delta-E=       -0.000000000125 Rises=F Damp=F
 DIIS: error= 1.82D-07 at cycle  11 NSaved=  11.
 NSaved=11 IEnMin=11 EnMin= -1042.82347619088     IErMin=11 ErrMin= 1.82D-07
 ErrMax= 1.82D-07  0.00D+00 EMaxC= 1.00D-01 BMatC= 6.97D-12 BMatP= 3.99D-11
 IDIUse=1 WtCom= 1.00D+00 WtEn= 0.00D+00
 Coeff-Com: -0.355D-06 0.750D-06 0.299D-04 0.126D-03 0.703D-04-0.220D-02
 Coeff-Com: -0.556D-02-0.333D-01-0.260D-01 0.271D+00 0.796D+00
 Coeff:     -0.355D-06 0.750D-06 0.299D-04 0.126D-03 0.703D-04-0.220D-02
 Coeff:     -0.556D-02-0.333D-01-0.260D-01 0.271D+00 0.796D+00
 Gap=     0.070 Goal=   None    Shift=    0.000
 RMSDP=4.97D-08 MaxDP=1.82D-06 DE=-1.25D-10 OVMax= 5.90D-06

 Cycle  12  Pass 1  IDiag  1:
 RMSU=  2.90D-08    CP:  9.88D-01  1.10D+00  8.76D-01  8.41D-01  6.65D-01
                    CP:  9.90D-01  7.72D-01  1.03D+00  9.88D-01  1.33D+00
                    CP:  1.16D+00
 E= -1042.82347619091     Delta-E=       -0.000000000029 Rises=F Damp=F
 DIIS: error= 5.38D-08 at cycle  12 NSaved=  12.
 NSaved=12 IEnMin=12 EnMin= -1042.82347619091     IErMin=12 ErrMin= 5.38D-08
 ErrMax= 5.38D-08  0.00D+00 EMaxC= 1.00D-01 BMatC= 4.75D-13 BMatP= 6.97D-12
 IDIUse=1 WtCom= 1.00D+00 WtEn= 0.00D+00
 Coeff-Com: -0.181D-05 0.140D-05 0.635D-05 0.396D-04 0.524D-04 0.522D-03
 Coeff-Com:  0.107D-02-0.126D-02-0.187D-01-0.113D+00 0.128D+00 0.100D+01
 Coeff:     -0.181D-05 0.140D-05 0.635D-05 0.396D-04 0.524D-04 0.522D-03
 Coeff:      0.107D-02-0.126D-02-0.187D-01-0.113D+00 0.128D+00 0.100D+01
 Gap=     0.070 Goal=   None    Shift=    0.000
 RMSDP=2.64D-08 MaxDP=1.07D-06 DE=-2.91D-11 OVMax= 3.51D-06

 Cycle  13  Pass 1  IDiag  1:
 RMSU=  7.79D-09    CP:  9.88D-01  1.10D+00  8.76D-01  8.41D-01  6.65D-01
                    CP:  9.90D-01  7.72D-01  1.04D+00  1.00D+00  1.39D+00
                    CP:  1.41D+00  1.18D+00
 E= -1042.82347619091     Delta-E=        0.000000000001 Rises=F Damp=F
 DIIS: error= 1.38D-08 at cycle  13 NSaved=  13.
 NSaved=13 IEnMin=12 EnMin= -1042.82347619091     IErMin=13 ErrMin= 1.38D-08
 ErrMax= 1.38D-08  0.00D+00 EMaxC= 1.00D-01 BMatC= 4.70D-14 BMatP= 4.75D-13
 IDIUse=1 WtCom= 1.00D+00 WtEn= 0.00D+00
 Coeff-Com: -0.593D-07-0.645D-07-0.219D-05-0.841D-05-0.831D-06 0.205D-03
 Coeff-Com:  0.512D-03 0.235D-02-0.688D-03-0.385D-01-0.498D-01 0.984D-01
 Coeff-Com:  0.987D+00
 Coeff:     -0.593D-07-0.645D-07-0.219D-05-0.841D-05-0.831D-06 0.205D-03
 Coeff:      0.512D-03 0.235D-02-0.688D-03-0.385D-01-0.498D-01 0.984D-01
 Coeff:      0.987D+00
 Gap=     0.070 Goal=   None    Shift=    0.000
 RMSDP=7.16D-09 MaxDP=2.93D-07 DE= 6.82D-13 OVMax= 9.64D-07

 Error on total polarization charges =  0.04844
 SCF Done:  E(RB3LYP) =  -1042.82347619     A.U. after   13 cycles
            NFock= 13  Conv=0.72D-08     -V/T= 2.0859
 KE= 9.603514721736D+02 PE=-4.055806317678D+03 EE= 1.238601972301D+03
 SMD-CDS (non-electrostatic) energy       (kcal/mol) =       0.04
 (included in total energy above)
 Leave Link  502 at Wed Oct 30 13:35:11 2019, MaxMem=   140000000 cpu:            1575.9 elap:              68.0
 (Enter /usr/g16/l801.exe)
 DoSCS=F DFT=T ScalE2(SS,OS)=  1.000000  1.000000
 Range of M.O.s used for correlation:     1   196
 NBasis=   196 NAE=    52 NBE=    52 NFC=     0 NFV=     0
 NROrb=    196 NOA=    52 NOB=    52 NVA=   144 NVB=   144

 **** Warning!!: The smallest alpha delta epsilon is  0.70001604D-01

 Leave Link  801 at Wed Oct 30 13:35:11 2019, MaxMem=   140000000 cpu:               3.3 elap:               0.1
 (Enter /usr/g16/l1101.exe)
 Using compressed storage, NAtomX=    29.
 Will process     30 centers per pass.
   1 Symmetry operations used in ECPInt.
 ECPInt:  NShTT=    3916 NPrTT=   20546 LenC2=    3685 LenP2D=   12931.
 LDataN:  DoStor=T MaxTD1= 8 Len=  415
 Number of processors reduced to   7 by ecpmxn.
 R6Disp: Adding Grimme-D3(BJ) dispersion energy 1st derivatives to the gradient.
 Leave Link 1101 at Wed Oct 30 13:35:13 2019, MaxMem=   140000000 cpu:              27.6 elap:               1.7
 (Enter /usr/g16/l1102.exe)
 Symmetrizing basis deriv contribution to polar:
 IMax=3 JMax=2 DiffMx= 0.00D+00
 Leave Link 1102 at Wed Oct 30 13:35:13 2019, MaxMem=   140000000 cpu:               4.3 elap:               0.2
 (Enter /usr/g16/l1110.exe)
 Forming Gx(P) for the SCF density, NAtomX=    29.
 Integral derivatives from FoFJK, PRISM(SPDF).
 Do as many integral derivatives as possible in FoFJK.
 G2DrvN: MDV=     139997776.
 G2DrvN: will do    30 centers at a time, making    1 passes.
 Calling FoFCou, ICntrl=  3107 FMM=F I1Cent=   0 AccDes= 0.00D+00.
 FoFJK:  IHMeth= 1 ICntrl=    3107 DoSepK=F KAlg= 0 I1Cent=           0 FoldK=F
 IRaf=         0 NMat=       1 IRICut=       1 DoRegI=T DoRafI=F ISym2E= 0 IDoP0=0 IntGTp=1.
 FoFCou: FMM=F IPFlag=           0 FMFlag=      100000 FMFlg1=           0
         NFxFlg=           0 DoJE=F BraDBF=F KetDBF=F FulRan=T
         wScrn=  0.000000 ICntrl=      3107 IOpCl=  0 I1Cent=           0 NGrid=           0
         NMat0=    1 NMatS0=      1 NMatT0=    0 NMatD0=    1 NMtDS0=    0 NMtDT0=    0
 Symmetry not used in FoFCou.
 Defaulting to unpruned grid for atomic number  78.
 Defaulting to unpruned grid for atomic number  78.
 Defaulting to unpruned grid for atomic number  78.
 Defaulting to unpruned grid for atomic number  78.
 Defaulting to unpruned grid for atomic number  78.
 Defaulting to unpruned grid for atomic number  78.
 Defaulting to unpruned grid for atomic number  78.
 Defaulting to unpruned grid for atomic number  78.
 Defaulting to unpruned grid for atomic number  78.
 Defaulting to unpruned grid for atomic number  78.
 Defaulting to unpruned grid for atomic number  78.
 Defaulting to unpruned grid for atomic number  78.
 Defaulting to unpruned grid for atomic number  78.
 Defaulting to unpruned grid for atomic number  78.
 Defaulting to unpruned grid for atomic number  78.
 Defaulting to unpruned grid for atomic number  78.
 Defaulting to unpruned grid for atomic number  78.
 Defaulting to unpruned grid for atomic number  78.
 Defaulting to unpruned grid for atomic number  78.
 Defaulting to unpruned grid for atomic number  78.
 Defaulting to unpruned grid for atomic number  78.
 Defaulting to unpruned grid for atomic number  78.
 Defaulting to unpruned grid for atomic number  78.
 Defaulting to unpruned grid for atomic number  78.
 NEqPCM:  Using equilibrium solvation (IEInf=0, Eps=   2.2706, EpsInf=   2.2533)
 G2PCM: DoFxE=T DoFxN=T DoGrad=T DoDP/DQ/DG/TGxP=FFFF NFrqRd=   0 IEInf=0 SqF1=F DoCFld=F IF1Alg=4.
 GePol: Maximum number of non-zero 1st derivatives   =     236
 CoulSu:  requested number of processors reduced to:  17 ShMem   1 Linda.
 CoulSu:  requested number of processors reduced to:  20 ShMem   1 Linda.
 End of G2Drv F.D. properties file   721 does not exist.
 End of G2Drv F.D. properties file   722 does not exist.
 End of G2Drv F.D. properties file   788 does not exist.
 Leave Link 1110 at Wed Oct 30 13:37:15 2019, MaxMem=   140000000 cpu:            2894.1 elap:             121.4
 (Enter /usr/g16/l1002.exe)
 Minotr:  Closed shell wavefunction.
          IDoAtm=11111111111111111111111111111
 NEqPCM:  Using equilibrium solvation (IEInf=0, Eps=   2.2706, EpsInf=   2.2533)
          Direct CPHF calculation.
          Differentiating once with respect to nuclear coordinates.
          Requested convergence is 1.0D-08 RMS, and 1.0D-07 maximum.
          Secondary convergence is 1.0D-12 RMS, and 1.0D-12 maximum.
          NewPWx=T KeepS1=F KeepF1=F KeepIn=T MapXYZ=F SortEE=F KeepMc=T.
 Defaulting to unpruned grid for atomic number  78.
         8993 words used for storage of precomputed grid.
 Two-electron integrals replicated using symmetry.
          MDV=     140000000 using IRadAn=       1.
          Solving linear equations simultaneously, MaxMat=     384.
 FoF2E skips out because all densities are zero.
 CalDSu exits because no D1Ps are significant.
 FoFJK:  IHMeth= 1 ICntrl=       0 DoSepK=F KAlg= 0 I1Cent=           0 FoldK=F
 IRaf= 890000000 NMat=      48 IRICut=     120 DoRegI=T DoRafI=T ISym2E= 2 IDoP0=3 IntGTp=3.
 Defaulting to unpruned grid for atomic number  78.
 Defaulting to unpruned grid for atomic number  78.
 Defaulting to unpruned grid for atomic number  78.
 Defaulting to unpruned grid for atomic number  78.
 Defaulting to unpruned grid for atomic number  78.
 Defaulting to unpruned grid for atomic number  78.
 Defaulting to unpruned grid for atomic number  78.
 Defaulting to unpruned grid for atomic number  78.
 Defaulting to unpruned grid for atomic number  78.
 Defaulting to unpruned grid for atomic number  78.
 Defaulting to unpruned grid for atomic number  78.
 Defaulting to unpruned grid for atomic number  78.
 Defaulting to unpruned grid for atomic number  78.
 Defaulting to unpruned grid for atomic number  78.
 Defaulting to unpruned grid for atomic number  78.
 Defaulting to unpruned grid for atomic number  78.
 Defaulting to unpruned grid for atomic number  78.
 Defaulting to unpruned grid for atomic number  78.
 Defaulting to unpruned grid for atomic number  78.
 Defaulting to unpruned grid for atomic number  78.
 Defaulting to unpruned grid for atomic number  78.
 Defaulting to unpruned grid for atomic number  78.
 Defaulting to unpruned grid for atomic number  78.
 Defaulting to unpruned grid for atomic number  78.
          There are    90 degrees of freedom in the 1st order CPHF.  IDoFFX=6 NUNeed=     0.
     84 vectors produced by pass  0 Test12= 8.32D-15 1.11D-09 XBig12= 9.07D-02 1.65D-01.
 AX will form    48 AO Fock derivatives at one time.
     84 vectors produced by pass  1 Test12= 8.32D-15 1.11D-09 XBig12= 4.11D-02 6.67D-02.
     84 vectors produced by pass  2 Test12= 8.32D-15 1.11D-09 XBig12= 4.71D-04 6.25D-03.
     84 vectors produced by pass  3 Test12= 8.32D-15 1.11D-09 XBig12= 1.05D-06 1.81D-04.
     84 vectors produced by pass  4 Test12= 8.32D-15 1.11D-09 XBig12= 1.53D-09 5.30D-06.
     50 vectors produced by pass  5 Test12= 8.32D-15 1.11D-09 XBig12= 1.67D-12 1.52D-07.
      4 vectors produced by pass  6 Test12= 8.32D-15 1.11D-09 XBig12= 1.19D-15 3.68D-09.
 InvSVY:  IOpt=1 It=  1 EMax= 7.77D-16
 Solved reduced A of dimension   474 with    90 vectors.
 End of Minotr F.D. properties file   721 does not exist.
 End of Minotr F.D. properties file   722 does not exist.
 End of Minotr F.D. properties file   788 does not exist.
 Leave Link 1002 at Wed Oct 30 13:40:12 2019, MaxMem=   140000000 cpu:            4237.1 elap:             177.1
 (Enter /usr/g16/l601.exe)
 Copying SCF densities to generalized density rwf, IOpCl= 0 IROHF=0.

 **********************************************************************

            Population analysis using the SCF density.

 **********************************************************************

 Orbital symmetries:
       Occupied  (A) (A) (A) (A) (A) (A) (A) (A) (A) (A) (A) (A)
                 (A) (A) (A) (A) (A) (A) (A) (A) (A) (A) (A) (A)
                 (A) (A) (A) (A) (A) (A) (A) (A) (A) (A) (A) (A)
                 (A) (A) (A) (A) (A) (A) (A) (A) (A) (A) (A) (A)
                 (A) (A) (A) (A)
       Virtual   (A) (A) (A) (A) (A) (A) (A) (A) (A) (A) (A) (A)
                 (A) (A) (A) (A) (A) (A) (A) (A) (A) (A) (A) (A)
                 (A) (A) (A) (A) (A) (A) (A) (A) (A) (A) (A) (A)
                 (A) (A) (A) (A) (A) (A) (A) (A) (A) (A) (A) (A)
                 (A) (A) (A) (A) (A) (A) (A) (A) (A) (A) (A) (A)
                 (A) (A) (A) (A) (A) (A) (A) (A) (A) (A) (A) (A)
                 (A) (A) (A) (A) (A) (A) (A) (A) (A) (A) (A) (A)
                 (A) (A) (A) (A) (A) (A) (A) (A) (A) (A) (A) (A)
                 (A) (A) (A) (A) (A) (A) (A) (A) (A) (A) (A) (A)
                 (A) (A) (A) (A) (A) (A) (A) (A) (A) (A) (A) (A)
                 (A) (A) (A) (A) (A) (A) (A) (A) (A) (A) (A) (A)
                 (A) (A) (A) (A) (A) (A) (A) (A) (A) (A) (A) (A)
 The electronic state is 1-A.
 Alpha  occ. eigenvalues --  -77.08724 -77.08722 -10.17190 -10.17162 -10.17140
 Alpha  occ. eigenvalues --  -10.17123 -10.16648 -10.16559  -6.56556  -6.56553
 Alpha  occ. eigenvalues --   -4.72739  -4.72738  -4.72725  -4.72723  -4.72424
 Alpha  occ. eigenvalues --   -4.72421  -3.89966  -2.14734  -2.13752  -2.13641
 Alpha  occ. eigenvalues --   -0.76418  -0.76204  -0.68910  -0.68873  -0.68595
 Alpha  occ. eigenvalues --   -0.68556  -0.55301  -0.53596  -0.44461  -0.43535
 Alpha  occ. eigenvalues --   -0.42447  -0.42422  -0.42200  -0.42147  -0.40114
 Alpha  occ. eigenvalues --   -0.40006  -0.39711  -0.39675  -0.38258  -0.38254
 Alpha  occ. eigenvalues --   -0.36348  -0.35798  -0.33671  -0.33581  -0.33109
 Alpha  occ. eigenvalues --   -0.32915  -0.27168  -0.25800  -0.25501  -0.25207
 Alpha  occ. eigenvalues --   -0.23651  -0.14013
 Alpha virt. eigenvalues --   -0.07013  -0.00145   0.03656   0.04081   0.04420
 Alpha virt. eigenvalues --    0.05874   0.06842   0.09077   0.09275   0.09477
 Alpha virt. eigenvalues --    0.10877   0.11103   0.11485   0.12290   0.12914
 Alpha virt. eigenvalues --    0.12954   0.14307   0.14775   0.15338   0.16956
 Alpha virt. eigenvalues --    0.17192   0.17860   0.17876   0.19022   0.19110
 Alpha virt. eigenvalues --    0.20647   0.20806   0.21040   0.21207   0.21984
 Alpha virt. eigenvalues --    0.22293   0.22342   0.23772   0.24606   0.29625
 Alpha virt. eigenvalues --    0.30875   0.31530   0.31888   0.39984   0.42181
 Alpha virt. eigenvalues --    0.42265   0.44034   0.44164   0.44469   0.44992
 Alpha virt. eigenvalues --    0.48787   0.48886   0.51398   0.52388   0.58625
 Alpha virt. eigenvalues --    0.61299   0.62577   0.63765   0.64302   0.65490
 Alpha virt. eigenvalues --    0.65570   0.66938   0.67126   0.68855   0.69336
 Alpha virt. eigenvalues --    0.70897   0.70990   0.72443   0.72473   0.73755
 Alpha virt. eigenvalues --    0.79992   0.81393   0.81688   0.82003   0.82500
 Alpha virt. eigenvalues --    0.83099   0.85691   0.87275   0.87441   0.88572
 Alpha virt. eigenvalues --    0.89396   0.89448   0.89673   0.90626   0.90789
 Alpha virt. eigenvalues --    0.93079   0.93204   0.93626   0.93653   0.94650
 Alpha virt. eigenvalues --    0.95069   0.95744   0.96633   0.96970   0.99209
 Alpha virt. eigenvalues --    1.01266   1.01784   1.03571   1.05152   1.05241
 Alpha virt. eigenvalues --    1.08153   1.08173   1.10058   1.14892   1.32299
 Alpha virt. eigenvalues --    1.35247   1.36911   1.37463   1.38149   1.38659
 Alpha virt. eigenvalues --    1.44685   1.45982   1.52056   1.56228   1.65727
 Alpha virt. eigenvalues --    1.65734   1.69982   1.70344   1.71742   1.71832
 Alpha virt. eigenvalues --    1.80582   1.82082   1.83236   1.83508   1.92182
 Alpha virt. eigenvalues --    1.93812   2.11174   2.11291   2.22928   2.23031
 Alpha virt. eigenvalues --    2.23295   2.23410   2.24237   2.24800   2.26029
 Alpha virt. eigenvalues --    2.26096   2.27004   2.27032   2.27342   2.27405
 Alpha virt. eigenvalues --    2.28207   2.28538   2.30354   2.30413   2.62566
 Alpha virt. eigenvalues --   45.80220  45.91107  45.96859 114.26639
          Condensed to atoms (all electrons):
               1          2          3          4          5          6
     1  Pt  18.017311   0.344841   0.343341  -0.014207   0.003647   0.006849
     2  P    0.344841  13.258114  -0.018084   0.340073  -0.024672  -0.019177
     3  P    0.343341  -0.018084  13.255073   0.000308   0.000023  -0.000007
     4  C   -0.014207   0.340073   0.000308   5.338605   0.364563   0.350354
     5  H    0.003647  -0.024672   0.000023   0.364563   0.494272  -0.025925
     6  H    0.006849  -0.019177  -0.000007   0.350354  -0.025925   0.539726
     7  H    0.002896  -0.025008   0.000019   0.365389  -0.023048  -0.025875
     8  C   -0.014722   0.330329   0.000198  -0.039002  -0.001412  -0.003740
     9  H   -0.000344  -0.025420  -0.000001   0.002068   0.000004  -0.000038
    10  H    0.009145  -0.021498  -0.000004  -0.002972  -0.000288   0.002538
    11  H    0.001606  -0.024875   0.000009  -0.001642   0.000873  -0.000273
    12  C   -0.027697   0.319373   0.000110  -0.041028   0.002205  -0.003912
    13  H   -0.001913  -0.026424  -0.000011  -0.001590   0.000006  -0.000251
    14  H    0.013501  -0.020960  -0.000002  -0.002870  -0.000048   0.002455
    15  H   -0.002334  -0.026754  -0.000013   0.002041  -0.000041  -0.000036
    16  C   -0.029777   0.000097   0.318655  -0.000000  -0.000000   0.000000
    17  H   -0.002460  -0.000014  -0.026617  -0.000000   0.000000   0.000000
    18  H    0.014154  -0.000001  -0.020842   0.000000   0.000000  -0.000000
    19  H   -0.002637  -0.000015  -0.026868  -0.000000   0.000000   0.000000
    20  C   -0.013414   0.000219   0.333164  -0.000001  -0.000000   0.000000
    21  H    0.008477  -0.000004  -0.021493   0.000000   0.000000  -0.000000
    22  H    0.002230   0.000012  -0.024671   0.000000   0.000000  -0.000000
    23  H    0.000182   0.000001  -0.025031   0.000000   0.000000   0.000000
    24  C   -0.013143   0.000299   0.339956  -0.000001   0.000000   0.000000
    25  H    0.003778   0.000022  -0.024727   0.000000  -0.000000  -0.000000
    26  H    0.006846  -0.000006  -0.019711   0.000000  -0.000000  -0.000000
    27  H    0.002602   0.000018  -0.024859   0.000000   0.000000   0.000000
    28  H    0.226043  -0.011515  -0.018396  -0.002483   0.000280   0.000019
    29  H    0.223219  -0.018688  -0.011729  -0.003015   0.000074   0.000106
               7          8          9         10         11         12
     1  Pt   0.002896  -0.014722  -0.000344   0.009145   0.001606  -0.027697
     2  P   -0.025008   0.330329  -0.025420  -0.021498  -0.024875   0.319373
     3  P    0.000019   0.000198  -0.000001  -0.000004   0.000009   0.000110
     4  C    0.365389  -0.039002   0.002068  -0.002972  -0.001642  -0.041028
     5  H   -0.023048  -0.001412   0.000004  -0.000288   0.000873   0.002205
     6  H   -0.025875  -0.003740  -0.000038   0.002538  -0.000273  -0.003912
     7  H    0.498230   0.002183  -0.000042  -0.000038   0.000001  -0.001434
     8  C    0.002183   5.334284   0.368126   0.348178   0.364843  -0.031327
     9  H   -0.000042   0.368126   0.495664  -0.026497  -0.022680  -0.000936
    10  H   -0.000038   0.348178  -0.026497   0.544451  -0.026955  -0.005539
    11  H    0.000001   0.364843  -0.022680  -0.026955   0.502029   0.002286
    12  C   -0.001434  -0.031327  -0.000936  -0.005539   0.002286   5.353220
    13  H    0.000876   0.002255   0.000011  -0.000063  -0.000041   0.369561
    14  H   -0.000266  -0.005353  -0.000381   0.003610  -0.000070   0.336539
    15  H    0.000002  -0.001025   0.000888  -0.000340   0.000009   0.372003
    16  C   -0.000000  -0.000000   0.000000   0.000000   0.000000  -0.000000
    17  H    0.000000   0.000000   0.000000  -0.000000   0.000000   0.000000
    18  H    0.000000   0.000000  -0.000000  -0.000000  -0.000000   0.000000
    19  H    0.000000   0.000000   0.000000  -0.000000   0.000000   0.000000
    20  C    0.000000   0.000000  -0.000000   0.000000  -0.000000  -0.000001
    21  H   -0.000000   0.000000  -0.000000  -0.000000  -0.000000   0.000000
    22  H   -0.000000  -0.000000   0.000000  -0.000000   0.000000   0.000000
    23  H    0.000000  -0.000000   0.000000  -0.000000   0.000000   0.000000
    24  C    0.000000  -0.000001   0.000000   0.000000   0.000000   0.000000
    25  H    0.000000  -0.000000   0.000000   0.000000   0.000000  -0.000000
    26  H    0.000000   0.000000   0.000000  -0.000000  -0.000000   0.000000
    27  H    0.000000   0.000000   0.000000  -0.000000  -0.000000  -0.000000
    28  H   -0.000015  -0.000005   0.000060  -0.000026   0.000320   0.000184
    29  H   -0.000064   0.000160   0.000006  -0.000007   0.000040   0.000293
              13         14         15         16         17         18
     1  Pt  -0.001913   0.013501  -0.002334  -0.029777  -0.002460   0.014154
     2  P   -0.026424  -0.020960  -0.026754   0.000097  -0.000014  -0.000001
     3  P   -0.000011  -0.000002  -0.000013   0.318655  -0.026617  -0.020842
     4  C   -0.001590  -0.002870   0.002041  -0.000000  -0.000000   0.000000
     5  H    0.000006  -0.000048  -0.000041  -0.000000   0.000000   0.000000
     6  H   -0.000251   0.002455  -0.000036   0.000000   0.000000  -0.000000
     7  H    0.000876  -0.000266   0.000002  -0.000000   0.000000   0.000000
     8  C    0.002255  -0.005353  -0.001025  -0.000000   0.000000   0.000000
     9  H    0.000011  -0.000381   0.000888   0.000000   0.000000  -0.000000
    10  H   -0.000063   0.003610  -0.000340   0.000000  -0.000000  -0.000000
    11  H   -0.000041  -0.000070   0.000009   0.000000   0.000000  -0.000000
    12  C    0.369561   0.336539   0.372003  -0.000000   0.000000   0.000000
    13  H    0.506430  -0.028669  -0.022126   0.000000   0.000000  -0.000000
    14  H   -0.028669   0.564970  -0.028196   0.000000  -0.000000   0.000000
    15  H   -0.022126  -0.028196   0.496165   0.000000   0.000000  -0.000000
    16  C    0.000000   0.000000   0.000000   5.355480   0.370539   0.334417
    17  H    0.000000  -0.000000   0.000000   0.370539   0.505737  -0.028952
    18  H   -0.000000   0.000000  -0.000000   0.334417  -0.028952   0.568927
    19  H    0.000000  -0.000000   0.000000   0.372337  -0.021981  -0.028554
    20  C    0.000000   0.000000   0.000000  -0.032695   0.002227  -0.005068
    21  H   -0.000000  -0.000000  -0.000000  -0.005340  -0.000059   0.003475
    22  H    0.000000  -0.000000   0.000000   0.002276  -0.000041  -0.000068
    23  H    0.000000  -0.000000   0.000000  -0.001012   0.000009  -0.000373
    24  C   -0.000000   0.000000  -0.000000  -0.040332  -0.001512  -0.003120
    25  H    0.000000   0.000000   0.000000   0.002213   0.000006  -0.000052
    26  H    0.000000  -0.000000   0.000000  -0.004077  -0.000260   0.002572
    27  H    0.000000   0.000000   0.000000  -0.001418   0.000882  -0.000272
    28  H    0.000008  -0.000006   0.000003   0.000268   0.000045  -0.000013
    29  H    0.000067  -0.000016   0.000006   0.000188   0.000006  -0.000006
              19         20         21         22         23         24
     1  Pt  -0.002637  -0.013414   0.008477   0.002230   0.000182  -0.013143
     2  P   -0.000015   0.000219  -0.000004   0.000012   0.000001   0.000299
     3  P   -0.026868   0.333164  -0.021493  -0.024671  -0.025031   0.339956
     4  C   -0.000000  -0.000001   0.000000   0.000000   0.000000  -0.000001
     5  H    0.000000  -0.000000   0.000000   0.000000   0.000000   0.000000
     6  H    0.000000   0.000000  -0.000000  -0.000000   0.000000   0.000000
     7  H    0.000000   0.000000  -0.000000  -0.000000   0.000000   0.000000
     8  C    0.000000   0.000000   0.000000  -0.000000  -0.000000  -0.000001
     9  H    0.000000  -0.000000  -0.000000   0.000000   0.000000   0.000000
    10  H   -0.000000   0.000000  -0.000000  -0.000000  -0.000000   0.000000
    11  H    0.000000  -0.000000  -0.000000   0.000000   0.000000   0.000000
    12  C    0.000000  -0.000001   0.000000   0.000000   0.000000   0.000000
    13  H    0.000000   0.000000  -0.000000   0.000000   0.000000  -0.000000
    14  H   -0.000000   0.000000  -0.000000  -0.000000  -0.000000   0.000000
    15  H    0.000000   0.000000  -0.000000   0.000000   0.000000  -0.000000
    16  C    0.372337  -0.032695  -0.005340   0.002276  -0.001012  -0.040332
    17  H   -0.021981   0.002227  -0.000059  -0.000041   0.000009  -0.001512
    18  H   -0.028554  -0.005068   0.003475  -0.000068  -0.000373  -0.003120
    19  H    0.497640  -0.001082  -0.000327   0.000008   0.000888   0.002060
    20  C   -0.001082   5.331658   0.349595   0.364428   0.367142  -0.038011
    21  H   -0.000327   0.349595   0.542039  -0.026668  -0.026285  -0.003153
    22  H    0.000008   0.364428  -0.026668   0.499964  -0.022795  -0.001618
    23  H    0.000888   0.367142  -0.026285  -0.022795   0.496805   0.002093
    24  C    0.002060  -0.038011  -0.003153  -0.001618   0.002093   5.336650
    25  H   -0.000041  -0.001413  -0.000293   0.000856   0.000004   0.364322
    26  H   -0.000038  -0.003745   0.002599  -0.000281  -0.000039   0.350886
[...]
 ! A41   A(18,16,19)           109.2079         -DE/DX =   -0.0001              !
 ! A42   A(3,20,21)            111.4608         -DE/DX =   -0.0009              !
 ! A43   A(3,20,22)            109.3872         -DE/DX =    0.0005              !
 ! A44   A(3,20,23)            109.4645         -DE/DX =   -0.0003              !
 ! A45   A(21,20,22)           109.2563         -DE/DX =    0.0001              !
 ! A46   A(21,20,23)           109.1577         -DE/DX =    0.0005              !
 ! A47   A(22,20,23)           108.0473         -DE/DX =    0.0002              !
 ! A48   A(3,24,25)            109.3813         -DE/DX =    0.0002              !
 ! A49   A(3,24,26)            111.5322         -DE/DX =   -0.0015              !
 ! A50   A(3,24,27)            109.4472         -DE/DX =    0.0003              !
 ! A51   A(25,24,26)           109.1785         -DE/DX =    0.0006              !
 ! A52   A(25,24,27)           108.1009         -DE/DX =    0.0                 !
 ! A53   A(26,24,27)           109.1334         -DE/DX =    0.0005              !
 ! A54   L(2,1,3,28,-1)        183.5938         -DE/DX =    0.0214              !
 ! A55   L(2,1,3,28,-2)        183.5099         -DE/DX =    0.0105              !
 ! D1    D(28,1,2,4)           -47.667          -DE/DX =    0.0085              !
 ! D2    D(28,1,2,8)            72.1896         -DE/DX =    0.0052              !
 ! D3    D(28,1,2,12)         -167.0779         -DE/DX =    0.009               !
 ! D4    D(29,1,2,4)             0.9566         -DE/DX =   -0.0067              !
 ! D5    D(29,1,2,8)           120.8132         -DE/DX =   -0.01                !
 ! D6    D(29,1,2,12)         -118.4543         -DE/DX =   -0.0061              !
 ! D7    D(4,2,3,16)           179.8138         -DE/DX =   -0.0029              !
 ! D8    D(4,2,3,20)            60.5798         -DE/DX =    0.002               !
 ! D9    D(4,2,3,24)           -60.4363         -DE/DX =   -0.0036              !
 ! D10   D(8,2,3,16)           -59.1569         -DE/DX =    0.0021              !
 ! D11   D(8,2,3,20)          -178.3909         -DE/DX =    0.007               !
 ! D12   D(8,2,3,24)            60.593          -DE/DX =    0.0014              !
 ! D13   D(12,2,3,16)           59.4704         -DE/DX =   -0.0033              !
 ! D14   D(12,2,3,20)          -59.7636         -DE/DX =    0.0016              !
 ! D15   D(12,2,3,24)          179.2203         -DE/DX =   -0.004               !
 ! D16   D(28,1,3,16)         -132.4037         -DE/DX =   -0.0065              !
 ! D17   D(28,1,3,20)          107.2033         -DE/DX =   -0.0099              !
 ! D18   D(28,1,3,24)          -11.6853         -DE/DX =   -0.0063              !
 ! D19   D(29,1,3,16)          179.0056         -DE/DX =    0.0087              !
 ! D20   D(29,1,3,20)           58.6125         -DE/DX =    0.0053              !
 ! D21   D(29,1,3,24)          -60.276          -DE/DX =    0.0089              !
 ! D22   D(1,2,4,5)             59.0997         -DE/DX =   -0.002               !
 ! D23   D(1,2,4,6)           -179.9051         -DE/DX =   -0.002               !
 ! D24   D(1,2,4,7)            -58.8926         -DE/DX =   -0.0022              !
 ! D25   D(8,2,4,5)            -68.563          -DE/DX =    0.0013              !
 ! D26   D(8,2,4,6)             52.4322         -DE/DX =    0.0013              !
 ! D27   D(8,2,4,7)            173.4447         -DE/DX =    0.0011              !
 ! D28   D(12,2,4,5)          -173.8171         -DE/DX =    0.0009              !
 ! D29   D(12,2,4,6)           -52.8219         -DE/DX =    0.0009              !
 ! D30   D(12,2,4,7)            68.1906         -DE/DX =    0.0007              !
 ! D31   D(1,2,8,9)             59.3425         -DE/DX =    0.0039              !
 ! D32   D(1,2,8,10)          -179.6617         -DE/DX =    0.0038              !
 ! D33   D(1,2,8,11)           -58.7716         -DE/DX =    0.0036              !
 ! D34   D(4,2,8,9)           -173.6006         -DE/DX =   -0.0012              !
 ! D35   D(4,2,8,10)           -52.6047         -DE/DX =   -0.0013              !
 ! D36   D(4,2,8,11)            68.2854         -DE/DX =   -0.0015              !
 ! D37   D(12,2,8,9)           -68.6354         -DE/DX =   -0.0019              !
 ! D38   D(12,2,8,10)           52.3605         -DE/DX =   -0.002               !
 ! D39   D(12,2,8,11)          173.2506         -DE/DX =   -0.0022              !
 ! D40   D(1,2,12,13)           58.3815         -DE/DX =   -0.002               !
 ! D41   D(1,2,12,14)          179.2448         -DE/DX =   -0.0017              !
 ! D42   D(1,2,12,15)          -59.7798         -DE/DX =   -0.0013              !
 ! D43   D(4,2,12,13)          -68.3581         -DE/DX =    0.0006              !
 ! D44   D(4,2,12,14)           52.5052         -DE/DX =    0.0009              !
 ! D45   D(4,2,12,15)          173.4806         -DE/DX =    0.0013              !
 ! D46   D(8,2,12,13)         -173.3802         -DE/DX =    0.0001              !
 ! D47   D(8,2,12,14)          -52.5169         -DE/DX =    0.0003              !
 ! D48   D(8,2,12,15)           68.4585         -DE/DX =    0.0008              !
 ! D49   D(1,3,16,17)           59.2652         -DE/DX =   -0.0016              !
 ! D50   D(1,3,16,18)         -179.6807         -DE/DX =   -0.0012              !
 ! D51   D(1,3,16,19)          -58.6597         -DE/DX =   -0.0008              !
 ! D52   D(20,3,16,17)        -173.571          -DE/DX =   -0.0003              !
 ! D53   D(20,3,16,18)         -52.517          -DE/DX =    0.0                 !
 ! D54   D(20,3,16,19)          68.504          -DE/DX =    0.0005              !
 ! D55   D(24,3,16,17)         -68.4082         -DE/DX =    0.0004              !
 ! D56   D(24,3,16,18)          52.6458         -DE/DX =    0.0008              !
 ! D57   D(24,3,16,19)         173.6668         -DE/DX =    0.0013              !
 ! D58   D(1,3,20,21)         -179.2307         -DE/DX =    0.004               !
 ! D59   D(1,3,20,22)          -58.2997         -DE/DX =    0.0038              !
 ! D60   D(1,3,20,23)           59.9102         -DE/DX =    0.0042              !
 ! D61   D(16,3,20,21)          52.0354         -DE/DX =   -0.0022              !
 ! D62   D(16,3,20,22)         172.9665         -DE/DX =   -0.0024              !
 ! D63   D(16,3,20,23)         -68.8236         -DE/DX =   -0.002               !
 ! D64   D(24,3,20,21)         -52.9973         -DE/DX =   -0.0015              !
 ! D65   D(24,3,20,22)          67.9337         -DE/DX =   -0.0017              !
 ! D66   D(24,3,20,23)        -173.8564         -DE/DX =   -0.0013              !
 ! D67   D(1,3,24,25)           58.0951         -DE/DX =   -0.0026              !
 ! D68   D(1,3,24,26)          178.9707         -DE/DX =   -0.0027              !
 ! D69   D(1,3,24,27)          -60.1662         -DE/DX =   -0.0029              !
 ! D70   D(16,3,24,25)        -172.9262         -DE/DX =    0.0014              !
 ! D71   D(16,3,24,26)         -52.0507         -DE/DX =    0.0013              !
 ! D72   D(16,3,24,27)          68.8125         -DE/DX =    0.0011              !
 ! D73   D(20,3,24,25)         -67.8742         -DE/DX =    0.0016              !
 ! D74   D(20,3,24,26)          53.0014         -DE/DX =    0.0015              !
 ! D75   D(20,3,24,27)         173.8646         -DE/DX =    0.0013              !
 --------------------------------------------------------------------------------
 Lowest energy point so far.  Saving SCF results.
 Largest change from initial coordinates is atom    8       0.000 Angstoms.
 GradGradGradGradGradGradGradGradGradGradGradGradGradGradGradGradGradGrad

 Leave Link  103 at Wed Oct 30 13:42:12 2019, MaxMem=   140000000 cpu:               3.0 elap:               0.2
 (Enter /usr/g16/l202.exe)
                          Input orientation:                          
 ---------------------------------------------------------------------
 Center     Atomic      Atomic             Coordinates (Angstroms)
 Number     Number       Type             X           Y           Z
 ---------------------------------------------------------------------
      1         78           0       -0.000006   -0.000182    0.000278
      2         15           0        2.278802   -0.000006   -0.000138
      3         15           0       -2.278823    0.000108   -0.000007
      4          6           0        3.094514    1.005765   -1.314818
      5          1           0        2.778852    2.050263   -1.221881
      6          1           0        4.188197    0.951446   -1.243487
      7          1           0        2.779189    0.642916   -2.298776
      8          6           0        3.095626    0.635983    1.527571
      9          1           0        2.780446    0.033908    2.386313
     10          1           0        4.189226    0.601088    1.444160
     11          1           0        2.780805    1.669755    1.705014
     12          6           0        3.095329   -1.641079   -0.213792
     13          1           0        2.779761   -2.083423   -1.164608
     14          1           0        4.188974   -1.551639   -0.202675
     15          1           0        2.780523   -2.311727    0.592686
     16          6           0       -3.095757   -1.003756    1.315364
     17          1           0       -2.780802   -0.639858    2.299054
     18          1           0       -4.189373   -0.949032    1.243363
     19          1           0       -2.780520   -2.048510    1.223865
     20          6           0       -3.094796   -0.637334   -1.527547
     21          1           0       -4.188448   -0.602251   -1.444874
     22          1           0       -2.778992   -0.036116   -2.386660
     23          1           0       -2.779961   -1.671304   -1.703797
     24          6           0       -3.094847    1.641760    0.211154
     25          1           0       -2.778938    2.311459   -0.595678
     26          1           0       -4.188517    1.552756    0.199025
     27          1           0       -2.780058    2.084926    1.161845
     28          1           0        0.000214    1.902825   -0.052815
     29          1           0       -0.000005    1.171599   -1.520329
 ---------------------------------------------------------------------
                    Distance matrix (angstroms):
                    1          2          3          4          5
     1  Pt   0.000000
     2  P    2.278808   0.000000
     3  P    2.278817   4.557625   0.000000
     4  C    3.509624   1.845358   5.622528   0.000000
     5  H    3.663339   2.438505   5.592512   1.095105   0.000000
     6  H    4.471419   2.469204   6.653844   1.097352   1.787210
     7  H    3.663762   2.438744   5.592944   1.095108   1.772097
     8  C    3.510024   1.845421   5.623392   2.866342   3.108057
     9  H    3.664047   2.438841   5.593914   3.839468   4.133371
    10  H    4.471687   2.469217   6.654506   2.995683   3.346197
    11  H    3.664386   2.438781   5.594162   3.107842   2.951526
    12  C    3.509910   1.845396   5.623229   2.866713   3.839584
    13  H    3.663872   2.438765   5.593449   3.108812   4.134083
    14  H    4.471662   2.469280   6.654426   2.995834   4.000115
    15  H    3.664086   2.438692   5.594001   3.839650   4.724364
    16  C    3.510027   5.623517   1.845352   7.019650   7.090534
    17  H    3.664203   5.594219   2.438692   7.091367   7.109394
    18  H    4.471730   6.654640   2.469218   7.963701   7.976801
    19  H    3.663887   5.593862   2.438524   7.091511   7.327225
    20  C    3.509692   5.622697   1.845406   6.407229   6.466556
    21  H    4.471465   6.653968   2.469240   7.459502   7.458473
    22  H    3.663540   5.592680   2.438769   6.060729   6.049737
    23  H    3.663969   5.593458   2.438782   6.467415   6.706915
    24  C    3.509770   5.622823   1.845401   6.406346   6.059769
    25  H    3.663511   5.592698   2.438705   6.059657   5.599052
    26  H    4.471548   6.654093   2.469263   7.458784   7.128164
    27  H    3.664096   5.593676   2.438771   6.465991   6.048540
    28  H    1.903748   2.969092   2.969365   3.460067   3.018159
    29  H    1.919718   2.979363   2.979393   3.105767   2.929705
                    6          7          8          9         10
     6  H    0.000000
     7  H    1.787213   0.000000
     8  C    2.995328   3.839416   0.000000
     9  H    3.999886   4.724505   1.095112   0.000000
    10  H    2.710387   3.999940   1.097331   1.787178   0.000000
    11  H    3.345202   4.133369   1.095118   1.772051   1.787105
    12  C    2.995967   3.108655   2.866593   3.108903   2.995451
    13  H    3.346691   2.952840   3.839631   4.134263   3.999858
    14  H    2.710853   3.346222   2.995806   3.346755   2.710406
    15  H    4.000172   4.134062   3.108423   2.952812   3.345735
    16  C    7.964077   7.091440   6.408354   6.062462   7.460770
    17  H    7.978019   7.327964   6.062620   5.602594   7.131065
    18  H    8.943149   7.977588   7.460848   7.130980   8.523152
    19  H    7.978131   7.110776   6.467444   6.050793   7.459642
    20  C    7.459685   6.061150   7.019716   7.091356   7.963775
    21  H    8.521896   7.129345   7.964068   7.977981   8.943152
    22  H    7.129084   5.600195   7.091125   7.327587   7.977297
    23  H    7.459620   6.050931   7.091392   7.110195   7.977654
    24  C    7.458904   6.465426   6.408315   6.468042   7.460631
    25  H    7.128132   6.047921   6.467295   6.707180   7.459331
    26  H    8.521253   7.457597   7.460848   7.460400   8.523063
    27  H    7.458349   6.705260   6.062743   6.051876   7.131087
    28  H    4.456683   3.788722   3.699201   4.143898   4.635006
    29  H    4.203112   2.934179   4.377158   4.928195   5.163655
                   11         12         13         14         15
    11  H    0.000000
    12  C    3.839579   0.000000
    13  H    4.724519   1.095127   0.000000
    14  H    3.999950   1.097352   1.787174   0.000000
    15  H    4.133942   1.095116   1.772062   1.787195   0.000000
    16  C    6.467880   6.408904   6.468203   7.461362   6.063309
    17  H    6.051336   6.468829   6.708256   7.461084   6.052700
    18  H    7.460198   7.461174   7.460161   8.523547   7.131603
    19  H    6.707111   6.062875   6.051673   7.131321   5.602934
    20  C    7.091882   6.407114   6.060802   7.459527   6.466711
    21  H    7.978364   7.459768   7.129401   8.522065   7.459257
    22  H    7.110776   6.465672   6.048521   7.457825   6.705454
    23  H    7.328355   6.061358   5.600989   7.129779   6.050038
    24  C    6.062647   7.019679   7.090891   7.963862   7.091939
    25  H    6.051092   7.090515   7.108995   7.976827   7.327596
    26  H    7.131139   7.964007   7.977355   8.943209   7.978516
    27  H    5.602731   7.091944   7.327967   7.978341   7.111579
    28  H    3.297874   4.707963   4.985192   5.431528   5.090112
    29  H    4.287645   4.381700   4.295208   5.167184   4.932518
                   16         17         18         19         20
    16  C    0.000000
    17  H    1.095109   0.000000
    18  H    1.097349   1.787217   0.000000
    19  H    1.095106   1.772098   1.787204   0.000000
    20  C    2.866428   3.839463   2.995529   3.108127   0.000000
    21  H    2.995679   3.999985   2.710512   3.346057   1.097333
    22  H    3.839486   4.724450   3.999957   4.133476   1.095112
    23  H    3.108164   4.133606   3.345724   2.951862   1.095116
    24  C    2.866712   3.108654   2.995938   3.839593   2.866592
    25  H    3.839675   4.133975   4.000275   4.724412   3.108621
    26  H    2.996012   3.346541   2.711012   4.000234   2.995625
    27  H    3.108567   2.952574   3.346299   4.133901   3.839608
    28  H    4.461520   4.441911   5.231234   4.997544   4.266887
    29  H    4.728319   5.059831   5.448474   5.062703   3.584693
                   21         22         23         24         25
    21  H    0.000000
    22  H    1.787187   0.000000
    23  H    1.787107   1.772045   0.000000
    24  C    2.995660   3.108644   3.839607   0.000000
    25  H    3.346275   2.952749   4.134045   1.095113   0.000000
    26  H    2.710435   3.346198   3.999916   1.097353   1.787203
    27  H    3.999933   4.134091   4.724528   1.095126   1.772063
    28  H    5.075246   4.114646   4.819701   3.117248   2.861008
    29  H    4.549208   3.151487   3.980441   3.577307   3.142726
                   26         27         28         29
    26  H    0.000000
    27  H    1.787172   0.000000
    28  H    4.210871   3.039485   0.000000
    29  H    4.543687   3.969498   1.639600   0.000000
 Stoichiometry    C6H20P2Pt
 Framework group  C1[X(C6H20P2Pt)]
 Deg. of freedom    81
 Full point group                 C1      NOp   1
 RotChk:  IX=0 Diff= 2.84D-14
 Largest Abelian subgroup         C1      NOp   1
 Largest concise Abelian subgroup C1      NOp   1
                         Standard orientation:                         
 ---------------------------------------------------------------------
 Center     Atomic      Atomic             Coordinates (Angstroms)
 Number     Number       Type             X           Y           Z
 ---------------------------------------------------------------------
      1         78           0        0.000007   -0.021347   -0.000140
      2         15           0       -2.278801   -0.021002    0.000150
      3         15           0        2.278824   -0.020958   -0.000020
      4          6           0       -3.094513    1.474026    0.710677
      5          1           0       -2.778852    2.360900    0.151151
      6          1           0       -4.188196    1.393133    0.672011
      7          1           0       -2.779188    1.600396    1.751764
      8          6           0       -3.095625   -0.152592   -1.649414
      9          1           0       -2.780445   -1.080301   -2.138584
     10          1           0       -4.189225   -0.145560   -1.559271
     11          1           0       -2.780805    0.686160   -2.279229
     12          6           0       -3.095327   -1.383545    0.939430
     13          1           0       -2.779758   -1.343033    1.987322
     14          1           0       -4.188972   -1.309045    0.888708
     15          1           0       -2.780520   -2.348404    0.528064
     16          6           0        3.095759   -1.514605   -0.712032
     17          1           0        2.780804   -1.639919   -1.753360
     18          1           0        4.189375   -1.433045   -0.672955
     19          1           0        2.780523   -2.402363   -0.153669
     20          6           0        3.094798    0.109262    1.650057
     21          1           0        4.188450    0.102734    1.560485
     22          1           0        2.778993    1.036378    2.139949
     23          1           0        2.779963   -0.730210    2.278901
     24          6           0        3.094847    1.343239   -0.937346
     25          1           0        2.778938    2.307415   -0.525232
     26          1           0        4.188517    1.269589   -0.885923
     27          1           0        2.780058    1.303515   -1.985502
     28          1           0       -0.000214    1.696018   -0.821672
     29          1           0        0.000006    1.715393    0.817814
 ---------------------------------------------------------------------
 Rotational constants (GHZ):           1.7533133           0.3735783           0.3723004
 Leave Link  202 at Wed Oct 30 13:42:12 2019, MaxMem=   140000000 cpu:               2.1 elap:               0.1
 (Enter /usr/g16/l9999.exe)


 THERE'S SMALL CHOICE IN A BOWL OF ROTTEN APPLES.
                     SHAKESPEARE
 Error termination request processed by link 9999.
 Error termination via Lnk1e in /usr/g16/l9999.exe at Wed Oct 30 13:42:13 2019.
 Job cpu time:       0 days  3 hours 14 minutes 33.9 seconds.
 Elapsed time:       0 days  0 hours  8 minutes 12.5 seconds.
 File lengths (MBytes):  RWF=    232 Int=      0 D2E=      0 Chk=     11 Scr=      1
