 Entering Gaussian System, Link 0=g16
 Input=Pt_ts2.gjf
 Output=Pt_ts2.log
 Initial command:
 /usr/g16/l1.exe "/scratch/wsr/gaussian/Gau-45165.inp" -scrdir="/scratch/wsr/gaussian/"
 Entering Link 1 = /usr/g16/l1.exe PID=     45166.
  
 Copyright (c) 1988,1990,1992,1993,1995,1998,2003,2009,2016,
            Gaussian, Inc.  All Rights Reserved.
  
 This is part of the Gaussian(R) 16 program.  It is based on
 the Gaussian(R) 09 system (copyright 2009, Gaussian, Inc.),
 the Gaussian(R) 03 system (copyright 2003, Gaussian, Inc.),
 the Gaussian(R) 98 system (copyright 1998, Gaussian, Inc.),
 the Gaussian(R) 94 system (copyright 1995, Gaussian, Inc.),
 the Gaussian 92(TM) system (copyright 1992, Gaussian, Inc.),
 the Gaussian 90(TM) system (copyright 1990, Gaussian, Inc.),
 the Gaussian 88(TM) system (copyright 1988, Gaussian, Inc.),
 the Gaussian 86(TM) system (copyright 1986, Carnegie Mellon
 University), and the Gaussian 82(TM) system (copyright 1983,
 Carnegie Mellon University). Gaussian is a federally registered
 trademark of Gaussian, Inc.
  
 This software contains proprietary and confidential information,
 including trade secrets, belonging to Gaussian, Inc.
  
 This software is provided under written license and may be
 used, copied, transmitted, or stored only in accord with that
 written license.
  
 The following legend is applicable only to US Government
 contracts under FAR:
  
                    RESTRICTED RIGHTS LEGEND
  
 Use, reproduction and disclosure by the US Government is
 subject to restrictions as set forth in subparagraphs (a)
 and (c) of the Commercial Computer Software - Restricted
 Rights clause in FAR 52.227-19.
  
 Gaussian, Inc.
 340 Quinnipiac St., Bldg. 40, Wallingford CT 06492
  
  
 ---------------------------------------------------------------
 Warning -- This program may not be used in any manner that
 competes with the business of Gaussian, Inc. or will provide
 assistance to any competitor of Gaussian, Inc.  The licensee
 of this program is prohibited from giving any competitor of
 Gaussian, Inc. access to this program.  By using this program,
 the user acknowledges that Gaussian, Inc. is engaged in the
 business of creating and licensing software in the field of
 computational chemistry and represents and warrants to the
 licensee that it is not a competitor of Gaussian, Inc. and that
 it will not use this program in any manner prohibited above.
 ---------------------------------------------------------------
  

 Cite this work as:
 Gaussian 16, Revision A.03,
 M. J. Frisch, G. W. Trucks, H. B. Schlegel, G. E. Scuseria, 
 M. A. Robb, J. R. Cheeseman, G. Scalmani, V. Barone, 
 G. A. Petersson, H. Nakatsuji, X. Li, M. Caricato, A. V. Marenich, 
 J. Bloino, B. G. Janesko, R. Gomperts, B. Mennucci, H. P. Hratchian, 
 J. V. Ortiz, A. F. Izmaylov, J. L. Sonnenberg, D. Williams-Young, 
 F. Ding, F. Lipparini, F. Egidi, J. Goings, B. Peng, A. Petrone, 
 T. Henderson, D. Ranasinghe, V. G. Zakrzewski, J. Gao, N. Rega, 
 G. Zheng, W. Liang, M. Hada, M. Ehara, K. Toyota, R. Fukuda, 
 J. Hasegawa, M. Ishida, T. Nakajima, Y. Honda, O. Kitao, H. Nakai, 
 T. Vreven, K. Throssell, J. A. Montgomery, Jr., J. E. Peralta, 
 F. Ogliaro, M. J. Bearpark, J. J. Heyd, E. N. Brothers, K. N. Kudin, 
 V. N. Staroverov, T. A. Keith, R. Kobayashi, J. Normand, 
 K. Raghavachari, A. P. Rendell, J. C. Burant, S. S. Iyengar, 
 J. Tomasi, M. Cossi, J. M. Millam, M. Klene, C. Adamo, R. Cammi, 
 J. W. Ochterski, R. L. Martin, K. Morokuma, O. Farkas, 
 J. B. Foresman, and D. J. Fox, Gaussian, Inc., Wallingford CT, 2016.
 
 ******************************************
 Gaussian 16:  ES64L-G16RevA.03 25-Dec-2016
                30-Oct-2019 
 ******************************************
 %chk=Pt_ts2.chk
 %nprocshared=24
 Will use up to   24 processors via shared memory.
 --------------------------------------------------------
 #p scan b3lyp/genecp em=gd3bj scrf=(smd,solvent=benzene)
 --------------------------------------------------------
 1/38=1,60=1,172=1/1,8;
 2/12=2,17=6,18=5,29=3,40=1/2;
 3/5=7,11=2,16=1,17=8,25=1,30=1,70=32201,72=12,74=-5,124=41/1,2,3;
 4//1;
 5/5=2,38=5,53=12/2;
 6/7=2,8=2,9=2,10=2,18=1,28=1/1;
 1/60=1/8(1);
 99/9=1/99;
 2/29=3/2;
 3/5=7,6=1,11=2,16=1,17=8,25=1,30=1,70=32205,72=12,74=-5,82=7,124=41/1,2,3;
 4/5=5,16=3,69=1/1;
 5/5=2,38=5,53=12/2;
 1/60=1/8(-4);
 99/9=1/99;
 Leave Link    1 at Wed Oct 30 15:17:19 2019, MaxMem=           0 cpu:               1.0 elap:               0.0
 (Enter /usr/g16/l101.exe)
 -------------------
 Title Card Required
 -------------------
 Symbolic Z-matrix:
 Charge =  0 Multiplicity = 1
 Pt
 P                    1    B1
 P                    1    B2       2    A1
 C                    2    B3       1    A2       3    D1       0
 H                    4    B4       2    A3       1    D2       0
 H                    4    B5       2    A4       1    D3       0
 H                    4    B6       2    A5       1    D4       0
 C                    2    B7       1    A6       3    D5       0
 H                    8    B8       2    A7       1    D6       0
 H                    8    B9       2    A8       1    D7       0
 H                    8    B10      2    A9       1    D8       0
 C                    2    B11      1    A10      3    D9       0
 H                    12   B12      2    A11      1    D10      0
 H                    12   B13      2    A12      1    D11      0
 H                    12   B14      2    A13      1    D12      0
 C                    3    B15      1    A14      2    D13      0
 H                    16   B16      3    A15      1    D14      0
 H                    16   B17      3    A16      1    D15      0
 H                    16   B18      3    A17      1    D16      0
 C                    3    B19      1    A18      2    D17      0
 H                    20   B20      3    A19      1    D18      0
 H                    20   B21      3    A20      1    D19      0
 H                    20   B22      3    A21      1    D20      0
 C                    3    B23      1    A22      2    D21      0
 H                    24   B24      3    A23      1    D22      0
 H                    24   B25      3    A24      1    D23      0
 H                    24   B26      3    A25      1    D24      0
 H                    1    B27      2    A26      4    D25      0
 H                    1    B27      2    A27      4    D26      0
       Variables:
  B1                    2.27881                  
  B2                    2.27882                  
  B3                    1.84536                  
  B4                    1.09511                  
  B5                    1.09735                  
  B6                    1.09511                  
  B7                    1.84542                  
  B8                    1.09511                  
  B9                    1.09733                  
  B10                   1.09512                  
  B11                   1.8454                   
  B12                   1.09513                  
  B13                   1.09735                  
  B14                   1.09512                  
  B15                   1.84535                  
  B16                   1.09511                  
  B17                   1.09735                  
  B18                   1.09511                  
  B19                   1.84541                  
  B20                   1.09733                  
  B21                   1.09511                  
  B22                   1.09512                  
  B23                   1.8454                   
  B24                   1.09511                  
  B25                   1.09735                  
  B26                   1.09513                  
  A1                  179.97882                  
  A2                  116.2448                   
  A3                  109.38798                  
  A4                  111.54725                  
  A5                  109.40539                  
  A6                  116.26337                  
  A7                  109.40811                  
  A8                  111.54502                  
  A9                  109.4034                   
  A10                 116.25834                  
  A11                 109.40345                  
  A12                 111.55029                  
  A13                 109.39866                  
  A14                 116.26602                  
  A15                 109.40193                  
  A16                 111.54881                  
  A17                 109.38975                  
  A18                 116.24586                  
  A19                 111.54764                  
  A20                 109.40378                  
  A21                 109.40457                  
  A22                 116.25025                  
  A23                 109.39938                  
  A24                 111.54867                  
  A25                 109.4035                   
  A26                  90.0106                   
  A27                  89.99965                  
  D1                    3.70672                  
  D2                   59.06019                  
  D3                  179.9856                   
  D4                  -59.07717                  
  D5                  123.69017                  
  D6                   59.04687                  
  D7                  179.98208                  
  D8                  -59.09467                  
  D9                 -116.29945                  
  D10                  59.05111                  
  D11                 179.98283                  
  D12                 -59.08517                  
  D13                 176.36088                  
  D14                  59.07525                  
  D15                -179.98833                  
  D16                 -59.06112                  
  D17                  56.36723                  
  D18                -179.98033                  
  D19                 -59.04558                  
  D20                  59.09368                  
  D21                 -63.62173                  
  D22                  59.03853                  
  D23                 179.97107                  
  D24                 -59.09843                  
  D25                -176.19603                  
       Constants:
  D26                 115.95165Scan 5     2.     
  B27                   1.84   Scan 5     0.03   
 
 ITRead=  0  0  0  0  0  0  0  0  0  0  0  0  0  0  0  0  0  0  0  0
 ITRead=  0  0  0  0  0  0  0  0  0
 MicOpt= -1 -1 -1 -1 -1 -1 -1 -1 -1 -1 -1 -1 -1 -1 -1 -1 -1 -1 -1 -1
 MicOpt= -1 -1 -1 -1 -1 -1 -1 -1 -1
 NAtoms=     29 NQM=       29 NQMF=       0 NMMI=      0 NMMIF=      0
                NMic=       0 NMicF=      0.
                    Isotopes and Nuclear Properties:
 (Nuclear quadrupole moments (NQMom) in fm**2, nuclear magnetic moments (NMagM)
  in nuclear magnetons)

  Atom         1           2           3           4           5           6           7           8           9          10
 IAtWgt=         195          31          31          12           1           1           1          12           1           1
 AtmWgt= 194.9648000  30.9737634  30.9737634  12.0000000   1.0078250   1.0078250   1.0078250  12.0000000   1.0078250   1.0078250
 NucSpn=           1           1           1           0           1           1           1           0           1           1
 AtZEff=  -0.0000000  -0.0000000  -0.0000000  -0.0000000  -0.0000000  -0.0000000  -0.0000000  -0.0000000  -0.0000000  -0.0000000
 NQMom=    0.0000000   0.0000000   0.0000000   0.0000000   0.0000000   0.0000000   0.0000000   0.0000000   0.0000000   0.0000000
 NMagM=    0.6095000   1.1316000   1.1316000   0.0000000   2.7928460   2.7928460   2.7928460   0.0000000   2.7928460   2.7928460
 AtZNuc=  78.0000000  15.0000000  15.0000000   6.0000000   1.0000000   1.0000000   1.0000000   6.0000000   1.0000000   1.0000000

  Atom        11          12          13          14          15          16          17          18          19          20
 IAtWgt=           1          12           1           1           1          12           1           1           1          12
 AtmWgt=   1.0078250  12.0000000   1.0078250   1.0078250   1.0078250  12.0000000   1.0078250   1.0078250   1.0078250  12.0000000
 NucSpn=           1           0           1           1           1           0           1           1           1           0
 AtZEff=  -0.0000000  -0.0000000  -0.0000000  -0.0000000  -0.0000000  -0.0000000  -0.0000000  -0.0000000  -0.0000000  -0.0000000
 NQMom=    0.0000000   0.0000000   0.0000000   0.0000000   0.0000000   0.0000000   0.0000000   0.0000000   0.0000000   0.0000000
 NMagM=    2.7928460   0.0000000   2.7928460   2.7928460   2.7928460   0.0000000   2.7928460   2.7928460   2.7928460   0.0000000
 AtZNuc=   1.0000000   6.0000000   1.0000000   1.0000000   1.0000000   6.0000000   1.0000000   1.0000000   1.0000000   6.0000000

  Atom        21          22          23          24          25          26          27          28          29
 IAtWgt=           1           1           1          12           1           1           1           1           1
 AtmWgt=   1.0078250   1.0078250   1.0078250  12.0000000   1.0078250   1.0078250   1.0078250   1.0078250   1.0078250
 NucSpn=           1           1           1           0           1           1           1           1           1
 AtZEff=  -0.0000000  -0.0000000  -0.0000000  -0.0000000  -0.0000000  -0.0000000  -0.0000000  -0.0000000  -0.0000000
 NQMom=    0.0000000   0.0000000   0.0000000   0.0000000   0.0000000   0.0000000   0.0000000   0.0000000   0.0000000
 NMagM=    2.7928460   2.7928460   2.7928460   0.0000000   2.7928460   2.7928460   2.7928460   2.7928460   2.7928460
 AtZNuc=   1.0000000   1.0000000   1.0000000   6.0000000   1.0000000   1.0000000   1.0000000   1.0000000   1.0000000
 Leave Link  101 at Wed Oct 30 15:17:19 2019, MaxMem=   140000000 cpu:               4.4 elap:               0.2
 (Enter /usr/g16/l108.exe)
 Scan the potential surface.
 Variable   Value     No. Steps Step-Size
 -------- ----------- --------- ---------
    79     115.951654       5      2.0000
    80       1.840000       5      0.0300
 A total of     36 points will be computed.
 Leave Link  108 at Wed Oct 30 15:17:19 2019, MaxMem=   140000000 cpu:               1.1 elap:               0.1
 (Enter /usr/g16/l202.exe)
 ---------------------------------------------------------------------------------------------------
                            Z-MATRIX (ANGSTROMS AND DEGREES)
   CD    Cent   Atom    N1       Length/X        N2       Alpha/Y        N3        Beta/Z          J
 ---------------------------------------------------------------------------------------------------
      1      1  Pt
      2      2  P        1   2.278808(     1)
      3      3  P        1   2.278817(     2)      2  179.979(    29)
      4      4  C        2   1.845358(     3)      1  116.245(    30)      3    3.707(    56)      0
      5      5  H        4   1.095106(     4)      2  109.388(    31)      1   59.060(    57)      0
      6      6  H        4   1.097352(     5)      2  111.547(    32)      1  179.986(    58)      0
      7      7  H        4   1.095108(     6)      2  109.405(    33)      1  -59.077(    59)      0
      8      8  C        2   1.845420(     7)      1  116.263(    34)      3  123.690(    60)      0
      9      9  H        8   1.095113(     8)      2  109.408(    35)      1   59.047(    61)      0
     10     10  H        8   1.097331(     9)      2  111.545(    36)      1  179.982(    62)      0
     11     11  H        8   1.095118(    10)      2  109.403(    37)      1  -59.095(    63)      0
     12     12  C        2   1.845396(    11)      1  116.258(    38)      3 -116.299(    64)      0
     13     13  H       12   1.095126(    12)      2  109.403(    39)      1   59.051(    65)      0
     14     14  H       12   1.097353(    13)      2  111.550(    40)      1  179.983(    66)      0
     15     15  H       12   1.095115(    14)      2  109.399(    41)      1  -59.085(    67)      0
     16     16  C        3   1.845352(    15)      1  116.266(    42)      2  176.361(    68)      0
     17     17  H       16   1.095109(    16)      3  109.402(    43)      1   59.075(    69)      0
     18     18  H       16   1.097349(    17)      3  111.549(    44)      1 -179.988(    70)      0
     19     19  H       16   1.095105(    18)      3  109.390(    45)      1  -59.061(    71)      0
     20     20  C        3   1.845407(    19)      1  116.246(    46)      2   56.367(    72)      0
     21     21  H       20   1.097333(    20)      3  111.548(    47)      1 -179.980(    73)      0
     22     22  H       20   1.095112(    21)      3  109.404(    48)      1  -59.046(    74)      0
     23     23  H       20   1.095115(    22)      3  109.405(    49)      1   59.094(    75)      0
     24     24  C        3   1.845401(    23)      1  116.250(    50)      2  -63.622(    76)      0
     25     25  H       24   1.095113(    24)      3  109.399(    51)      1   59.039(    77)      0
     26     26  H       24   1.097353(    25)      3  111.549(    52)      1  179.971(    78)      0
     27     27  H       24   1.095126(    26)      3  109.403(    53)      1  -59.098(    79)      0
     28     28  H        1   1.840000(    27)      2   90.011(    54)      4 -176.196(    80)      0
     29     29  H        1   1.840000(    28)      2   90.000(    55)      4  115.952(    81)      0
 ---------------------------------------------------------------------------------------------------
                         Z-Matrix orientation:                         
 ---------------------------------------------------------------------
 Center     Atomic      Atomic             Coordinates (Angstroms)
 Number     Number       Type             X           Y           Z
 ---------------------------------------------------------------------
      1         78           0        0.000000    0.000000    0.000000
      2         15           0        0.000000    0.000000    2.278808
      3         15           0        0.000842    0.000000   -2.278817
      4          6           0        1.651663    0.107003    3.094839
      5          1           0        2.154127    1.027429    2.779240
      6          1           0        1.561965    0.101449    4.188504
      7          1           0        2.268833   -0.740952    2.779665
      8          6           0       -0.917985    1.376972    3.095403
      9          1           0       -1.966421    1.352746    2.780019
     10          1           0       -0.868181    1.301691    4.189015
     11          1           0       -0.491769    2.335378    2.780629
     12          6           0       -0.733254   -1.483662    3.095247
     13          1           0       -0.187773   -2.379350    2.779818
     14          1           0       -0.693074   -1.403052    4.188897
     15          1           0       -1.776273   -1.593938    2.780241
     16          6           0       -1.650337   -0.105034   -3.096068
     17          1           0       -2.266702    0.743645   -2.781266
     18          1           0       -1.559858   -0.099514   -4.189667
     19          1           0       -2.154140   -1.024874   -2.780896
     20          6           0        0.917881   -1.378089   -3.094561
     21          1           0        0.868795   -1.303060   -4.188225
     22          1           0        1.966149   -1.354780   -2.778553
     23          1           0        0.490562   -2.335995   -2.779773
     24          6           0        0.736491    1.482759   -3.094752
     25          1           0        1.779277    1.592049   -2.778644
     26          1           0        0.697395    1.401950   -4.188427
     27          1           0        0.191570    2.379062   -2.780102
     28          1           0       -1.839997    0.003123   -0.000340
     29          1           0       -0.696563   -1.703056    0.000011
 ---------------------------------------------------------------------
                    Distance matrix (angstroms):
                    1          2          3          4          5
     1  Pt   0.000000
     2  P    2.278808   0.000000
     3  P    2.278817   4.557625   0.000000
     4  C    3.509625   1.845358   5.622529   0.000000
     5  H    3.663338   2.438505   5.592512   1.095106   0.000000
     6  H    4.471420   2.469204   6.653844   1.097352   1.787210
     7  H    3.663762   2.438744   5.592945   1.095108   1.772097
     8  C    3.510024   1.845420   5.623392   2.866341   3.108056
     9  H    3.664047   2.438841   5.593913   3.839468   4.133370
    10  H    4.471687   2.469217   6.654506   2.995683   3.346197
    11  H    3.664386   2.438780   5.594162   3.107842   2.951525
    12  C    3.509910   1.845396   5.623230   2.866713   3.839584
    13  H    3.663871   2.438765   5.593449   3.108811   4.134082
    14  H    4.471662   2.469280   6.654427   2.995833   4.000115
    15  H    3.664086   2.438692   5.594001   3.839650   4.724363
    16  C    3.510026   5.623517   1.845352   7.019650   7.090534
    17  H    3.664203   5.594219   2.438692   7.091368   7.109394
    18  H    4.471730   6.654640   2.469218   7.963701   7.976801
    19  H    3.663887   5.593862   2.438524   7.091511   7.327225
    20  C    3.509692   5.622697   1.845407   6.407230   6.466557
    21  H    4.471465   6.653968   2.469240   7.459502   7.458474
    22  H    3.663540   5.592680   2.438769   6.060729   6.049737
    23  H    3.663969   5.593458   2.438782   6.467415   6.706914
    24  C    3.509770   5.622824   1.845401   6.406347   6.059769
    25  H    3.663511   5.592698   2.438704   6.059657   5.599052
    26  H    4.471548   6.654093   2.469263   7.458785   7.128164
    27  H    3.664097   5.593676   2.438770   6.465992   6.048539
    28  H    1.840000   2.929184   2.929190   4.667185   4.972756
    29  H    1.840000   2.928910   2.929135   4.285841   4.827639
                    6          7          8          9         10
     6  H    0.000000
     7  H    1.787213   0.000000
     8  C    2.995327   3.839415   0.000000
     9  H    3.999886   4.724505   1.095113   0.000000
    10  H    2.710387   3.999940   1.097331   1.787179   0.000000
    11  H    3.345202   4.133368   1.095118   1.772051   1.787105
    12  C    2.995967   3.108655   2.866593   3.108904   2.995452
    13  H    3.346691   2.952839   3.839630   4.134263   3.999857
    14  H    2.710853   3.346222   2.995805   3.346755   2.710406
    15  H    4.000172   4.134062   3.108423   2.952813   3.345735
    16  C    7.964077   7.091440   6.408354   6.062461   7.460770
    17  H    7.978020   7.327964   6.062621   5.602594   7.131065
    18  H    8.943149   7.977587   7.460848   7.130980   8.523151
    19  H    7.978132   7.110776   6.467444   6.050793   7.459642
    20  C    7.459686   6.061150   7.019716   7.091357   7.963775
    21  H    8.521897   7.129345   7.964069   7.977981   8.943152
    22  H    7.129085   5.600195   7.091125   7.327587   7.977298
    23  H    7.459620   6.050931   7.091391   7.110195   7.977654
    24  C    7.458904   6.465427   6.408315   6.468043   7.460632
    25  H    7.128132   6.047922   6.467295   6.707179   7.459331
    26  H    8.521254   7.457597   7.460848   7.460401   8.523064
    27  H    7.458350   6.705261   6.062743   6.051876   7.131087
    28  H    5.397169   5.016429   3.510156   3.093196   4.492372
    29  H    5.089269   4.176804   4.372305   4.321910   5.158073
                   11         12         13         14         15
    11  H    0.000000
    12  C    3.839579   0.000000
    13  H    4.724518   1.095126   0.000000
    14  H    3.999950   1.097353   1.787174   0.000000
    15  H    4.133942   1.095115   1.772062   1.787196   0.000000
    16  C    6.467879   6.408903   6.468203   7.461362   6.063309
    17  H    6.051336   6.468830   6.708256   7.461084   6.052700
    18  H    7.460197   7.461174   7.460160   8.523547   7.131603
    19  H    6.707111   6.062876   6.051673   7.131322   5.602934
    20  C    7.091883   6.407114   6.060802   7.459528   6.466711
    21  H    7.978364   7.459768   7.129401   8.522066   7.459257
    22  H    7.110776   6.465672   6.048521   7.457825   6.705454
    23  H    7.328354   6.061358   5.600989   7.129778   6.050037
    24  C    6.062647   7.019679   7.090890   7.963863   7.091939
    25  H    6.051091   7.090515   7.108994   7.976827   7.327596
    26  H    7.131139   7.964008   7.977355   8.943209   7.978516
    27  H    5.602731   7.091944   7.327967   7.978341   7.111579
    28  H    3.871811   3.608057   4.016877   4.565356   3.207226
    29  H    4.907415   3.103218   2.905782   4.199616   2.984520
                   16         17         18         19         20
    16  C    0.000000
    17  H    1.095109   0.000000
    18  H    1.097349   1.787216   0.000000
    19  H    1.095105   1.772098   1.787204   0.000000
    20  C    2.866428   3.839463   2.995530   3.108127   0.000000
    21  H    2.995680   3.999985   2.710513   3.346057   1.097333
    22  H    3.839486   4.724450   3.999957   4.133476   1.095112
    23  H    3.108163   4.133605   3.345724   2.951862   1.095115
    24  C    2.866712   3.108655   2.995938   3.839594   2.866593
    25  H    3.839675   4.133975   4.000274   4.724411   3.108622
    26  H    2.996013   3.346541   2.711012   4.000233   2.995625
    27  H    3.108567   2.952574   3.346298   4.133901   3.839608
    28  H    3.103418   2.909294   4.199937   2.981100   4.368963
    29  H    3.612349   4.023330   4.568373   3.212150   3.505482
                   21         22         23         24         25
    21  H    0.000000
    22  H    1.787187   0.000000
    23  H    1.787107   1.772044   0.000000
    24  C    2.995660   3.108644   3.839607   0.000000
    25  H    3.346275   2.952749   4.134044   1.095113   0.000000
    26  H    2.710435   3.346198   3.999915   1.097353   1.787204
    27  H    3.999934   4.134091   4.724528   1.095126   1.772062
    28  H    5.155778   4.903990   4.316044   4.289872   4.831439
    29  H    4.489061   3.864162   3.088216   4.666972   4.970757
                   26         27         28         29
    26  H    0.000000
    27  H    1.787172   0.000000
    28  H    5.092656   4.183232   0.000000
    29  H    5.396962   5.018117   2.053896   0.000000
 Stoichiometry    C6H20P2Pt
 Framework group  C1[X(C6H20P2Pt)]
 Deg. of freedom    81
 Full point group                 C1      NOp   1
 Largest Abelian subgroup         C1      NOp   1
 Largest concise Abelian subgroup C1      NOp   1
                         Standard orientation:                         
 ---------------------------------------------------------------------
 Center     Atomic      Atomic             Coordinates (Angstroms)
 Number     Number       Type             X           Y           Z
 ---------------------------------------------------------------------
      1         78           0       -0.000007   -0.018348   -0.000131
      2         15           0        2.278801   -0.018670    0.000187
      3         15           0       -2.278824   -0.018724    0.000023
      4          6           0        3.094514   -1.447926    0.835163
      5          1           0        2.778851   -2.379130    0.353009
      6          1           0        4.188197   -1.370612    0.789763
      7          1           0        2.779189   -1.485387    1.883222
      8          6           0        3.095625   -0.027704   -1.654592
      9          1           0        2.780445    0.855091   -2.220813
     10          1           0        4.189225   -0.027053   -1.564179
     11          1           0        2.780804   -0.916932   -2.210869
     12          6           0        3.095329    1.418748    0.820308
     13          1           0        2.779761    1.467411    1.867853
     14          1           0        4.188974    1.340207    0.776099
     15          1           0        2.780523    2.345169    0.328456
     16          6           0       -3.095757    1.409030   -0.836315
     17          1           0       -2.780803    1.445420   -1.884525
     18          1           0       -4.189373    1.331086   -0.790450
     19          1           0       -2.780520    2.341016   -0.355395
     20          6           0       -3.094797   -0.008281    1.655198
     21          1           0       -4.188449   -0.009387    1.565396
     22          1           0       -2.778992   -0.890424    2.222086
     23          1           0       -2.779961    0.881582    2.210445
     24          6           0       -3.094848   -1.457623   -0.818011
     25          1           0       -2.778939   -2.383300   -0.325471
     26          1           0       -4.188518   -1.379869   -0.773030
     27          1           0       -2.780059   -1.507095   -1.865752
     28          1           0        0.000012    1.505351   -1.031605
     29          1           0        0.000078    1.511447    1.022282
 ---------------------------------------------------------------------
 Rotational constants (GHZ):           1.7565552           0.3733661           0.3726576
 Leave Link  202 at Wed Oct 30 15:17:19 2019, MaxMem=   140000000 cpu:               1.8 elap:               0.1
 (Enter /usr/g16/l301.exe)
 General basis read from cards:  (5D, 7F)
 Centers:       1
 SDD
 ****
 Centers:       2      3      4      8     12     16     20     24      5      6
 Centers:       7      9     10     11     13     14     15     17     18     19
 Centers:      21     22     23     25     26     27     28     29
 6-31g*
 ****
 ======================================================================================================
                                       Pseudopotential Parameters
 ======================================================================================================
  Center     Atomic      Valence      Angular      Power
  Number     Number     Electrons     Momentum     of R      Exponent        Coefficient   SO-Coeffient
 ======================================================================================================
    1         78           18
                                      H and up 
                                                     2        1.0000000        0.00000000    0.00000000
                                      S - H
                                                     2       13.4286510      579.22386100    0.00000000
                                                     2        6.7143260       29.66949100    0.00000000
                                      P - H
                                                     2       10.3659440      280.86077400    0.00000000
                                                     2        5.1829720       26.74538200    0.00000000
                                      D - H
                                                     2        7.6004790      120.39644400    0.00000000
                                                     2        3.8002400       15.81092100    0.00000000
                                      F - H
                                                     2        3.3095690       24.31437600    0.00000000
                                      G - H
                                                     2        5.2772890      -24.21867500    0.00000000
    2         15
                                   No pseudopotential on this center.
    3         15
                                   No pseudopotential on this center.
    4          6
                                   No pseudopotential on this center.
    5          1
                                   No pseudopotential on this center.
    6          1
                                   No pseudopotential on this center.
    7          1
                                   No pseudopotential on this center.
    8          6
                                   No pseudopotential on this center.
    9          1
                                   No pseudopotential on this center.
   10          1
                                   No pseudopotential on this center.
   11          1
                                   No pseudopotential on this center.
   12          6
                                   No pseudopotential on this center.
   13          1
                                   No pseudopotential on this center.
   14          1
                                   No pseudopotential on this center.
   15          1
                                   No pseudopotential on this center.
   16          6
                                   No pseudopotential on this center.
   17          1
                                   No pseudopotential on this center.
   18          1
                                   No pseudopotential on this center.
   19          1
                                   No pseudopotential on this center.
   20          6
                                   No pseudopotential on this center.
   21          1
                                   No pseudopotential on this center.
   22          1
                                   No pseudopotential on this center.
   23          1
                                   No pseudopotential on this center.
   24          6
                                   No pseudopotential on this center.
   25          1
                                   No pseudopotential on this center.
   26          1
                                   No pseudopotential on this center.
   27          1
                                   No pseudopotential on this center.
   28          1
                                   No pseudopotential on this center.
   29          1
                                   No pseudopotential on this center.
 ======================================================================================================
 Ernie: Thresh=  0.10000D-02 Tol=  0.10000D-05 Strict=F.
 There are   207 symmetry adapted cartesian basis functions of A   symmetry.
 There are   196 symmetry adapted basis functions of A   symmetry.
   196 basis functions,   417 primitive gaussians,   207 cartesian basis functions
    52 alpha electrons       52 beta electrons
       nuclear repulsion energy       814.6682469637 Hartrees.
 IExCor=  402 DFT=T Ex+Corr=B3LYP ExCW=0 ScaHFX=  0.200000
 ScaDFX=  0.800000  0.720000  1.000000  0.810000 ScalE2=  1.000000  1.000000
 IRadAn=      5 IRanWt=     -1 IRanGd=            0 ICorTp=0 IEmpDi=141
 NAtoms=   29 NActive=   29 NUniq=   29 SFac= 1.00D+00 NAtFMM=   60 NAOKFM=F Big=F
 Integral buffers will be    131072 words long.
 Raffenetti 2 integral format.
 Two-electron integral symmetry is turned on.
 R6Disp:  Grimme-D3(BJ) Dispersion energy=       -0.0605962970 Hartrees.
 Nuclear repulsion after empirical dispersion term =      814.6076506667 Hartrees.
 ------------------------------------------------------------------------------
 Polarizable Continuum Model (PCM)
 =================================
 Model                : PCM.
 Atomic radii         : SMD-Coulomb.
 Polarization charges : Total charges.
 Charge compensation  : None.
 Solution method      : On-the-fly selection.
 Cavity type          : VdW (van der Waals Surface) (Alpha=1.000).
 Cavity algorithm     : GePol (No added spheres)
                        Default sphere list used, NSphG=   29.
                        Lebedev-Laikov grids with approx.  5.0 points / Ang**2.
                        Smoothing algorithm: York/Karplus (Gamma=1.0000).
                        Polarization charges: spherical gaussians, with
                                              point-specific exponents (IZeta= 3).
                        Self-potential: point-specific (ISelfS= 7).
                        Self-field    : sphere-specific E.n sum rule (ISelfD= 2).
 Solvent              : Benzene, Eps=   2.270600 Eps(inf)=   2.253301
 ------------------------------------------------------------------------------
 GePol: Number of generator spheres                  =      29
 GePol: Total number of spheres                      =      29
 GePol: Number of exposed spheres                    =      29 (100.00%)
 GePol: Number of points                             =    2173
 GePol: Average weight of points                     =       0.12
 GePol: Minimum weight of points                     =   0.15D-08
 GePol: Maximum weight of points                     =    0.22001
 GePol: Number of points with low weight             =     129
 GePol: Fraction of low-weight points (<1% of avg)   =       5.94%
 GePol: Cavity surface area                          =    256.105 Ang**2
 GePol: Cavity volume                                =    210.342 Ang**3
 ------------------------------------------------------------------------------
 Atomic radii for non-electrostatic terms: SMD-CDS.
 ------------------------------------------------------------------------------
 PCM non-electrostatic energy =         0.0000470069 Hartrees.
 Nuclear repulsion after PCM non-electrostatic terms =      814.6076976736 Hartrees.
 Leave Link  301 at Wed Oct 30 15:17:19 2019, MaxMem=   140000000 cpu:               4.0 elap:               0.2
 (Enter /usr/g16/l302.exe)
 NPDir=0 NMtPBC=     1 NCelOv=     1 NCel=       1 NClECP=     1 NCelD=      1
         NCelK=      1 NCelE2=     1 NClLst=     1 CellRange=     0.0.
 One-electron integrals computed using PRISM.
 One-electron integral symmetry used in STVInt
   1 Symmetry operations used in ECPInt.
 ECPInt:  NShTT=    3916 NPrTT=   20546 LenC2=    3685 LenP2D=   12941.
 LDataN:  DoStor=T MaxTD1= 7 Len=  274
 Number of processors reduced to  20 by ecpmxn.
 NBasis=   196 RedAO= T EigKep=  1.26D-03  NBF=   196
 NBsUse=   196 1.00D-06 EigRej= -1.00D+00 NBFU=   196
 Precomputing XC quadrature grid using
 IXCGrd= 4 IRadAn=           5 IRanWt=          -1 IRanGd=           0 AccXCQ= 0.00D+00.
 Defaulting to unpruned grid for atomic number  78.
 Generated NRdTot=       0 NPtTot=           0 NUsed=           0 NTot=          32
 NSgBfM=   207   207   207   207   207 MxSgAt=    29 MxSgA2=    29.
 Leave Link  302 at Wed Oct 30 15:17:20 2019, MaxMem=   140000000 cpu:              14.1 elap:               0.6
 (Enter /usr/g16/l303.exe)
 DipDrv:  MaxL=1.
 Leave Link  303 at Wed Oct 30 15:17:20 2019, MaxMem=   140000000 cpu:               3.3 elap:               0.2
 (Enter /usr/g16/l401.exe)
 ExpMin= 1.50D-02 ExpMax= 1.94D+04 ExpMxC= 2.91D+03 IAcc=3 IRadAn=         5 AccDes= 0.00D+00
 Harris functional with IExCor=  402 and IRadAn=       5 diagonalized for initial guess.
 HarFok:  IExCor=  402 AccDes= 0.00D+00 IRadAn=         5 IDoV= 1 UseB2=F ITyADJ=14
 ICtDFT=  3500011 ScaDFX=  1.000000  1.000000  1.000000  1.000000
 Defaulting to unpruned grid for atomic number  78.
 FoFCou: FMM=F IPFlag=           0 FMFlag=      100000 FMFlg1=           0
         NFxFlg=           0 DoJE=T BraDBF=F KetDBF=T FulRan=T
         wScrn=  0.000000 ICntrl=       500 IOpCl=  0 I1Cent=   200000004 NGrid=           0
         NMat0=    1 NMatS0=      1 NMatT0=    0 NMatD0=    1 NMtDS0=    0 NMtDT0=    0
 Petite list used in FoFCou.
 Harris En= -1042.63161300827    
 JPrj=0 DoOrth=F DoCkMO=F.
 Leave Link  401 at Wed Oct 30 15:17:22 2019, MaxMem=   140000000 cpu:              38.3 elap:               1.6
 (Enter /usr/g16/l502.exe)
 Integral symmetry usage will be decided dynamically.
 Closed shell SCF:
 Using DIIS extrapolation, IDIIS=  1040.
 NGot=   140000000 LenX=   139906737 LenY=   139863447
 Requested convergence on RMS density matrix=1.00D-08 within 128 cycles.
 Requested convergence on MAX density matrix=1.00D-06.
 Requested convergence on             energy=1.00D-06.
 No special actions if energy rises.
 Fock matrices will be formed incrementally for  20 cycles.

 Cycle   1  Pass 1  IDiag  1:
 FoFJK:  IHMeth= 1 ICntrl=       0 DoSepK=F KAlg= 0 I1Cent=           0 FoldK=F
 IRaf= 900000000 NMat=       1 IRICut=       1 DoRegI=T DoRafI=F ISym2E= 0 IDoP0=0 IntGTp=1.
 FoFCou: FMM=F IPFlag=           0 FMFlag=      100000 FMFlg1=           0
         NFxFlg=           0 DoJE=F BraDBF=F KetDBF=F FulRan=T
         wScrn=  0.000000 ICntrl=         0 IOpCl=  0 I1Cent=           0 NGrid=           0
         NMat0=    1 NMatS0=      1 NMatT0=    0 NMatD0=    1 NMtDS0=    0 NMtDT0=    0
 Symmetry not used in FoFCou.
 Defaulting to unpruned grid for atomic number  78.
 Defaulting to unpruned grid for atomic number  78.
 Defaulting to unpruned grid for atomic number  78.
 Defaulting to unpruned grid for atomic number  78.
 Defaulting to unpruned grid for atomic number  78.
 Defaulting to unpruned grid for atomic number  78.
 Defaulting to unpruned grid for atomic number  78.
 Defaulting to unpruned grid for atomic number  78.
 Defaulting to unpruned grid for atomic number  78.
 Defaulting to unpruned grid for atomic number  78.
 Defaulting to unpruned grid for atomic number  78.
 Defaulting to unpruned grid for atomic number  78.
 Defaulting to unpruned grid for atomic number  78.
 Defaulting to unpruned grid for atomic number  78.
 Defaulting to unpruned grid for atomic number  78.
 Defaulting to unpruned grid for atomic number  78.
 Defaulting to unpruned grid for atomic number  78.
 Defaulting to unpruned grid for atomic number  78.
 Defaulting to unpruned grid for atomic number  78.
 Defaulting to unpruned grid for atomic number  78.
 Defaulting to unpruned grid for atomic number  78.
 Defaulting to unpruned grid for atomic number  78.
 Defaulting to unpruned grid for atomic number  78.
 Defaulting to unpruned grid for atomic number  78.
 Inv3:  Mode=1 IEnd=    14165787.
 Iteration    1 A*A^-1 deviation from unit magnitude is 8.44D-15 for    503.
 Iteration    1 A*A^-1 deviation from orthogonality  is 5.18D-15 for   1739    468.
 Iteration    1 A^-1*A deviation from unit magnitude is 8.22D-15 for    503.
 Iteration    1 A^-1*A deviation from orthogonality  is 2.06D-15 for   1138    163.
 E= -1041.86269654313    
 DIIS: error= 7.81D-02 at cycle   1 NSaved=   1.
 NSaved= 1 IEnMin= 1 EnMin= -1041.86269654313     IErMin= 1 ErrMin= 7.81D-02
 ErrMax= 7.81D-02  0.00D+00 EMaxC= 1.00D-01 BMatC= 1.07D+00 BMatP= 1.07D+00
 IDIUse=3 WtCom= 2.19D-01 WtEn= 7.81D-01
 Coeff-Com:  0.100D+01
 Coeff-En:   0.100D+01
 Coeff:      0.100D+01
 Gap=     0.027 Goal=   None    Shift=    0.000
 GapD=    0.027 DampG=0.250 DampE=0.250 DampFc=0.1250 IDamp=-1.
 Damping current iteration by 1.25D-01
 RMSDP=1.33D-02 MaxDP=6.79D-01              OVMax= 6.16D-01

 Cycle   2  Pass 1  IDiag  1:
 RMSU=  1.67D-03    CP:  9.98D-01
 E= -1042.12490599083     Delta-E=       -0.262209447705 Rises=F Damp=T
 DIIS: error= 4.87D-02 at cycle   2 NSaved=   2.
 NSaved= 2 IEnMin= 2 EnMin= -1042.12490599083     IErMin= 2 ErrMin= 4.87D-02
 ErrMax= 4.87D-02  0.00D+00 EMaxC= 1.00D-01 BMatC= 4.78D-01 BMatP= 1.07D+00
 IDIUse=3 WtCom= 5.13D-01 WtEn= 4.87D-01
 Coeff-Com: -0.190D+01 0.290D+01
 Coeff-En:   0.000D+00 0.100D+01
 Coeff:     -0.976D+00 0.198D+01
 Gap=     0.092 Goal=   None    Shift=    0.000
 RMSDP=5.75D-03 MaxDP=2.82D-01 DE=-2.62D-01 OVMax= 2.67D-01

 Cycle   3  Pass 1  IDiag  1:
 RMSU=  3.33D-03    CP:  9.86D-01  3.00D+00
 E= -1042.43860836080     Delta-E=       -0.313702369964 Rises=F Damp=F
 DIIS: error= 4.72D-02 at cycle   3 NSaved=   3.
 NSaved= 3 IEnMin= 3 EnMin= -1042.43860836080     IErMin= 3 ErrMin= 4.72D-02
 ErrMax= 4.72D-02  0.00D+00 EMaxC= 1.00D-01 BMatC= 3.90D-01 BMatP= 4.78D-01
 IDIUse=3 WtCom= 5.28D-01 WtEn= 4.72D-01
 EnCoef did   100 forward-backward iterations
 Coeff-Com:  0.411D+00-0.474D-01 0.636D+00
 Coeff-En:   0.316D+00 0.104D-01 0.674D+00
 Coeff:      0.366D+00-0.201D-01 0.654D+00
 Gap=     0.041 Goal=   None    Shift=    0.000
 RMSDP=4.30D-03 MaxDP=2.70D-01 DE=-3.14D-01 OVMax= 3.04D-01

 Cycle   4  Pass 1  IDiag  1:
 RMSU=  2.03D-03    CP:  9.87D-01  1.60D+00  6.41D-01
 E= -1042.75077422246     Delta-E=       -0.312165861666 Rises=F Damp=F
 DIIS: error= 2.63D-02 at cycle   4 NSaved=   4.
 NSaved= 4 IEnMin= 4 EnMin= -1042.75077422246     IErMin= 4 ErrMin= 2.63D-02
 ErrMax= 2.63D-02  0.00D+00 EMaxC= 1.00D-01 BMatC= 7.53D-02 BMatP= 3.90D-01
 IDIUse=3 WtCom= 7.37D-01 WtEn= 2.63D-01
 Coeff-Com: -0.877D+00 0.129D+01 0.115D+00 0.477D+00
 Coeff-En:   0.000D+00 0.000D+00 0.183D+00 0.817D+00
 Coeff:     -0.647D+00 0.948D+00 0.133D+00 0.566D+00
 Gap=     0.045 Goal=   None    Shift=    0.000
 RMSDP=2.11D-03 MaxDP=1.46D-01 DE=-3.12D-01 OVMax= 1.70D-01

 Cycle   5  Pass 1  IDiag  1:
 RMSU=  1.11D-03    CP:  9.90D-01  2.43D+00  6.77D-01  4.44D-01
 E= -1042.79504425026     Delta-E=       -0.044270027798 Rises=F Damp=F
 DIIS: error= 1.31D-02 at cycle   5 NSaved=   5.
 NSaved= 5 IEnMin= 5 EnMin= -1042.79504425026     IErMin= 5 ErrMin= 1.31D-02
 ErrMax= 1.31D-02  0.00D+00 EMaxC= 1.00D-01 BMatC= 2.55D-02 BMatP= 7.53D-02
 IDIUse=3 WtCom= 8.69D-01 WtEn= 1.31D-01
 Coeff-Com: -0.372D+00 0.453D+00-0.493D-01 0.451D+00 0.517D+00
 Coeff-En:   0.000D+00 0.000D+00 0.000D+00 0.319D+00 0.681D+00
 Coeff:     -0.323D+00 0.394D+00-0.429D-01 0.434D+00 0.539D+00
 Gap=     0.046 Goal=   None    Shift=    0.000
 RMSDP=6.60D-04 MaxDP=5.09D-02 DE=-4.43D-02 OVMax= 5.70D-02

 Cycle   6  Pass 1  IDiag  1:
 RMSU=  2.34D-04    CP:  9.88D-01  2.23D+00  6.90D-01  6.24D-01  6.84D-01
 E= -1042.81755808931     Delta-E=       -0.022513839053 Rises=F Damp=F
 DIIS: error= 2.05D-03 at cycle   6 NSaved=   6.
 NSaved= 6 IEnMin= 6 EnMin= -1042.81755808931     IErMin= 6 ErrMin= 2.05D-03
 ErrMax= 2.05D-03  0.00D+00 EMaxC= 1.00D-01 BMatC= 5.40D-04 BMatP= 2.55D-02
 IDIUse=3 WtCom= 9.79D-01 WtEn= 2.05D-02
 Coeff-Com: -0.245D-01 0.232D-01-0.225D-01 0.916D-01 0.611D-01 0.871D+00
 Coeff-En:   0.000D+00 0.000D+00 0.000D+00 0.000D+00 0.000D+00 0.100D+01
 Coeff:     -0.240D-01 0.228D-01-0.220D-01 0.897D-01 0.598D-01 0.874D+00
 Gap=     0.047 Goal=   None    Shift=    0.000
 RMSDP=1.34D-04 MaxDP=7.94D-03 DE=-2.25D-02 OVMax= 9.29D-03

 Cycle   7  Pass 1  IDiag  1:
 RMSU=  4.03D-05    CP:  9.88D-01  2.17D+00  6.92D-01  6.57D-01  6.56D-01
                    CP:  9.08D-01
 E= -1042.81806911854     Delta-E=       -0.000511029227 Rises=F Damp=F
 DIIS: error= 9.95D-05 at cycle   7 NSaved=   7.
 NSaved= 7 IEnMin= 7 EnMin= -1042.81806911854     IErMin= 7 ErrMin= 9.95D-05
 ErrMax= 9.95D-05  0.00D+00 EMaxC= 1.00D-01 BMatC= 2.38D-06 BMatP= 5.40D-04
 IDIUse=1 WtCom= 1.00D+00 WtEn= 0.00D+00
 Coeff-Com:  0.202D-02-0.472D-02-0.683D-02 0.189D-01 0.281D-02 0.313D+00
 Coeff-Com:  0.675D+00
 Coeff:      0.202D-02-0.472D-02-0.683D-02 0.189D-01 0.281D-02 0.313D+00
 Coeff:      0.675D+00
 Gap=     0.047 Goal=   None    Shift=    0.000
 RMSDP=1.11D-05 MaxDP=3.57D-04 DE=-5.11D-04 OVMax= 3.36D-04

 Cycle   8  Pass 1  IDiag  1:
 RMSU=  9.86D-06    CP:  9.88D-01  2.16D+00  6.93D-01  6.58D-01  6.57D-01
                    CP:  9.23D-01  1.01D+00
 E= -1042.81807115557     Delta-E=       -0.000002037028 Rises=F Damp=F
 DIIS: error= 4.72D-05 at cycle   8 NSaved=   8.
 NSaved= 8 IEnMin= 8 EnMin= -1042.81807115557     IErMin= 8 ErrMin= 4.72D-05
 ErrMax= 4.72D-05  0.00D+00 EMaxC= 1.00D-01 BMatC= 3.72D-07 BMatP= 2.38D-06
 IDIUse=1 WtCom= 1.00D+00 WtEn= 0.00D+00
 Coeff-Com:  0.155D-02-0.202D-02-0.766D-03-0.107D-02-0.495D-02 0.353D-01
 Coeff-Com:  0.332D+00 0.640D+00
 Coeff:      0.155D-02-0.202D-02-0.766D-03-0.107D-02-0.495D-02 0.353D-01
 Coeff:      0.332D+00 0.640D+00
 Gap=     0.047 Goal=   None    Shift=    0.000
 RMSDP=3.87D-06 MaxDP=8.22D-05 DE=-2.04D-06 OVMax= 1.29D-04

 Cycle   9  Pass 1  IDiag  1:
 RMSU=  2.66D-06    CP:  9.88D-01  2.16D+00  6.93D-01  6.57D-01  6.57D-01
                    CP:  9.25D-01  1.06D+00  8.18D-01
 E= -1042.81807154833     Delta-E=       -0.000000392763 Rises=F Damp=F
 DIIS: error= 6.02D-06 at cycle   9 NSaved=   9.
 NSaved= 9 IEnMin= 9 EnMin= -1042.81807154833     IErMin= 9 ErrMin= 6.02D-06
 ErrMax= 6.02D-06  0.00D+00 EMaxC= 1.00D-01 BMatC= 9.15D-09 BMatP= 3.72D-07
 IDIUse=1 WtCom= 1.00D+00 WtEn= 0.00D+00
 Coeff-Com: -0.362D-03 0.484D-03-0.166D-03-0.117D-03-0.965D-03 0.256D-02
 Coeff-Com:  0.822D-01 0.212D+00 0.705D+00
 Coeff:     -0.362D-03 0.484D-03-0.166D-03-0.117D-03-0.965D-03 0.256D-02
 Coeff:      0.822D-01 0.212D+00 0.705D+00
 Gap=     0.047 Goal=   None    Shift=    0.000
 RMSDP=1.22D-06 MaxDP=3.77D-05 DE=-3.93D-07 OVMax= 8.47D-05

 Cycle  10  Pass 1  IDiag  1:
 RMSU=  9.52D-07    CP:  9.88D-01  2.16D+00  6.93D-01  6.57D-01  6.58D-01
                    CP:  9.25D-01  1.06D+00  8.21D-01  7.50D-01
 E= -1042.81807155664     Delta-E=       -0.000000008311 Rises=F Damp=F
 DIIS: error= 7.35D-06 at cycle  10 NSaved=  10.
 NSaved=10 IEnMin=10 EnMin= -1042.81807155664     IErMin= 9 ErrMin= 6.02D-06
 ErrMax= 7.35D-06  0.00D+00 EMaxC= 1.00D-01 BMatC= 6.88D-09 BMatP= 9.15D-09
 IDIUse=1 WtCom= 1.00D+00 WtEn= 0.00D+00
 Coeff-Com: -0.247D-04 0.444D-04 0.141D-04-0.545D-04-0.270D-03-0.195D-02
 Coeff-Com: -0.226D-03 0.161D-01 0.259D+00 0.727D+00
 Coeff:     -0.247D-04 0.444D-04 0.141D-04-0.545D-04-0.270D-03-0.195D-02
 Coeff:     -0.226D-03 0.161D-01 0.259D+00 0.727D+00
 Gap=     0.047 Goal=   None    Shift=    0.000
 RMSDP=4.08D-07 MaxDP=1.93D-05 DE=-8.31D-09 OVMax= 1.88D-05

 Cycle  11  Pass 1  IDiag  1:
 RMSU=  1.97D-07    CP:  9.88D-01  2.16D+00  6.93D-01  6.58D-01  6.58D-01
                    CP:  9.26D-01  1.07D+00  8.31D-01  8.16D-01  9.47D-01
 E= -1042.81807156246     Delta-E=       -0.000000005819 Rises=F Damp=F
 DIIS: error= 1.31D-06 at cycle  11 NSaved=  11.
 NSaved=11 IEnMin=11 EnMin= -1042.81807156246     IErMin=11 ErrMin= 1.31D-06
 ErrMax= 1.31D-06  0.00D+00 EMaxC= 1.00D-01 BMatC= 2.09D-10 BMatP= 6.88D-09
 IDIUse=1 WtCom= 1.00D+00 WtEn= 0.00D+00
 Coeff-Com: -0.733D-05 0.140D-04 0.111D-04-0.891D-06-0.503D-04-0.883D-03
 Coeff-Com: -0.564D-02-0.884D-02 0.445D-01 0.204D+00 0.767D+00
 Coeff:     -0.733D-05 0.140D-04 0.111D-04-0.891D-06-0.503D-04-0.883D-03
 Coeff:     -0.564D-02-0.884D-02 0.445D-01 0.204D+00 0.767D+00
 Gap=     0.047 Goal=   None    Shift=    0.000
 RMSDP=1.17D-07 MaxDP=3.96D-06 DE=-5.82D-09 OVMax= 4.12D-06

 Cycle  12  Pass 1  IDiag  1:
 RMSU=  5.02D-08    CP:  9.88D-01  2.16D+00  6.93D-01  6.58D-01  6.58D-01
                    CP:  9.26D-01  1.07D+00  8.33D-01  8.34D-01  9.67D-01
                    CP:  8.49D-01
 E= -1042.81807156267     Delta-E=       -0.000000000214 Rises=F Damp=F
 DIIS: error= 1.93D-07 at cycle  12 NSaved=  12.
 NSaved=12 IEnMin=12 EnMin= -1042.81807156267     IErMin=12 ErrMin= 1.93D-07
 ErrMax= 1.93D-07  0.00D+00 EMaxC= 1.00D-01 BMatC= 4.91D-12 BMatP= 2.09D-10
 IDIUse=1 WtCom= 1.00D+00 WtEn= 0.00D+00
 Coeff-Com:  0.306D-05-0.341D-05 0.207D-05 0.499D-05-0.389D-05-0.133D-03
 Coeff-Com: -0.166D-02-0.342D-02 0.134D-02 0.218D-01 0.228D+00 0.754D+00
 Coeff:      0.306D-05-0.341D-05 0.207D-05 0.499D-05-0.389D-05-0.133D-03
 Coeff:     -0.166D-02-0.342D-02 0.134D-02 0.218D-01 0.228D+00 0.754D+00
 Gap=     0.047 Goal=   None    Shift=    0.000
 RMSDP=2.49D-08 MaxDP=8.21D-07 DE=-2.14D-10 OVMax= 1.88D-06

 Cycle  13  Pass 1  IDiag  1:
 RMSU=  1.29D-08    CP:  9.88D-01  2.16D+00  6.93D-01  6.58D-01  6.58D-01
                    CP:  9.26D-01  1.07D+00  8.34D-01  8.33D-01  9.77D-01
                    CP:  9.09D-01  8.96D-01
 E= -1042.81807156271     Delta-E=       -0.000000000033 Rises=F Damp=F
 DIIS: error= 4.81D-08 at cycle  13 NSaved=  13.
 NSaved=13 IEnMin=13 EnMin= -1042.81807156271     IErMin=13 ErrMin= 4.81D-08
 ErrMax= 4.81D-08  0.00D+00 EMaxC= 1.00D-01 BMatC= 2.73D-13 BMatP= 4.91D-12
 IDIUse=1 WtCom= 1.00D+00 WtEn= 0.00D+00
 Coeff-Com:  0.429D-06-0.772D-06-0.118D-06 0.137D-05 0.578D-05 0.280D-04
 Coeff-Com:  0.539D-04-0.108D-03-0.290D-02-0.102D-01-0.149D-01 0.158D+00
 Coeff-Com:  0.870D+00
 Coeff:      0.429D-06-0.772D-06-0.118D-06 0.137D-05 0.578D-05 0.280D-04
 Coeff:      0.539D-04-0.108D-03-0.290D-02-0.102D-01-0.149D-01 0.158D+00
 Coeff:      0.870D+00
 Gap=     0.047 Goal=   None    Shift=    0.000
 RMSDP=5.81D-09 MaxDP=2.59D-07 DE=-3.32D-11 OVMax= 4.32D-07

 Error on total polarization charges =  0.04872
 SCF Done:  E(RB3LYP) =  -1042.81807156     A.U. after   13 cycles
            NFock= 13  Conv=0.58D-08     -V/T= 2.0859
 KE= 9.603177444854D+02 PE=-4.056543282744D+03 EE= 1.238799769022D+03
 SMD-CDS (non-electrostatic) energy       (kcal/mol) =       0.03
 (included in total energy above)
 Leave Link  502 at Wed Oct 30 15:18:14 2019, MaxMem=   140000000 cpu:            1191.8 elap:              52.1
 (Enter /usr/g16/l601.exe)
 Copying SCF densities to generalized density rwf, IOpCl= 0 IROHF=0.

 **********************************************************************

            Population analysis using the SCF density.

 **********************************************************************

 Orbital symmetries:
       Occupied  (A) (A) (A) (A) (A) (A) (A) (A) (A) (A) (A) (A)
                 (A) (A) (A) (A) (A) (A) (A) (A) (A) (A) (A) (A)
                 (A) (A) (A) (A) (A) (A) (A) (A) (A) (A) (A) (A)
                 (A) (A) (A) (A) (A) (A) (A) (A) (A) (A) (A) (A)
                 (A) (A) (A) (A)
       Virtual   (A) (A) (A) (A) (A) (A) (A) (A) (A) (A) (A) (A)
                 (A) (A) (A) (A) (A) (A) (A) (A) (A) (A) (A) (A)
                 (A) (A) (A) (A) (A) (A) (A) (A) (A) (A) (A) (A)
                 (A) (A) (A) (A) (A) (A) (A) (A) (A) (A) (A) (A)
                 (A) (A) (A) (A) (A) (A) (A) (A) (A) (A) (A) (A)
                 (A) (A) (A) (A) (A) (A) (A) (A) (A) (A) (A) (A)
                 (A) (A) (A) (A) (A) (A) (A) (A) (A) (A) (A) (A)
                 (A) (A) (A) (A) (A) (A) (A) (A) (A) (A) (A) (A)
                 (A) (A) (A) (A) (A) (A) (A) (A) (A) (A) (A) (A)
                 (A) (A) (A) (A) (A) (A) (A) (A) (A) (A) (A) (A)
                 (A) (A) (A) (A) (A) (A) (A) (A) (A) (A) (A) (A)
                 (A) (A) (A) (A) (A) (A) (A) (A) (A) (A) (A) (A)
 The electronic state is 1-A.
 Alpha  occ. eigenvalues --  -77.08891 -77.08889 -10.17274 -10.17272 -10.17194
 Alpha  occ. eigenvalues --  -10.17192 -10.16576 -10.16572  -6.56716  -6.56714
 Alpha  occ. eigenvalues --   -4.72900  -4.72899  -4.72879  -4.72878  -4.72593
 Alpha  occ. eigenvalues --   -4.72590  -3.91922  -2.16220  -2.15845  -2.15636
 Alpha  occ. eigenvalues --   -0.76499  -0.76278  -0.68965  -0.68960  -0.68597
 Alpha  occ. eigenvalues --   -0.68594  -0.55485  -0.53694  -0.44538  -0.43595
 Alpha  occ. eigenvalues --   -0.42507  -0.42475  -0.42255  -0.42191  -0.40137
 Alpha  occ. eigenvalues --   -0.40089  -0.39724  -0.39719  -0.38290  -0.38289
 Alpha  occ. eigenvalues --   -0.36523  -0.34759  -0.33879  -0.33735  -0.33221
 Alpha  occ. eigenvalues --   -0.32914  -0.30705  -0.26828  -0.26713  -0.25712
 Alpha  occ. eigenvalues --   -0.25575  -0.13239
 Alpha virt. eigenvalues --   -0.08530  -0.00202   0.03709   0.04289   0.04484
 Alpha virt. eigenvalues --    0.06052   0.06541   0.09107   0.09148   0.09518
 Alpha virt. eigenvalues --    0.10901   0.10922   0.11424   0.12220   0.12858
 Alpha virt. eigenvalues --    0.12879   0.14112   0.14925   0.15423   0.16854
 Alpha virt. eigenvalues --    0.17067   0.17731   0.17782   0.18994   0.19080
 Alpha virt. eigenvalues --    0.20607   0.20783   0.20842   0.21375   0.21928
 Alpha virt. eigenvalues --    0.22115   0.22408   0.24084   0.24740   0.29731
 Alpha virt. eigenvalues --    0.30753   0.31716   0.32575   0.40273   0.42048
 Alpha virt. eigenvalues --    0.42460   0.43919   0.43995   0.44319   0.44847
 Alpha virt. eigenvalues --    0.48628   0.48667   0.51165   0.52872   0.58333
 Alpha virt. eigenvalues --    0.60974   0.61391   0.63699   0.64384   0.65359
 Alpha virt. eigenvalues --    0.65409   0.66080   0.67255   0.68883   0.69237
 Alpha virt. eigenvalues --    0.70474   0.70948   0.72376   0.72408   0.74081
 Alpha virt. eigenvalues --    0.79964   0.81136   0.81653   0.81782   0.82481
 Alpha virt. eigenvalues --    0.82579   0.85175   0.87152   0.87250   0.88560
 Alpha virt. eigenvalues --    0.89200   0.89366   0.89448   0.90533   0.90738
 Alpha virt. eigenvalues --    0.92951   0.93172   0.93551   0.93641   0.94712
 Alpha virt. eigenvalues --    0.94791   0.95938   0.96675   0.96812   0.99299
 Alpha virt. eigenvalues --    1.01316   1.01438   1.04246   1.04929   1.08025
 Alpha virt. eigenvalues --    1.08043   1.09444   1.10856   1.12377   1.31377
 Alpha virt. eigenvalues --    1.34992   1.36934   1.37002   1.38595   1.38783
 Alpha virt. eigenvalues --    1.42691   1.45802   1.46322   1.55426   1.65679
 Alpha virt. eigenvalues --    1.65686   1.69910   1.70244   1.71614   1.71822
 Alpha virt. eigenvalues --    1.80646   1.81253   1.83229   1.83247   1.92117
 Alpha virt. eigenvalues --    1.93756   2.11108   2.11244   2.22851   2.22964
 Alpha virt. eigenvalues --    2.23234   2.23399   2.24174   2.24754   2.25979
 Alpha virt. eigenvalues --    2.26028   2.26951   2.26988   2.27286   2.27378
 Alpha virt. eigenvalues --    2.28193   2.28403   2.30224   2.30403   2.61456
 Alpha virt. eigenvalues --   45.78545  45.86191  45.95116 114.24943
          Condensed to atoms (all electrons):
               1          2          3          4          5          6
     1  Pt  17.962862   0.337570   0.337537  -0.031012  -0.002893   0.014153
     2  P    0.337570  13.261200  -0.013985   0.314544  -0.027314  -0.020178
     3  P    0.337537  -0.013985  13.261182   0.000030  -0.000017   0.000000
     4  C   -0.031012   0.314544   0.000030   5.361979   0.373191   0.332407
     5  H   -0.002893  -0.027314  -0.000017   0.373191   0.496696  -0.028475
     6  H    0.014153  -0.020178   0.000000   0.332407  -0.028475   0.570264
     7  H   -0.001711  -0.026735  -0.000016   0.370078  -0.022175  -0.028843
     8  C   -0.013532   0.332683   0.000195  -0.030618  -0.001007  -0.005501
     9  H    0.002405  -0.024731   0.000007   0.002324   0.000010  -0.000075
    10  H    0.008145  -0.021173  -0.000004  -0.005713  -0.000337   0.003647
    11  H    0.000729  -0.025465  -0.000002  -0.001052   0.000861  -0.000370
    12  C   -0.015223   0.341275   0.000320  -0.042655   0.002024  -0.002517
    13  H    0.002821  -0.024522   0.000018  -0.001329   0.000005  -0.000282
    14  H    0.006700  -0.018772  -0.000007  -0.003796  -0.000032   0.002354
    15  H    0.003002  -0.024673   0.000024   0.002144  -0.000041  -0.000039
    16  C   -0.015151   0.000319   0.341271  -0.000000  -0.000000   0.000000
    17  H    0.002815   0.000018  -0.024529  -0.000000   0.000000   0.000000
    18  H    0.006695  -0.000007  -0.018790   0.000000   0.000000  -0.000000
    19  H    0.003003   0.000024  -0.024683  -0.000000   0.000000   0.000000
    20  C   -0.013521   0.000196   0.332817  -0.000000   0.000000   0.000000
    21  H    0.008126  -0.000004  -0.021178   0.000000  -0.000000  -0.000000
    22  H    0.000752  -0.000001  -0.025459   0.000000   0.000000  -0.000000
    23  H    0.002421   0.000007  -0.024702   0.000000   0.000000  -0.000000
    24  C   -0.031075   0.000029   0.314465  -0.000000   0.000000  -0.000000
    25  H   -0.002895  -0.000017  -0.027315   0.000000   0.000000  -0.000000
    26  H    0.014174   0.000000  -0.020173  -0.000000  -0.000000   0.000000
    27  H   -0.001728  -0.000016  -0.026733   0.000000   0.000000  -0.000000
    28  H    0.283227  -0.013736  -0.019829   0.000226   0.000005  -0.000007
    29  H    0.283228  -0.019794  -0.013779   0.000428   0.000009  -0.000020
               7          8          9         10         11         12
     1  Pt  -0.001711  -0.013532   0.002405   0.008145   0.000729  -0.015223
     2  P   -0.026735   0.332683  -0.024731  -0.021173  -0.025465   0.341275
     3  P   -0.000016   0.000195   0.000007  -0.000004  -0.000002   0.000320
     4  C    0.370078  -0.030618   0.002324  -0.005713  -0.001052  -0.042655
     5  H   -0.022175  -0.001007   0.000010  -0.000337   0.000861   0.002024
     6  H   -0.028843  -0.005501  -0.000075   0.003647  -0.000370  -0.002517
     7  H    0.506966   0.002238  -0.000041  -0.000058   0.000009  -0.001600
     8  C    0.002238   5.330920   0.364050   0.349815   0.367256  -0.038293
     9  H   -0.000041   0.364050   0.500110  -0.026574  -0.022864  -0.001780
    10  H   -0.000058   0.349815  -0.026574   0.540600  -0.026103  -0.002922
    11  H    0.000009   0.367256  -0.022864  -0.026103   0.495596   0.002082
    12  C   -0.001600  -0.038293  -0.001780  -0.002922   0.002082   5.338981
    13  H    0.000889   0.002173   0.000003  -0.000037  -0.000042   0.364603
    14  H   -0.000244  -0.003740  -0.000263   0.002451  -0.000037   0.350421
    15  H    0.000002  -0.001372   0.000859  -0.000261   0.000000   0.365289
    16  C   -0.000000  -0.000001   0.000000   0.000000  -0.000000  -0.000000
    17  H    0.000000   0.000000  -0.000000  -0.000000   0.000000  -0.000000
    18  H    0.000000   0.000000  -0.000000  -0.000000   0.000000   0.000000
    19  H    0.000000   0.000000   0.000000   0.000000   0.000000   0.000000
    20  C    0.000000   0.000000  -0.000000   0.000000  -0.000000  -0.000001
    21  H   -0.000000   0.000000  -0.000000  -0.000000  -0.000000   0.000000
    22  H   -0.000000  -0.000000   0.000000  -0.000000   0.000000  -0.000000
    23  H    0.000000  -0.000000   0.000000  -0.000000   0.000000   0.000000
    24  C    0.000000  -0.000000   0.000000   0.000000   0.000000  -0.000000
    25  H    0.000000   0.000000   0.000000  -0.000000   0.000000  -0.000000
    26  H   -0.000000   0.000000  -0.000000  -0.000000  -0.000000   0.000000
    27  H    0.000000   0.000000   0.000000  -0.000000  -0.000000  -0.000000
    28  H    0.000005  -0.000305   0.000616  -0.000028   0.000062  -0.001944
    29  H    0.000074   0.000098   0.000041  -0.000006   0.000002  -0.003315
              13         14         15         16         17         18
     1  Pt   0.002821   0.006700   0.003002  -0.015151   0.002815   0.006695
     2  P   -0.024522  -0.018772  -0.024673   0.000319   0.000018  -0.000007
     3  P    0.000018  -0.000007   0.000024   0.341271  -0.024529  -0.018790
     4  C   -0.001329  -0.003796   0.002144  -0.000000  -0.000000   0.000000
     5  H    0.000005  -0.000032  -0.000041  -0.000000   0.000000   0.000000
     6  H   -0.000282   0.002354  -0.000039   0.000000   0.000000  -0.000000
     7  H    0.000889  -0.000244   0.000002  -0.000000   0.000000   0.000000
     8  C    0.002173  -0.003740  -0.001372  -0.000001   0.000000   0.000000
     9  H    0.000003  -0.000263   0.000859   0.000000  -0.000000  -0.000000
    10  H   -0.000037   0.002451  -0.000261   0.000000  -0.000000  -0.000000
    11  H   -0.000042  -0.000037   0.000000  -0.000000   0.000000   0.000000
    12  C    0.364603   0.350421   0.365289  -0.000000  -0.000000   0.000000
    13  H    0.498340  -0.025741  -0.022683  -0.000000   0.000000   0.000000
    14  H   -0.025741   0.538243  -0.025824   0.000000   0.000000  -0.000000
    15  H   -0.022683  -0.025824   0.490830   0.000000   0.000000  -0.000000
    16  C   -0.000000   0.000000   0.000000   5.338884   0.364612   0.350445
    17  H    0.000000   0.000000   0.000000   0.364612   0.498345  -0.025735
    18  H    0.000000  -0.000000  -0.000000   0.350445  -0.025735   0.538199
    19  H    0.000000  -0.000000  -0.000000   0.365286  -0.022678  -0.025819
    20  C    0.000000   0.000000   0.000000  -0.038266   0.002174  -0.003742
    21  H   -0.000000  -0.000000   0.000000  -0.002927  -0.000037   0.002453
    22  H    0.000000   0.000000   0.000000   0.002084  -0.000042  -0.000037
    23  H   -0.000000  -0.000000   0.000000  -0.001783   0.000003  -0.000263
    24  C   -0.000000   0.000000  -0.000000  -0.042630  -0.001329  -0.003800
    25  H    0.000000   0.000000   0.000000   0.002024   0.000005  -0.000032
    26  H    0.000000  -0.000000   0.000000  -0.002525  -0.000282   0.002357
    27  H    0.000000   0.000000   0.000000  -0.001598   0.000890  -0.000244
    28  H    0.000020   0.000018  -0.000050  -0.003294   0.000146   0.000113
    29  H    0.000151   0.000113  -0.000215  -0.001924   0.000020   0.000017
              19         20         21         22         23         24
     1  Pt   0.003003  -0.013521   0.008126   0.000752   0.002421  -0.031075
     2  P    0.000024   0.000196  -0.000004  -0.000001   0.000007   0.000029
     3  P   -0.024683   0.332817  -0.021178  -0.025459  -0.024702   0.314465
     4  C   -0.000000  -0.000000   0.000000   0.000000   0.000000  -0.000000
     5  H    0.000000   0.000000  -0.000000   0.000000   0.000000   0.000000
     6  H    0.000000   0.000000  -0.000000  -0.000000  -0.000000  -0.000000
     7  H    0.000000   0.000000  -0.000000  -0.000000   0.000000   0.000000
     8  C    0.000000   0.000000   0.000000  -0.000000  -0.000000  -0.000000
     9  H    0.000000  -0.000000  -0.000000   0.000000   0.000000   0.000000
    10  H    0.000000   0.000000  -0.000000  -0.000000  -0.000000   0.000000
    11  H    0.000000  -0.000000  -0.000000   0.000000   0.000000   0.000000
    12  C    0.000000  -0.000001   0.000000  -0.000000   0.000000  -0.000000
    13  H    0.000000   0.000000  -0.000000   0.000000  -0.000000  -0.000000
    14  H   -0.000000   0.000000  -0.000000   0.000000  -0.000000   0.000000
    15  H   -0.000000   0.000000   0.000000   0.000000   0.000000  -0.000000
    16  C    0.365286  -0.038266  -0.002927   0.002084  -0.001783  -0.042630
    17  H   -0.022678   0.002174  -0.000037  -0.000042   0.000003  -0.001329
    18  H   -0.025819  -0.003742   0.002453  -0.000037  -0.000263  -0.003800
    19  H    0.490805  -0.001372  -0.000262   0.000000   0.000861   0.002145
    20  C   -0.001372   5.330815   0.349878   0.367227   0.364022  -0.030659
    21  H   -0.000262   0.349878   0.540490  -0.026084  -0.026570  -0.005703
    22  H    0.000000   0.367227  -0.026084   0.495592  -0.022871  -0.001053
    23  H    0.000861   0.364022  -0.026570  -0.022871   0.500065   0.002323
    24  C    0.002145  -0.030659  -0.005703  -0.001053   0.002323   5.362095
    25  H   -0.000041  -0.001008  -0.000337   0.000858   0.000010   0.373202
    26  H   -0.000039  -0.005486   0.003639  -0.000368  -0.000075   0.332328
    27  H    0.000002   0.002235  -0.000058   0.000009  -0.000041   0.370103
    28  H   -0.000213   0.000095  -0.000006   0.000002   0.000042   0.000426
    29  H   -0.000049  -0.000315  -0.000027   0.000062   0.000621   0.000226
              25         26         27         28         29
     1  Pt  -0.002895   0.014174  -0.001728   0.283227   0.283228
     2  P   -0.000017   0.000000  -0.000016  -0.013736  -0.019794
     3  P   -0.027315  -0.020173  -0.026733  -0.019829  -0.013779
     4  C    0.000000  -0.000000   0.000000   0.000226   0.000428
     5  H    0.000000  -0.000000   0.000000   0.000005   0.000009
     6  H   -0.000000   0.000000  -0.000000  -0.000007  -0.000020
     7  H    0.000000  -0.000000   0.000000   0.000005   0.000074
     8  C    0.000000   0.000000   0.000000  -0.000305   0.000098
     9  H    0.000000  -0.000000   0.000000   0.000616   0.000041
    10  H   -0.000000  -0.000000  -0.000000  -0.000028  -0.000006
    11  H    0.000000  -0.000000  -0.000000   0.000062   0.000002
    12  C   -0.000000   0.000000  -0.000000  -0.001944  -0.003315
    13  H    0.000000   0.000000   0.000000   0.000020   0.000151
    14  H    0.000000  -0.000000   0.000000   0.000018   0.000113
    15  H    0.000000   0.000000   0.000000  -0.000050  -0.000215
    16  C    0.002024  -0.002525  -0.001598  -0.003294  -0.001924
    17  H    0.000005  -0.000282   0.000890   0.000146   0.000020
    18  H   -0.000032   0.002357  -0.000244   0.000113   0.000017
    19  H   -0.000041  -0.000039   0.000002  -0.000213  -0.000049
    20  C   -0.001008  -0.005486   0.002235   0.000095  -0.000315
    21  H   -0.000337   0.003639  -0.000058  -0.000006  -0.000027
    22  H    0.000858  -0.000368   0.000009   0.000002   0.000062
    23  H    0.000010  -0.000075  -0.000041   0.000042   0.000621
    24  C    0.373202   0.332328   0.370103   0.000426   0.000226
    25  H    0.496743  -0.028487  -0.022177   0.000009   0.000005
    26  H   -0.028487   0.570409  -0.028854  -0.000020  -0.000007
    27  H   -0.022177  -0.028854   0.506964   0.000073   0.000005
    28  H    0.000009  -0.000020   0.000073   0.632976   0.032567
    29  H    0.000005  -0.000007   0.000005   0.032567   0.632987
 Mulliken charges:
               1
     1  Pt  -1.151624
     2  P    0.673255
     3  P    0.673336
     4  C   -0.641176
     5  H    0.209490
     6  H    0.163484
     7  H    0.201161
     8  C   -0.655058
     9  H    0.205901
    10  H    0.178557
    11  H    0.209336
    12  C   -0.654745
    13  H    0.205612
    14  H    0.178153
    15  H    0.213009
    16  C   -0.654825
    17  H    0.205605
    18  H    0.178188
    19  H    0.213031
    20  C   -0.655090
    21  H    0.178605
    22  H    0.209328
    23  H    0.205932
    24  C   -0.641094
    25  H    0.209454
    26  H    0.163409
    27  H    0.201168
    28  H    0.088802
    29  H    0.088797
 Sum of Mulliken charges =  -0.00000
 Mulliken charges with hydrogens summed into heavy atoms:
               1
     1  Pt  -0.974025
     2  P    0.673255
     3  P    0.673336
     4  C   -0.067040
     8  C   -0.061264
    12  C   -0.057971
    16  C   -0.058001
    20  C   -0.061225
    24  C   -0.067063
 Electronic spatial extent (au):  <R**2>=           3361.8217
 Charge=             -0.0000 electrons
 Dipole moment (field-independent basis, Debye):
    X=             -0.0002    Y=              0.1417    Z=              0.0008  Tot=              0.1417
 Quadrupole moment (field-independent basis, Debye-Ang):
   XX=            -69.8236   YY=            -99.4478   ZZ=            -91.9146
   XY=             -0.0063   XZ=             -0.5571   YZ=              0.0237
 Traceless Quadrupole moment (field-independent basis, Debye-Ang):
   XX=             17.2384   YY=            -12.3858   ZZ=             -4.8526
   XY=             -0.0063   XZ=             -0.5571   YZ=              0.0237
 Octapole moment (field-independent basis, Debye-Ang**2):
  XXX=             -0.0027  YYY=             -9.9906  ZZZ=              0.0038  XYY=              0.0176
  XXY=              2.9916  XXZ=             -0.0168  XZZ=             -0.0188  YZZ=             -2.4895
  YYZ=              0.0100  XYZ=              1.2353
 Hexadecapole moment (field-independent basis, Debye-Ang**3):
 XXXX=          -3201.6645 YYYY=           -641.5892 ZZZZ=           -557.1462 XXXY=             -0.1338
 XXXZ=            -12.1481 YYYX=             -0.1074 YYYZ=              0.1181 ZZZX=              2.9946
 ZZZY=              0.1077 XXYY=           -665.8273 XXZZ=           -652.6819 YYZZ=           -199.2550
 XXYZ=              0.0509 YYXZ=             -5.7660 ZZXY=              0.0811
 N-N= 8.146076976736D+02 E-N=-4.056543284748D+03  KE= 9.603177444854D+02
 No NMR shielding tensors so no spin-rotation constants.
 Leave Link  601 at Wed Oct 30 15:18:14 2019, MaxMem=   140000000 cpu:               6.4 elap:               0.3
 (Enter /usr/g16/l108.exe)
 Variable Step   Value    
 -------- ---- -----------
    79       1    2.058645
    80       0    3.477096
 Leave Link  108 at Wed Oct 30 15:18:14 2019, MaxMem=   140000000 cpu:               1.4 elap:               0.1
 (Enter /usr/g16/l202.exe)
 ---------------------------------------------------------------------------------------------------
                            Z-MATRIX (ANGSTROMS AND DEGREES)
   CD    Cent   Atom    N1       Length/X        N2       Alpha/Y        N3        Beta/Z          J
 ---------------------------------------------------------------------------------------------------
      1      1  Pt
      2      2  P        1   2.278808(     1)
      3      3  P        1   2.278817(     2)      2  179.979(    29)
      4      4  C        2   1.845358(     3)      1  116.245(    30)      3    3.707(    56)      0
      5      5  H        4   1.095106(     4)      2  109.388(    31)      1   59.060(    57)      0
      6      6  H        4   1.097352(     5)      2  111.547(    32)      1  179.986(    58)      0
      7      7  H        4   1.095108(     6)      2  109.405(    33)      1  -59.077(    59)      0
      8      8  C        2   1.845420(     7)      1  116.263(    34)      3  123.690(    60)      0
      9      9  H        8   1.095113(     8)      2  109.408(    35)      1   59.047(    61)      0
     10     10  H        8   1.097331(     9)      2  111.545(    36)      1  179.982(    62)      0
     11     11  H        8   1.095118(    10)      2  109.403(    37)      1  -59.095(    63)      0
     12     12  C        2   1.845396(    11)      1  116.258(    38)      3 -116.299(    64)      0
     13     13  H       12   1.095126(    12)      2  109.403(    39)      1   59.051(    65)      0
     14     14  H       12   1.097353(    13)      2  111.550(    40)      1  179.983(    66)      0
     15     15  H       12   1.095115(    14)      2  109.399(    41)      1  -59.085(    67)      0
     16     16  C        3   1.845352(    15)      1  116.266(    42)      2  176.361(    68)      0
     17     17  H       16   1.095109(    16)      3  109.402(    43)      1   59.075(    69)      0
     18     18  H       16   1.097349(    17)      3  111.549(    44)      1 -179.988(    70)      0
     19     19  H       16   1.095105(    18)      3  109.390(    45)      1  -59.061(    71)      0
     20     20  C        3   1.845407(    19)      1  116.246(    46)      2   56.367(    72)      0
     21     21  H       20   1.097333(    20)      3  111.548(    47)      1 -179.980(    73)      0
     22     22  H       20   1.095112(    21)      3  109.404(    48)      1  -59.046(    74)      0
     23     23  H       20   1.095115(    22)      3  109.405(    49)      1   59.094(    75)      0
     24     24  C        3   1.845401(    23)      1  116.250(    50)      2  -63.622(    76)      0
     25     25  H       24   1.095113(    24)      3  109.399(    51)      1   59.039(    77)      0
     26     26  H       24   1.097353(    25)      3  111.549(    52)      1  179.971(    78)      0
     27     27  H       24   1.095126(    26)      3  109.403(    53)      1  -59.098(    79)      0
     28     28  H        1   1.840000(    27)      2   90.011(    54)      4 -176.196(    80)      0
     29     29  H        1   1.840000(    28)      2   90.000(    55)      4  117.952(    81)      0
 ---------------------------------------------------------------------------------------------------
                         Z-Matrix orientation:                         
 ---------------------------------------------------------------------
 Center     Atomic      Atomic             Coordinates (Angstroms)
 Number     Number       Type             X           Y           Z
 ---------------------------------------------------------------------
      1         78           0        0.000000    0.000000    0.000000
      2         15           0        0.000000    0.000000    2.278808
      3         15           0        0.000842    0.000000   -2.278817
      4          6           0        1.651663    0.107003    3.094839
      5          1           0        2.154127    1.027429    2.779240
      6          1           0        1.561965    0.101449    4.188504
      7          1           0        2.268833   -0.740952    2.779665
      8          6           0       -0.917985    1.376972    3.095403
      9          1           0       -1.966421    1.352746    2.780019
     10          1           0       -0.868181    1.301691    4.189015
     11          1           0       -0.491769    2.335378    2.780629
     12          6           0       -0.733254   -1.483662    3.095247
     13          1           0       -0.187773   -2.379350    2.779818
     14          1           0       -0.693074   -1.403052    4.188897
     15          1           0       -1.776273   -1.593938    2.780241
     16          6           0       -1.650337   -0.105034   -3.096068
     17          1           0       -2.266702    0.743645   -2.781266
     18          1           0       -1.559858   -0.099514   -4.189667
     19          1           0       -2.154140   -1.024874   -2.780896
     20          6           0        0.917881   -1.378089   -3.094561
     21          1           0        0.868795   -1.303060   -4.188225
     22          1           0        1.966149   -1.354780   -2.778553
     23          1           0        0.490562   -2.335995   -2.779773
     24          6           0        0.736491    1.482759   -3.094752
     25          1           0        1.779277    1.592049   -2.778644
     26          1           0        0.697395    1.401950   -4.188427
     27          1           0        0.191570    2.379062   -2.780102
     28          1           0       -1.839997    0.003123   -0.000340
     29          1           0       -0.755574   -1.677709    0.000011
 ---------------------------------------------------------------------
                    Distance matrix (angstroms):
                    1          2          3          4          5
     1  Pt   0.000000
     2  P    2.278808   0.000000
     3  P    2.278817   4.557625   0.000000
     4  C    3.509625   1.845358   5.622529   0.000000
     5  H    3.663338   2.438505   5.592512   1.095106   0.000000
     6  H    4.471420   2.469204   6.653844   1.097352   1.787210
     7  H    3.663762   2.438744   5.592945   1.095108   1.772097
     8  C    3.510024   1.845420   5.623392   2.866341   3.108056
     9  H    3.664047   2.438841   5.593913   3.839468   4.133370
    10  H    4.471687   2.469217   6.654506   2.995683   3.346197
    11  H    3.664386   2.438780   5.594162   3.107842   2.951525
    12  C    3.509910   1.845396   5.623230   2.866713   3.839584
    13  H    3.663871   2.438765   5.593449   3.108811   4.134082
    14  H    4.471662   2.469280   6.654427   2.995833   4.000115
    15  H    3.664086   2.438692   5.594001   3.839650   4.724363
    16  C    3.510026   5.623517   1.845352   7.019650   7.090534
    17  H    3.664203   5.594219   2.438692   7.091368   7.109394
    18  H    4.471730   6.654640   2.469218   7.963701   7.976801
    19  H    3.663887   5.593862   2.438524   7.091511   7.327225
    20  C    3.509692   5.622697   1.845407   6.407230   6.466557
    21  H    4.471465   6.653968   2.469240   7.459502   7.458474
    22  H    3.663540   5.592680   2.438769   6.060729   6.049737
    23  H    3.663969   5.593458   2.438782   6.467415   6.706914
    24  C    3.509770   5.622824   1.845401   6.406347   6.059769
    25  H    3.663511   5.592698   2.438704   6.059657   5.599052
    26  H    4.471548   6.654093   2.469263   7.458785   7.128164
    27  H    3.664097   5.593676   2.438770   6.465992   6.048539
    28  H    1.840000   2.929184   2.929190   4.667185   4.972756
    29  H    1.840000   2.928910   2.929152   4.307893   4.848530
                    6          7          8          9         10
     6  H    0.000000
     7  H    1.787213   0.000000
     8  C    2.995327   3.839415   0.000000
     9  H    3.999886   4.724505   1.095113   0.000000
    10  H    2.710387   3.999940   1.097331   1.787179   0.000000
    11  H    3.345202   4.133368   1.095118   1.772051   1.787105
    12  C    2.995967   3.108655   2.866593   3.108904   2.995452
    13  H    3.346691   2.952839   3.839630   4.134263   3.999857
    14  H    2.710853   3.346222   2.995805   3.346755   2.710406
    15  H    4.000172   4.134062   3.108423   2.952813   3.345735
    16  C    7.964077   7.091440   6.408354   6.062461   7.460770
    17  H    7.978020   7.327964   6.062621   5.602594   7.131065
    18  H    8.943149   7.977587   7.460848   7.130980   8.523151
    19  H    7.978132   7.110776   6.467444   6.050793   7.459642
    20  C    7.459686   6.061150   7.019716   7.091357   7.963775
    21  H    8.521897   7.129345   7.964069   7.977981   8.943152
    22  H    7.129085   5.600195   7.091125   7.327587   7.977298
    23  H    7.459620   6.050931   7.091391   7.110195   7.977654
[...]
 ---------------------------------------------------------------------------------------------------
                         Z-Matrix orientation:                         
 ---------------------------------------------------------------------
 Center     Atomic      Atomic             Coordinates (Angstroms)
 Number     Number       Type             X           Y           Z
 ---------------------------------------------------------------------
      1         78           0        0.000000    0.000000    0.000000
      2         15           0        0.000000    0.000000    2.278808
      3         15           0        0.000842    0.000000   -2.278817
      4          6           0        1.651663    0.107003    3.094839
      5          1           0        2.154127    1.027429    2.779240
      6          1           0        1.561965    0.101449    4.188504
      7          1           0        2.268833   -0.740952    2.779665
      8          6           0       -0.917985    1.376972    3.095403
      9          1           0       -1.966421    1.352746    2.780019
     10          1           0       -0.868181    1.301691    4.189015
     11          1           0       -0.491769    2.335378    2.780629
     12          6           0       -0.733254   -1.483662    3.095247
     13          1           0       -0.187773   -2.379350    2.779818
     14          1           0       -0.693074   -1.403052    4.188897
     15          1           0       -1.776273   -1.593938    2.780241
     16          6           0       -1.650337   -0.105034   -3.096068
     17          1           0       -2.266702    0.743645   -2.781266
     18          1           0       -1.559858   -0.099514   -4.189667
     19          1           0       -2.154140   -1.024874   -2.780896
     20          6           0        0.917881   -1.378089   -3.094561
     21          1           0        0.868795   -1.303060   -4.188225
     22          1           0        1.966149   -1.354780   -2.778553
     23          1           0        0.490562   -2.335995   -2.779773
     24          6           0        0.736491    1.482759   -3.094752
     25          1           0        1.779277    1.592049   -2.778644
     26          1           0        0.697395    1.401950   -4.188427
     27          1           0        0.191570    2.379062   -2.780102
     28          1           0       -1.899997    0.003225   -0.000351
     29          1           0       -0.957026   -1.641372    0.000012
 ---------------------------------------------------------------------
                    Distance matrix (angstroms):
                    1          2          3          4          5
     1  Pt   0.000000
     2  P    2.278808   0.000000
     3  P    2.278817   4.557625   0.000000
     4  C    3.509625   1.845358   5.622529   0.000000
     5  H    3.663338   2.438505   5.592512   1.095106   0.000000
     6  H    4.471420   2.469204   6.653844   1.097352   1.787210
     7  H    3.663762   2.438744   5.592945   1.095108   1.772097
     8  C    3.510024   1.845420   5.623392   2.866341   3.108056
     9  H    3.664047   2.438841   5.593913   3.839468   4.133370
    10  H    4.471687   2.469217   6.654506   2.995683   3.346197
    11  H    3.664386   2.438780   5.594162   3.107842   2.951525
    12  C    3.509910   1.845396   5.623230   2.866713   3.839584
    13  H    3.663871   2.438765   5.593449   3.108811   4.134082
    14  H    4.471662   2.469280   6.654427   2.995833   4.000115
    15  H    3.664086   2.438692   5.594001   3.839650   4.724363
    16  C    3.510026   5.623517   1.845352   7.019650   7.090534
    17  H    3.664203   5.594219   2.438692   7.091368   7.109394
    18  H    4.471730   6.654640   2.469218   7.963701   7.976801
    19  H    3.663887   5.593862   2.438524   7.091511   7.327225
    20  C    3.509692   5.622697   1.845407   6.407230   6.466557
    21  H    4.471465   6.653968   2.469240   7.459502   7.458474
    22  H    3.663540   5.592680   2.438769   6.060729   6.049737
    23  H    3.663969   5.593458   2.438782   6.467415   6.706914
    24  C    3.509770   5.622824   1.845401   6.406347   6.059769
    25  H    3.663511   5.592698   2.438704   6.059657   5.599052
    26  H    4.471548   6.654093   2.469263   7.458785   7.128164
    27  H    3.664097   5.593676   2.438770   6.465992   6.048539
    28  H    1.900000   2.967249   2.967256   4.712246   5.021060
    29  H    1.900000   2.966970   2.967267   4.409084   4.952361
                    6          7          8          9         10
     6  H    0.000000
     7  H    1.787213   0.000000
     8  C    2.995327   3.839415   0.000000
     9  H    3.999886   4.724505   1.095113   0.000000
    10  H    2.710387   3.999940   1.097331   1.787179   0.000000
    11  H    3.345202   4.133368   1.095118   1.772051   1.787105
    12  C    2.995967   3.108655   2.866593   3.108904   2.995452
    13  H    3.346691   2.952839   3.839630   4.134263   3.999857
    14  H    2.710853   3.346222   2.995805   3.346755   2.710406
    15  H    4.000172   4.134062   3.108423   2.952813   3.345735
    16  C    7.964077   7.091440   6.408354   6.062461   7.460770
    17  H    7.978020   7.327964   6.062621   5.602594   7.131065
    18  H    8.943149   7.977587   7.460848   7.130980   8.523151
    19  H    7.978132   7.110776   6.467444   6.050793   7.459642
    20  C    7.459686   6.061150   7.019716   7.091357   7.963775
    21  H    8.521897   7.129345   7.964069   7.977981   8.943152
    22  H    7.129085   5.600195   7.091125   7.327587   7.977298
    23  H    7.459620   6.050931   7.091391   7.110195   7.977654
    24  C    7.458904   6.465427   6.408315   6.468043   7.460632
    25  H    7.128132   6.047922   6.467295   6.707179   7.459331
    26  H    8.521254   7.457597   7.460848   7.460401   8.523064
    27  H    7.458350   6.705261   6.062743   6.051876   7.131087
    28  H    5.435195   5.065712   3.526361   3.091291   4.505713
    29  H    5.189047   4.352401   4.323583   4.208570   5.120280
                   11         12         13         14         15
    11  H    0.000000
    12  C    3.839579   0.000000
    13  H    4.724518   1.095126   0.000000
    14  H    3.999950   1.097353   1.787174   0.000000
    15  H    4.133942   1.095115   1.772062   1.787196   0.000000
    16  C    6.467879   6.408903   6.468203   7.461362   6.063309
    17  H    6.051336   6.468830   6.708256   7.461084   6.052700
    18  H    7.460197   7.461174   7.460160   8.523547   7.131603
    19  H    6.707111   6.062876   6.051673   7.131322   5.602934
    20  C    7.091883   6.407114   6.060802   7.459528   6.466711
    21  H    7.978364   7.459768   7.129401   8.522066   7.459257
    22  H    7.110776   6.465672   6.048521   7.457825   6.705454
    23  H    7.328354   6.061358   5.600989   7.129778   6.050037
    24  C    6.062647   7.019679   7.090890   7.963863   7.091939
    25  H    6.051091   7.090515   7.108994   7.976827   7.327596
    26  H    7.131139   7.964008   7.977355   8.943209   7.978516
    27  H    5.602731   7.091944   7.327967   7.978341   7.111579
    28  H    3.893057   3.626962   4.041994   4.580838   3.209040
    29  H    4.874714   3.107318   2.977194   4.203954   2.898809
                   16         17         18         19         20
    16  C    0.000000
    17  H    1.095109   0.000000
    18  H    1.097349   1.787216   0.000000
    19  H    1.095105   1.772098   1.787204   0.000000
    20  C    2.866428   3.839463   2.995530   3.108127   0.000000
    21  H    2.995680   3.999985   2.710513   3.346057   1.097333
    22  H    3.839486   4.724450   3.999957   4.133476   1.095112
    23  H    3.108163   4.133605   3.345724   2.951862   1.095115
    24  C    2.866712   3.108655   2.995938   3.839594   2.866593
    25  H    3.839675   4.133975   4.000274   4.724411   3.108622
    26  H    2.996013   3.346541   2.711012   4.000233   2.995625
    27  H    3.108567   2.952574   3.346298   4.133901   3.839608
    28  H    3.107654   2.901065   4.204357   2.975400   4.407107
    29  H    3.525156   3.890895   4.504902   3.089757   3.627805
                   21         22         23         24         25
    21  H    0.000000
    22  H    1.787187   0.000000
    23  H    1.787107   1.772044   0.000000
    24  C    2.995660   3.108644   3.839607   0.000000
    25  H    3.346275   2.952749   4.134044   1.095113   0.000000
    26  H    2.710435   3.346198   3.999915   1.097353   1.787204
    27  H    3.999934   4.134091   4.724528   1.095126   1.772062
    28  H    5.187570   4.950724   4.348783   4.326131   4.876508
    29  H    4.581419   4.043205   3.210174   4.712299   5.065895
                   26         27         28         29
    26  H    0.000000
    27  H    1.787172   0.000000
    28  H    5.122778   4.212632   0.000000
    29  H    5.435249   5.021175   1.895757   0.000000
 Stoichiometry    C6H20P2Pt
 Framework group  C1[X(C6H20P2Pt)]
 Deg. of freedom    81
 Full point group                 C1      NOp   1
 RotChk:  IX=0 Diff= 2.48D-02
 Largest Abelian subgroup         C1      NOp   1
 Largest concise Abelian subgroup C1      NOp   1
                         Standard orientation:                         
 ---------------------------------------------------------------------
 Center     Atomic      Atomic             Coordinates (Angstroms)
 Number     Number       Type             X           Y           Z
 ---------------------------------------------------------------------
      1         78           0       -0.000007   -0.019798   -0.000118
      2         15           0        2.278801   -0.020142    0.000176
      3         15           0       -2.278824   -0.020184    0.000008
      4          6           0        3.094513   -1.504590    0.732549
      5          1           0        2.778850   -2.399573    0.186089
      6          1           0        4.188196   -1.424274    0.692700
      7          1           0        2.779188   -1.615680    1.775378
      8          6           0        3.095625    0.087244   -1.651140
      9          1           0        2.780445    1.007680   -2.153863
     10          1           0        4.189225    0.081533   -1.560905
     11          1           0        2.780803   -0.760653   -2.268588
     12          6           0        3.095329    1.356028    0.919374
     13          1           0        2.779761    1.330886    1.967747
     14          1           0        4.188974    1.280791    0.869749
     15          1           0        2.780523    2.314752    0.493904
     16          6           0       -3.095757    1.462863   -0.733829
     17          1           0       -2.780803    1.572893   -1.776883
     18          1           0       -4.189373    1.381886   -0.693561
     19          1           0       -2.780520    2.358712   -0.188545
     20          6           0       -3.094797   -0.126192    1.651818
     21          1           0       -4.188449   -0.120977    1.562161
     22          1           0       -2.778993   -1.046025    2.155252
     23          1           0       -2.779961    0.722411    2.268283
     24          6           0       -3.094849   -1.397978   -0.917211
     25          1           0       -2.778940   -2.356007   -0.491004
     26          1           0       -4.188519   -1.323580   -0.866873
     27          1           0       -2.780060   -1.373629   -1.965838
     28          1           0        0.000013    1.624610   -0.951918
     29          1           0        0.000132    1.629127    0.943834
 ---------------------------------------------------------------------
 Rotational constants (GHZ):           1.7538240           0.3734524           0.3724486
 Leave Link  202 at Wed Oct 30 15:30:46 2019, MaxMem=   140000000 cpu:               2.6 elap:               0.1
 (Enter /usr/g16/l301.exe)
 Basis read from rwf:  (5D, 7F)
 Pseudo-potential data read from rwf file.
 There are   207 symmetry adapted cartesian basis functions of A   symmetry.
 There are   196 symmetry adapted basis functions of A   symmetry.
   196 basis functions,   417 primitive gaussians,   207 cartesian basis functions
    52 alpha electrons       52 beta electrons
       nuclear repulsion energy       814.1465150066 Hartrees.
 IExCor=  402 DFT=T Ex+Corr=B3LYP ExCW=0 ScaHFX=  0.200000
 ScaDFX=  0.800000  0.720000  1.000000  0.810000 ScalE2=  1.000000  1.000000
 IRadAn=      5 IRanWt=     -1 IRanGd=            0 ICorTp=0 IEmpDi=141
 NAtoms=   29 NActive=   29 NUniq=   29 SFac= 1.00D+00 NAtFMM=   60 NAOKFM=F Big=F
 Integral buffers will be    131072 words long.
 Raffenetti 2 integral format.
 Two-electron integral symmetry is turned on.
 R6Disp:  Grimme-D3(BJ) Dispersion energy=       -0.0610582922 Hartrees.
 Nuclear repulsion after empirical dispersion term =      814.0854567144 Hartrees.
 No density basis found on file   724.
 ------------------------------------------------------------------------------
 Polarizable Continuum Model (PCM)
 =================================
 Model                : PCM.
 Atomic radii         : SMD-Coulomb.
 Polarization charges : Total charges.
 Charge compensation  : None.
 Solution method      : On-the-fly selection.
 Cavity type          : VdW (van der Waals Surface) (Alpha=1.000).
 Cavity algorithm     : GePol (No added spheres)
                        Default sphere list used, NSphG=   29.
                        Lebedev-Laikov grids with approx.  5.0 points / Ang**2.
                        Smoothing algorithm: York/Karplus (Gamma=1.0000).
                        Polarization charges: spherical gaussians, with
                                              point-specific exponents (IZeta= 3).
                        Self-potential: point-specific (ISelfS= 7).
                        Self-field    : sphere-specific E.n sum rule (ISelfD= 2).
 Solvent              : Benzene, Eps=   2.270600 Eps(inf)=   2.253301
 ------------------------------------------------------------------------------
 GePol: Number of generator spheres                  =      29
 GePol: Total number of spheres                      =      29
 GePol: Number of exposed spheres                    =      29 (100.00%)
 GePol: Number of points                             =    2148
 GePol: Average weight of points                     =       0.12
 GePol: Minimum weight of points                     =   0.10D-09
 GePol: Maximum weight of points                     =    0.22001
 GePol: Number of points with low weight             =     113
 GePol: Fraction of low-weight points (<1% of avg)   =       5.26%
 GePol: Cavity surface area                          =    256.790 Ang**2
 GePol: Cavity volume                                =    210.851 Ang**3
 ------------------------------------------------------------------------------
 Atomic radii for non-electrostatic terms: SMD-CDS.
 ------------------------------------------------------------------------------
 PCM non-electrostatic energy =         0.0000502864 Hartrees.
 Nuclear repulsion after PCM non-electrostatic terms =      814.0855070008 Hartrees.
 Leave Link  301 at Wed Oct 30 15:30:46 2019, MaxMem=   140000000 cpu:               6.0 elap:               0.3
 (Enter /usr/g16/l302.exe)
 NPDir=0 NMtPBC=     1 NCelOv=     1 NCel=       1 NClECP=     1 NCelD=      1
         NCelK=      1 NCelE2=     1 NClLst=     1 CellRange=     0.0.
 One-electron integrals computed using PRISM.
 One-electron integral symmetry used in STVInt
   1 Symmetry operations used in ECPInt.
 ECPInt:  NShTT=    3916 NPrTT=   20546 LenC2=    3685 LenP2D=   12933.
 LDataN:  DoStor=T MaxTD1= 7 Len=  274
 Number of processors reduced to  20 by ecpmxn.
 NBasis=   196 RedAO= T EigKep=  1.26D-03  NBF=   196
 NBsUse=   196 1.00D-06 EigRej= -1.00D+00 NBFU=   196
 Precomputing XC quadrature grid using
 IXCGrd= 4 IRadAn=           5 IRanWt=          -1 IRanGd=           0 AccXCQ= 0.00D+00.
 Defaulting to unpruned grid for atomic number  78.
 Generated NRdTot=       0 NPtTot=           0 NUsed=           0 NTot=          32
 NSgBfM=   207   207   207   207   207 MxSgAt=    29 MxSgA2=    29.
 Leave Link  302 at Wed Oct 30 15:30:47 2019, MaxMem=   140000000 cpu:              17.7 elap:               0.8
 (Enter /usr/g16/l303.exe)
 DipDrv:  MaxL=1.
 Leave Link  303 at Wed Oct 30 15:30:47 2019, MaxMem=   140000000 cpu:               4.7 elap:               0.2
 (Enter /usr/g16/l401.exe)
 Initial guess from the checkpoint file:  "Pt_ts2.chk"
 B after Tr=    -0.000000   -0.000000    0.000000
         Rot=    0.999964   -0.008435   -0.000000    0.000000 Ang=  -0.97 deg.
 Guess basis will be translated and rotated to current coordinates.
 JPrj=2 DoOrth=T DoCkMO=T.
 Generating alternative initial guess.
 ExpMin= 1.50D-02 ExpMax= 1.94D+04 ExpMxC= 2.91D+03 IAcc=3 IRadAn=         5 AccDes= 0.00D+00
 Harris functional with IExCor=  402 and IRadAn=       5 diagonalized for initial guess.
 HarFok:  IExCor=  402 AccDes= 0.00D+00 IRadAn=         5 IDoV= 1 UseB2=F ITyADJ=14
 ICtDFT=  3500011 ScaDFX=  1.000000  1.000000  1.000000  1.000000
 Defaulting to unpruned grid for atomic number  78.
 FoFCou: FMM=F IPFlag=           0 FMFlag=      100000 FMFlg1=           0
         NFxFlg=           0 DoJE=T BraDBF=F KetDBF=T FulRan=T
         wScrn=  0.000000 ICntrl=       500 IOpCl=  0 I1Cent=   200000004 NGrid=           0
         NMat0=    1 NMatS0=      1 NMatT0=    0 NMatD0=    1 NMtDS0=    0 NMtDT0=    0
 Petite list used in FoFCou.
 Harris En= -1042.62423816539    
 Leave Link  401 at Wed Oct 30 15:30:50 2019, MaxMem=   140000000 cpu:              50.8 elap:               2.2
 (Enter /usr/g16/l502.exe)
 Integral symmetry usage will be decided dynamically.
 Closed shell SCF:
 Using DIIS extrapolation, IDIIS=  1040.
 NGot=   140000000 LenX=   139906737 LenY=   139863447
 Requested convergence on RMS density matrix=1.00D-08 within 128 cycles.
 Requested convergence on MAX density matrix=1.00D-06.
 Requested convergence on             energy=1.00D-06.
 No special actions if energy rises.
 Fock matrices will be formed incrementally for  20 cycles.

 Cycle   1  Pass 1  IDiag  1:
 FoFJK:  IHMeth= 1 ICntrl=       0 DoSepK=F KAlg= 0 I1Cent=           0 FoldK=F
 IRaf= 900000000 NMat=       1 IRICut=       1 DoRegI=T DoRafI=F ISym2E= 0 IDoP0=0 IntGTp=1.
 FoFCou: FMM=F IPFlag=           0 FMFlag=      100000 FMFlg1=           0
         NFxFlg=           0 DoJE=F BraDBF=F KetDBF=F FulRan=T
         wScrn=  0.000000 ICntrl=         0 IOpCl=  0 I1Cent=           0 NGrid=           0
         NMat0=    1 NMatS0=      1 NMatT0=    0 NMatD0=    1 NMtDS0=    0 NMtDT0=    0
 Symmetry not used in FoFCou.
 Defaulting to unpruned grid for atomic number  78.
 Defaulting to unpruned grid for atomic number  78.
 Defaulting to unpruned grid for atomic number  78.
 Defaulting to unpruned grid for atomic number  78.
 Defaulting to unpruned grid for atomic number  78.
 Defaulting to unpruned grid for atomic number  78.
 Defaulting to unpruned grid for atomic number  78.
 Defaulting to unpruned grid for atomic number  78.
 Defaulting to unpruned grid for atomic number  78.
 Defaulting to unpruned grid for atomic number  78.
 Defaulting to unpruned grid for atomic number  78.
 Defaulting to unpruned grid for atomic number  78.
 Defaulting to unpruned grid for atomic number  78.
 Defaulting to unpruned grid for atomic number  78.
 Defaulting to unpruned grid for atomic number  78.
 Defaulting to unpruned grid for atomic number  78.
 Defaulting to unpruned grid for atomic number  78.
 Defaulting to unpruned grid for atomic number  78.
 Defaulting to unpruned grid for atomic number  78.
 Defaulting to unpruned grid for atomic number  78.
 Defaulting to unpruned grid for atomic number  78.
 Defaulting to unpruned grid for atomic number  78.
 Defaulting to unpruned grid for atomic number  78.
 Defaulting to unpruned grid for atomic number  78.
 Inv3:  Mode=1 IEnd=    13841712.
