 Entering Gaussian System, Link 0=g16
 Input=Pt_tsb_freq.gjf
 Output=Pt_tsb_freq.log
 Initial command:
 /usr/g16/l1.exe "/scratch/wsr/gaussian/Gau-205005.inp" -scrdir="/scratch/wsr/gaussian/"
 Entering Link 1 = /usr/g16/l1.exe PID=    205006.
  
 Copyright (c) 1988,1990,1992,1993,1995,1998,2003,2009,2016,
            Gaussian, Inc.  All Rights Reserved.
  
 This is part of the Gaussian(R) 16 program.  It is based on
 the Gaussian(R) 09 system (copyright 2009, Gaussian, Inc.),
 the Gaussian(R) 03 system (copyright 2003, Gaussian, Inc.),
 the Gaussian(R) 98 system (copyright 1998, Gaussian, Inc.),
 the Gaussian(R) 94 system (copyright 1995, Gaussian, Inc.),
 the Gaussian 92(TM) system (copyright 1992, Gaussian, Inc.),
 the Gaussian 90(TM) system (copyright 1990, Gaussian, Inc.),
 the Gaussian 88(TM) system (copyright 1988, Gaussian, Inc.),
 the Gaussian 86(TM) system (copyright 1986, Carnegie Mellon
 University), and the Gaussian 82(TM) system (copyright 1983,
 Carnegie Mellon University). Gaussian is a federally registered
 trademark of Gaussian, Inc.
  
 This software contains proprietary and confidential information,
 including trade secrets, belonging to Gaussian, Inc.
  
 This software is provided under written license and may be
 used, copied, transmitted, or stored only in accord with that
 written license.
  
 The following legend is applicable only to US Government
 contracts under FAR:
  
                    RESTRICTED RIGHTS LEGEND
  
 Use, reproduction and disclosure by the US Government is
 subject to restrictions as set forth in subparagraphs (a)
 and (c) of the Commercial Computer Software - Restricted
 Rights clause in FAR 52.227-19.
  
 Gaussian, Inc.
 340 Quinnipiac St., Bldg. 40, Wallingford CT 06492
  
  
 ---------------------------------------------------------------
 Warning -- This program may not be used in any manner that
 competes with the business of Gaussian, Inc. or will provide
 assistance to any competitor of Gaussian, Inc.  The licensee
 of this program is prohibited from giving any competitor of
 Gaussian, Inc. access to this program.  By using this program,
 the user acknowledges that Gaussian, Inc. is engaged in the
 business of creating and licensing software in the field of
 computational chemistry and represents and warrants to the
 licensee that it is not a competitor of Gaussian, Inc. and that
 it will not use this program in any manner prohibited above.
 ---------------------------------------------------------------
  

 Cite this work as:
 Gaussian 16, Revision A.03,
 M. J. Frisch, G. W. Trucks, H. B. Schlegel, G. E. Scuseria, 
 M. A. Robb, J. R. Cheeseman, G. Scalmani, V. Barone, 
 G. A. Petersson, H. Nakatsuji, X. Li, M. Caricato, A. V. Marenich, 
 J. Bloino, B. G. Janesko, R. Gomperts, B. Mennucci, H. P. Hratchian, 
 J. V. Ortiz, A. F. Izmaylov, J. L. Sonnenberg, D. Williams-Young, 
 F. Ding, F. Lipparini, F. Egidi, J. Goings, B. Peng, A. Petrone, 
 T. Henderson, D. Ranasinghe, V. G. Zakrzewski, J. Gao, N. Rega, 
 G. Zheng, W. Liang, M. Hada, M. Ehara, K. Toyota, R. Fukuda, 
 J. Hasegawa, M. Ishida, T. Nakajima, Y. Honda, O. Kitao, H. Nakai, 
 T. Vreven, K. Throssell, J. A. Montgomery, Jr., J. E. Peralta, 
 F. Ogliaro, M. J. Bearpark, J. J. Heyd, E. N. Brothers, K. N. Kudin, 
 V. N. Staroverov, T. A. Keith, R. Kobayashi, J. Normand, 
 K. Raghavachari, A. P. Rendell, J. C. Burant, S. S. Iyengar, 
 J. Tomasi, M. Cossi, J. M. Millam, M. Klene, C. Adamo, R. Cammi, 
 J. W. Ochterski, R. L. Martin, K. Morokuma, O. Farkas, 
 J. B. Foresman, and D. J. Fox, Gaussian, Inc., Wallingford CT, 2016.
 
 ******************************************
 Gaussian 16:  ES64L-G16RevA.03 25-Dec-2016
                 1-Nov-2019 
 ******************************************
 %chk=Pt_tsb.chk
 %nprocshared=24
 Will use up to   24 processors via shared memory.
 ----------------------------------------------------------------------
 #p opt=(calcfc,ts,noeigen) freq M062X/genecp geom=allcheck scrf=(smd,s
 olvent=benzene)
 ----------------------------------------------------------------------
 1/5=1,10=4,11=1,18=20,26=3,29=7,38=1/1,3;
 2/9=110,12=2,40=1/2;
 3/5=7,11=2,14=-4,16=1,17=8,25=1,30=1,70=32201,71=2,72=12,74=-55,140=1/1,2,3;
 4//1;
 5/5=2,38=5,53=12/2;
 8/6=4,10=90,11=11/1;
 11/6=1,8=1,9=11,15=111,16=1/1,2,10;
 10/6=1,13=1/2;
 6/7=2,8=2,9=2,10=2,28=1/1;
 7/10=1,18=20,25=1/1,2,3,16;
 1/5=1,10=4,11=1,18=20,26=3/3(2);
 2/9=110/2;
 99//99;
 2/9=110/2;
 3/5=7,6=1,11=2,14=-2,16=1,17=8,25=1,30=1,70=32205,71=1,72=12,74=-55,82=7/1,2,3;
 4/5=5,16=3,69=1/1;
 5/5=2,38=5,53=12/2;
 7//1,2,3,16;
 1/5=1,11=1,18=20,26=3/3(-5);
 2/9=110/2;
 6/7=2,8=2,9=2,10=2,19=2,28=1/1;
 99/9=1/99;
 Leave Link    1 at Fri Nov  1 07:58:17 2019, MaxMem=           0 cpu:               2.8 elap:               0.3
 (Enter /usr/g16/l101.exe)
 Structure from the checkpoint file:  "Pt_tsb.chk"
 -------------------
 Title Card Required
 -------------------
 Charge =  0 Multiplicity = 1
 Redundant internal coordinates found in file.  (old form).
 Pt,0,-0.0962818512,-0.6723105653,1.1477046529
 P,0,1.9481868035,-0.1513514604,0.3338312076
 P,0,-1.9839018289,-0.2015166203,-0.0042643352
 C,0,2.155142761,1.6024716593,-0.1853219964
 H,0,2.0162297364,2.2567119627,0.6807846089
 H,0,3.1459481756,1.7835656217,-0.6173140862
 H,0,1.3869055301,1.8516623782,-0.9238345354
 C,0,3.499211383,-0.3918643709,1.3026702827
 H,0,3.5895856732,-1.4472621644,1.5780731873
 H,0,4.3896359865,-0.0880781096,0.7400127683
 H,0,3.4406196285,0.1930921808,2.2259088612
 C,0,2.3845990178,-1.0370847667,-1.2188052353
 H,0,1.6068595733,-0.8563912873,-1.9669924901
 H,0,3.3529365722,-0.7086633983,-1.6131542348
 H,0,2.4225714688,-2.1131856347,-1.0242062532
 C,0,-2.5690176918,1.5346129678,0.1659676961
 H,0,-1.7613262691,2.2170524037,-0.1154388476
 H,0,-3.4437328002,1.7278299322,-0.4652956362
 H,0,-2.8291202945,1.7303044241,1.2104772961
 C,0,-3.5547668707,-1.1218644953,0.2860323699
 H,0,-4.364288518,-0.7707222921,-0.3643460363
 H,0,-3.3868742539,-2.1881905702,0.1050104747
 H,0,-3.8525998149,-1.0005416894,1.3320624516
 C,0,-1.8538734822,-0.347814282,-1.8348040455
 H,0,-1.5673167089,-1.3706333668,-2.0984696377
 H,0,-2.7982940673,-0.0995295309,-2.3326072044
 H,0,-1.0707307139,0.3280304168,-2.1924019363
 H,0,-0.6554923258,-1.5099540491,2.7121548068
 H,0,0.1835847014,-1.4841750337,2.7980153869
 Recover connectivity data from disk.
 ITRead=  0  0  0  0  0  0  0  0  0  0  0  0  0  0  0  0  0  0  0  0
 ITRead=  0  0  0  0  0  0  0  0  0
 MicOpt= -1 -1 -1 -1 -1 -1 -1 -1 -1 -1 -1 -1 -1 -1 -1 -1 -1 -1 -1 -1
 MicOpt= -1 -1 -1 -1 -1 -1 -1 -1 -1
 NAtoms=     29 NQM=       29 NQMF=       0 NMMI=      0 NMMIF=      0
                NMic=       0 NMicF=      0.
                    Isotopes and Nuclear Properties:
 (Nuclear quadrupole moments (NQMom) in fm**2, nuclear magnetic moments (NMagM)
  in nuclear magnetons)

  Atom         1           2           3           4           5           6           7           8           9          10
 IAtWgt=         195          31          31          12           1           1           1          12           1           1
 AtmWgt= 194.9648000  30.9737634  30.9737634  12.0000000   1.0078250   1.0078250   1.0078250  12.0000000   1.0078250   1.0078250
 NucSpn=           1           1           1           0           1           1           1           0           1           1
 AtZEff=1176.2400000  12.9400000  12.9400000   3.6000000   1.0000000   1.0000000   1.0000000   3.6000000   1.0000000   1.0000000
 NQMom=    0.0000000   0.0000000   0.0000000   0.0000000   0.0000000   0.0000000   0.0000000   0.0000000   0.0000000   0.0000000
 NMagM=    0.6095000   1.1316000   1.1316000   0.0000000   2.7928460   2.7928460   2.7928460   0.0000000   2.7928460   2.7928460
 AtZNuc=  78.0000000  15.0000000  15.0000000   6.0000000   1.0000000   1.0000000   1.0000000   6.0000000   1.0000000   1.0000000

  Atom        11          12          13          14          15          16          17          18          19          20
 IAtWgt=           1          12           1           1           1          12           1           1           1          12
 AtmWgt=   1.0078250  12.0000000   1.0078250   1.0078250   1.0078250  12.0000000   1.0078250   1.0078250   1.0078250  12.0000000
 NucSpn=           1           0           1           1           1           0           1           1           1           0
 AtZEff=   1.0000000   3.6000000   1.0000000   1.0000000   1.0000000   3.6000000   1.0000000   1.0000000   1.0000000   3.6000000
 NQMom=    0.0000000   0.0000000   0.0000000   0.0000000   0.0000000   0.0000000   0.0000000   0.0000000   0.0000000   0.0000000
 NMagM=    2.7928460   0.0000000   2.7928460   2.7928460   2.7928460   0.0000000   2.7928460   2.7928460   2.7928460   0.0000000
 AtZNuc=   1.0000000   6.0000000   1.0000000   1.0000000   1.0000000   6.0000000   1.0000000   1.0000000   1.0000000   6.0000000

  Atom        21          22          23          24          25          26          27          28          29
 IAtWgt=           1           1           1          12           1           1           1           1           1
 AtmWgt=   1.0078250   1.0078250   1.0078250  12.0000000   1.0078250   1.0078250   1.0078250   1.0078250   1.0078250
 NucSpn=           1           1           1           0           1           1           1           1           1
 AtZEff=   1.0000000   1.0000000   1.0000000   3.6000000   1.0000000   1.0000000   1.0000000   1.0000000   1.0000000
 NQMom=    0.0000000   0.0000000   0.0000000   0.0000000   0.0000000   0.0000000   0.0000000   0.0000000   0.0000000
 NMagM=    2.7928460   2.7928460   2.7928460   0.0000000   2.7928460   2.7928460   2.7928460   2.7928460   2.7928460
 AtZNuc=   1.0000000   1.0000000   1.0000000   6.0000000   1.0000000   1.0000000   1.0000000   1.0000000   1.0000000
 Leave Link  101 at Fri Nov  1 07:58:19 2019, MaxMem=   140000000 cpu:              21.3 elap:               1.5
 (Enter /usr/g16/l103.exe)

 GradGradGradGradGradGradGradGradGradGradGradGradGradGradGradGradGradGrad
 Berny optimization.
 Initialization pass.
                           ----------------------------
                           !    Initial Parameters    !
                           ! (Angstroms and Degrees)  !
 --------------------------                            --------------------------
 ! Name  Definition              Value          Derivative Info.                !
 --------------------------------------------------------------------------------
 ! R1    R(1,2)                  2.2613         calculate D2E/DX2 analytically  !
 ! R2    R(1,3)                  2.2609         calculate D2E/DX2 analytically  !
 ! R3    R(1,28)                 1.8606         calculate D2E/DX2 analytically  !
 ! R4    R(1,29)                 1.8604         calculate D2E/DX2 analytically  !
 ! R5    R(2,4)                  1.8407         calculate D2E/DX2 analytically  !
 ! R6    R(2,8)                  1.8445         calculate D2E/DX2 analytically  !
 ! R7    R(2,12)                 1.84           calculate D2E/DX2 analytically  !
 ! R8    R(3,16)                 1.84           calculate D2E/DX2 analytically  !
 ! R9    R(3,20)                 1.8436         calculate D2E/DX2 analytically  !
 ! R10   R(3,24)                 1.841          calculate D2E/DX2 analytically  !
 ! R11   R(4,5)                  1.0943         calculate D2E/DX2 analytically  !
 ! R12   R(4,6)                  1.096          calculate D2E/DX2 analytically  !
 ! R13   R(4,7)                  1.0944         calculate D2E/DX2 analytically  !
 ! R14   R(8,9)                  1.0945         calculate D2E/DX2 analytically  !
 ! R15   R(8,10)                 1.0962         calculate D2E/DX2 analytically  !
 ! R16   R(8,11)                 1.0945         calculate D2E/DX2 analytically  !
 ! R17   R(12,13)                1.0942         calculate D2E/DX2 analytically  !
 ! R18   R(12,14)                1.0959         calculate D2E/DX2 analytically  !
 ! R19   R(12,15)                1.0942         calculate D2E/DX2 analytically  !
 ! R20   R(16,17)                1.0942         calculate D2E/DX2 analytically  !
 ! R21   R(16,18)                1.0959         calculate D2E/DX2 analytically  !
 ! R22   R(16,19)                1.0941         calculate D2E/DX2 analytically  !
 ! R23   R(20,21)                1.0962         calculate D2E/DX2 analytically  !
 ! R24   R(20,22)                1.0945         calculate D2E/DX2 analytically  !
 ! R25   R(20,23)                1.0944         calculate D2E/DX2 analytically  !
 ! R26   R(24,25)                1.0944         calculate D2E/DX2 analytically  !
 ! R27   R(24,26)                1.0961         calculate D2E/DX2 analytically  !
 ! R28   R(24,27)                1.0945         calculate D2E/DX2 analytically  !
 ! R29   R(28,29)                0.8439         calculate D2E/DX2 analytically  !
 ! A1    A(2,1,3)              121.5654         calculate D2E/DX2 analytically  !
 ! A2    A(2,1,28)             132.6926         calculate D2E/DX2 analytically  !
 ! A3    A(2,1,29)             106.487          calculate D2E/DX2 analytically  !
 ! A4    A(3,1,28)             105.7374         calculate D2E/DX2 analytically  !
 ! A5    A(3,1,29)             131.9476         calculate D2E/DX2 analytically  !
 ! A6    A(1,2,4)              115.0026         calculate D2E/DX2 analytically  !
 ! A7    A(1,2,8)              122.7629         calculate D2E/DX2 analytically  !
 ! A8    A(1,2,12)             114.0311         calculate D2E/DX2 analytically  !
 ! A9    A(4,2,8)              100.2439         calculate D2E/DX2 analytically  !
 ! A10   A(4,2,12)             101.1859         calculate D2E/DX2 analytically  !
 ! A11   A(8,2,12)             100.4287         calculate D2E/DX2 analytically  !
 ! A12   A(1,3,16)             114.509          calculate D2E/DX2 analytically  !
 ! A13   A(1,3,20)             121.816          calculate D2E/DX2 analytically  !
 ! A14   A(1,3,24)             115.5379         calculate D2E/DX2 analytically  !
 ! A15   A(16,3,20)            100.6909         calculate D2E/DX2 analytically  !
 ! A16   A(16,3,24)            100.92           calculate D2E/DX2 analytically  !
 ! A17   A(20,3,24)            100.1996         calculate D2E/DX2 analytically  !
 ! A18   A(2,4,5)              109.399          calculate D2E/DX2 analytically  !
 ! A19   A(2,4,6)              111.7314         calculate D2E/DX2 analytically  !
 ! A20   A(2,4,7)              109.1686         calculate D2E/DX2 analytically  !
 ! A21   A(5,4,6)              109.1445         calculate D2E/DX2 analytically  !
 ! A22   A(5,4,7)              107.9905         calculate D2E/DX2 analytically  !
 ! A23   A(6,4,7)              109.3303         calculate D2E/DX2 analytically  !
 ! A24   A(2,8,9)              109.1077         calculate D2E/DX2 analytically  !
 ! A25   A(2,8,10)             112.166          calculate D2E/DX2 analytically  !
 ! A26   A(2,8,11)             109.1691         calculate D2E/DX2 analytically  !
 ! A27   A(9,8,10)             109.2266         calculate D2E/DX2 analytically  !
 ! A28   A(9,8,11)             107.9102         calculate D2E/DX2 analytically  !
 ! A29   A(10,8,11)            109.167          calculate D2E/DX2 analytically  !
 ! A30   A(2,12,13)            109.2021         calculate D2E/DX2 analytically  !
 ! A31   A(2,12,14)            111.6505         calculate D2E/DX2 analytically  !
 ! A32   A(2,12,15)            109.364          calculate D2E/DX2 analytically  !
 ! A33   A(13,12,14)           109.4204         calculate D2E/DX2 analytically  !
 ! A34   A(13,12,15)           107.9791         calculate D2E/DX2 analytically  !
 ! A35   A(14,12,15)           109.1502         calculate D2E/DX2 analytically  !
 ! A36   A(3,16,17)            109.2663         calculate D2E/DX2 analytically  !
 ! A37   A(3,16,18)            111.5241         calculate D2E/DX2 analytically  !
 ! A38   A(3,16,19)            109.4331         calculate D2E/DX2 analytically  !
 ! A39   A(17,16,18)           109.3342         calculate D2E/DX2 analytically  !
 ! A40   A(17,16,19)           108.0271         calculate D2E/DX2 analytically  !
 ! A41   A(18,16,19)           109.1868         calculate D2E/DX2 analytically  !
 ! A42   A(3,20,21)            112.08           calculate D2E/DX2 analytically  !
 ! A43   A(3,20,22)            109.2446         calculate D2E/DX2 analytically  !
 ! A44   A(3,20,23)            109.0901         calculate D2E/DX2 analytically  !
 ! A45   A(21,20,22)           109.1006         calculate D2E/DX2 analytically  !
 ! A46   A(21,20,23)           109.3063         calculate D2E/DX2 analytically  !
 ! A47   A(22,20,23)           107.9289         calculate D2E/DX2 analytically  !
 ! A48   A(3,24,25)            109.409          calculate D2E/DX2 analytically  !
 ! A49   A(3,24,26)            111.8844         calculate D2E/DX2 analytically  !
 ! A50   A(3,24,27)            109.0464         calculate D2E/DX2 analytically  !
 ! A51   A(25,24,26)           109.1405         calculate D2E/DX2 analytically  !
 ! A52   A(25,24,27)           108.1209         calculate D2E/DX2 analytically  !
 ! A53   A(26,24,27)           109.1631         calculate D2E/DX2 analytically  !
 ! D1    D(3,1,2,4)             52.5561         calculate D2E/DX2 analytically  !
 ! D2    D(3,1,2,8)            174.7965         calculate D2E/DX2 analytically  !
 ! D3    D(3,1,2,12)           -63.695          calculate D2E/DX2 analytically  !
 ! D4    D(28,1,2,4)          -128.3486         calculate D2E/DX2 analytically  !
 ! D5    D(28,1,2,8)            -6.1082         calculate D2E/DX2 analytically  !
 ! D6    D(28,1,2,12)          115.4003         calculate D2E/DX2 analytically  !
 ! D7    D(29,1,2,4)          -127.5081         calculate D2E/DX2 analytically  !
 ! D8    D(29,1,2,8)            -5.2678         calculate D2E/DX2 analytically  !
 ! D9    D(29,1,2,12)          116.2407         calculate D2E/DX2 analytically  !
 ! D10   D(2,1,3,16)           -81.5647         calculate D2E/DX2 analytically  !
 ! D11   D(2,1,3,20)           156.9159         calculate D2E/DX2 analytically  !
 ! D12   D(2,1,3,24)            35.0874         calculate D2E/DX2 analytically  !
 ! D13   D(28,1,3,16)           99.1261         calculate D2E/DX2 analytically  !
 ! D14   D(28,1,3,20)          -22.3933         calculate D2E/DX2 analytically  !
 ! D15   D(28,1,3,24)         -144.2218         calculate D2E/DX2 analytically  !
 ! D16   D(29,1,3,16)           98.5181         calculate D2E/DX2 analytically  !
 ! D17   D(29,1,3,20)          -23.0013         calculate D2E/DX2 analytically  !
 ! D18   D(29,1,3,24)         -144.8298         calculate D2E/DX2 analytically  !
 ! D19   D(1,2,4,5)             61.9274         calculate D2E/DX2 analytically  !
 ! D20   D(1,2,4,6)           -177.0988         calculate D2E/DX2 analytically  !
 ! D21   D(1,2,4,7)            -56.0471         calculate D2E/DX2 analytically  !
 ! D22   D(8,2,4,5)            -71.7878         calculate D2E/DX2 analytically  !
 ! D23   D(8,2,4,6)             49.186          calculate D2E/DX2 analytically  !
 ! D24   D(8,2,4,7)            170.2377         calculate D2E/DX2 analytically  !
 ! D25   D(12,2,4,5)          -174.6874         calculate D2E/DX2 analytically  !
 ! D26   D(12,2,4,6)           -53.7136         calculate D2E/DX2 analytically  !
 ! D27   D(12,2,4,7)            67.338          calculate D2E/DX2 analytically  !
 ! D28   D(1,2,8,9)             58.4968         calculate D2E/DX2 analytically  !
 ! D29   D(1,2,8,10)           179.6585         calculate D2E/DX2 analytically  !
 ! D30   D(1,2,8,11)           -59.213          calculate D2E/DX2 analytically  !
 ! D31   D(4,2,8,9)           -172.6697         calculate D2E/DX2 analytically  !
 ! D32   D(4,2,8,10)           -51.508          calculate D2E/DX2 analytically  !
 ! D33   D(4,2,8,11)            69.6205         calculate D2E/DX2 analytically  !
 ! D34   D(12,2,8,9)           -69.1542         calculate D2E/DX2 analytically  !
 ! D35   D(12,2,8,10)           52.0075         calculate D2E/DX2 analytically  !
 ! D36   D(12,2,8,11)          173.136          calculate D2E/DX2 analytically  !
 ! D37   D(1,2,12,13)           55.1868         calculate D2E/DX2 analytically  !
 ! D38   D(1,2,12,14)          176.3219         calculate D2E/DX2 analytically  !
 ! D39   D(1,2,12,15)          -62.7732         calculate D2E/DX2 analytically  !
 ! D40   D(4,2,12,13)          -68.8623         calculate D2E/DX2 analytically  !
 ! D41   D(4,2,12,14)           52.2728         calculate D2E/DX2 analytically  !
 ! D42   D(4,2,12,15)          173.1777         calculate D2E/DX2 analytically  !
 ! D43   D(8,2,12,13)         -171.6139         calculate D2E/DX2 analytically  !
 ! D44   D(8,2,12,14)          -50.4788         calculate D2E/DX2 analytically  !
 ! D45   D(8,2,12,15)           70.4261         calculate D2E/DX2 analytically  !
 ! D46   D(1,3,16,17)           55.034          calculate D2E/DX2 analytically  !
 ! D47   D(1,3,16,18)          176.0225         calculate D2E/DX2 analytically  !
 ! D48   D(1,3,16,19)          -63.0619         calculate D2E/DX2 analytically  !
 ! D49   D(20,3,16,17)        -172.4572         calculate D2E/DX2 analytically  !
 ! D50   D(20,3,16,18)         -51.4687         calculate D2E/DX2 analytically  !
 ! D51   D(20,3,16,19)          69.4469         calculate D2E/DX2 analytically  !
 ! D52   D(24,3,16,17)         -69.751          calculate D2E/DX2 analytically  !
 ! D53   D(24,3,16,18)          51.2375         calculate D2E/DX2 analytically  !
 ! D54   D(24,3,16,19)         172.1531         calculate D2E/DX2 analytically  !
 ! D55   D(1,3,20,21)         -179.4362         calculate D2E/DX2 analytically  !
 ! D56   D(1,3,20,22)          -58.3957         calculate D2E/DX2 analytically  !
 ! D57   D(1,3,20,23)           59.3698         calculate D2E/DX2 analytically  !
 ! D58   D(16,3,20,21)          52.689          calculate D2E/DX2 analytically  !
 ! D59   D(16,3,20,22)         173.7295         calculate D2E/DX2 analytically  !
 ! D60   D(16,3,20,23)         -68.505          calculate D2E/DX2 analytically  !
 ! D61   D(24,3,20,21)         -50.599          calculate D2E/DX2 analytically  !
 ! D62   D(24,3,20,22)          70.4415         calculate D2E/DX2 analytically  !
 ! D63   D(24,3,20,23)        -171.793          calculate D2E/DX2 analytically  !
 ! D64   D(1,3,24,25)           59.3601         calculate D2E/DX2 analytically  !
 ! D65   D(1,3,24,26)         -179.5646         calculate D2E/DX2 analytically  !
 ! D66   D(1,3,24,27)          -58.7065         calculate D2E/DX2 analytically  !
 ! D67   D(16,3,24,25)        -176.5555         calculate D2E/DX2 analytically  !
 ! D68   D(16,3,24,26)         -55.4802         calculate D2E/DX2 analytically  !
 ! D69   D(16,3,24,27)          65.3778         calculate D2E/DX2 analytically  !
 ! D70   D(20,3,24,25)         -73.454          calculate D2E/DX2 analytically  !
 ! D71   D(20,3,24,26)          47.6213         calculate D2E/DX2 analytically  !
 ! D72   D(20,3,24,27)         168.4793         calculate D2E/DX2 analytically  !
 --------------------------------------------------------------------------------
 Trust Radius=3.00D-01 FncErr=1.00D-07 GrdErr=1.00D-06 EigMax=2.50D+02 EigMin=1.00D-04
 Number of steps in this run=    164 maximum allowed number of steps=    174.
 Search for a saddle point of order  1.
 GradGradGradGradGradGradGradGradGradGradGradGradGradGradGradGradGradGrad

 Leave Link  103 at Fri Nov  1 07:58:19 2019, MaxMem=   140000000 cpu:               1.3 elap:               0.1
 (Enter /usr/g16/l202.exe)
                          Input orientation:                          
 ---------------------------------------------------------------------
 Center     Atomic      Atomic             Coordinates (Angstroms)
 Number     Number       Type             X           Y           Z
 ---------------------------------------------------------------------
      1         78           0       -0.096282   -0.672311    1.147705
      2         15           0        1.948187   -0.151351    0.333831
      3         15           0       -1.983902   -0.201517   -0.004264
      4          6           0        2.155143    1.602472   -0.185322
      5          1           0        2.016230    2.256712    0.680785
      6          1           0        3.145948    1.783566   -0.617314
      7          1           0        1.386906    1.851662   -0.923835
      8          6           0        3.499211   -0.391864    1.302670
      9          1           0        3.589586   -1.447262    1.578073
     10          1           0        4.389636   -0.088078    0.740013
     11          1           0        3.440620    0.193092    2.225909
     12          6           0        2.384599   -1.037085   -1.218805
     13          1           0        1.606860   -0.856391   -1.966992
     14          1           0        3.352937   -0.708663   -1.613154
     15          1           0        2.422571   -2.113186   -1.024206
     16          6           0       -2.569018    1.534613    0.165968
     17          1           0       -1.761326    2.217052   -0.115439
     18          1           0       -3.443733    1.727830   -0.465296
     19          1           0       -2.829120    1.730304    1.210477
     20          6           0       -3.554767   -1.121864    0.286032
     21          1           0       -4.364289   -0.770722   -0.364346
     22          1           0       -3.386874   -2.188191    0.105010
     23          1           0       -3.852600   -1.000542    1.332062
     24          6           0       -1.853873   -0.347814   -1.834804
     25          1           0       -1.567317   -1.370633   -2.098470
     26          1           0       -2.798294   -0.099530   -2.332607
     27          1           0       -1.070731    0.328030   -2.192402
     28          1           0       -0.655492   -1.509954    2.712155
     29          1           0        0.183585   -1.484175    2.798015
 ---------------------------------------------------------------------
                    Distance matrix (angstroms):
                    1          2          3          4          5
     1  Pt   0.000000
     2  P    2.261336   0.000000
     3  P    2.260927   3.946916   0.000000
     4  C    3.467060   1.840719   4.518722   0.000000
     5  H    3.641414   2.433881   4.744811   1.094289   0.000000
     6  H    4.433810   2.466417   5.534595   1.095951   1.784710
     7  H    3.586302   2.430807   4.052591   1.094388   1.770570
     8  C    3.609742   1.844498   5.639933   2.828077   3.098537
     9  H    3.790961   2.433457   5.926165   3.803691   4.123106
    10  H    4.542136   2.475815   6.417850   2.950790   3.336856
    11  H    3.797515   2.434328   5.878335   3.074546   2.945305
    12  C    3.447927   1.840016   4.610540   2.843940   3.820109
    13  H    3.554703   2.430509   4.144241   3.085607   4.107276
    14  H    4.418232   2.464685   5.597104   2.968966   3.980250
    15  H    3.624630   2.432715   4.910373   3.818554   4.708303
    16  C    3.456695   4.824499   1.839969   4.737689   4.670220
    17  H    3.565995   4.423988   2.431332   3.965012   3.860761
    18  H    4.423559   5.765650   2.462932   5.607273   5.603964
    19  H    3.639355   5.208819   2.433500   5.177594   4.902560
    20  C    3.592450   5.588084   1.843619   6.344072   6.527374
    21  H    4.529002   6.381098   2.473842   6.940251   7.139235
    22  H    3.770027   5.715238   2.434573   6.720667   7.020129
    23  H    3.775136   5.946992   2.432333   6.720945   6.743666
    24  C    3.477037   4.381465   1.840974   4.753590   5.299947
    25  H    3.631700   4.445391   2.434353   5.133828   5.807210
    26  H    4.443143   5.444415   2.468768   5.660758   6.149150
    27  H    3.620296   3.965542   2.429454   4.007347   4.637277
    28  H    1.860609   3.779070   3.294786   5.097277   5.045031
    29  H    1.860370   3.310958   3.767756   4.723847   4.672846
                    6          7          8          9         10
     6  H    0.000000
     7  H    1.786847   0.000000
     8  C    2.922949   3.801654   0.000000
     9  H    3.931258   4.689802   1.094476   0.000000
    10  H    2.625290   3.943015   1.096232   1.786003   0.000000
    11  H    3.271140   4.109681   1.094521   1.769928   1.785378
    12  C    2.982870   3.070384   2.831344   3.072909   2.959350
    13  H    3.340628   2.910346   3.806242   4.104610   3.957528
    14  H    2.691793   3.300865   2.936629   3.284123   2.645235
    15  H    3.984157   4.099109   3.088115   2.928692   3.329095
    16  C    5.773763   4.115522   6.467365   6.986703   7.168369
    17  H    4.951882   3.270837   6.040756   6.702794   6.624180
    18  H    6.591670   4.853932   7.471498   7.982740   8.130926
    19  H    6.248608   4.727038   6.675319   7.171600   7.459108
    20  C    7.359154   5.892857   7.164151   7.267532   8.024235
    21  H    7.936752   6.345562   8.047180   8.215523   8.849678
    22  H    7.679477   6.337816   7.216603   7.168674   8.080087
    23  H    7.780167   6.377817   7.377024   7.459638   8.313697
    24  C    5.569854   4.021220   6.204934   6.518264   6.758591
    25  H    5.861541   4.526631   6.180247   6.333757   6.722144
    26  H    6.467016   4.827803   7.277312   7.610178   7.817126
    27  H    4.730736   3.157640   5.798116   6.251935   6.211908
    28  H    6.031881   5.356517   4.527509   4.394401   5.600392
    29  H    5.578369   5.140813   3.797707   3.618075   4.886239
                   11         12         13         14         15
    11  H    0.000000
    12  C    3.807173   0.000000
    13  H    4.695158   1.094218   0.000000
    14  H    3.944522   1.095924   1.787683   0.000000
    15  H    4.113221   1.094214   1.770244   1.784691   0.000000
    16  C    6.492979   5.750612   5.263494   6.577774   6.295944
    17  H    6.052980   5.384749   4.921279   6.079363   6.089484
    18  H    7.549325   6.494766   5.868712   7.310868   7.034153
    19  H    6.534812   6.383003   6.038644   7.220754   6.880879
    20  C    7.377511   6.127625   5.638172   7.175933   6.199034
    21  H    8.279792   6.807976   6.183076   7.817860   6.949755
    22  H    7.535475   6.032200   5.568147   7.110987   5.918650
    23  H    7.444110   6.738762   6.380458   7.789689   6.794686
    24  C    6.694298   4.338110   3.500400   5.224003   4.696976
    25  H    6.798891   4.062352   3.218249   4.988249   4.198170
    26  H    7.732383   5.383488   4.484628   6.223045   5.746665
    27  H    6.316008   3.840668   2.936521   4.580294   4.418979
    28  H    4.462615   4.991814   5.238301   5.951291   4.878397
    29  H    3.707938   4.602087   5.012497   5.486768   4.474159
                   16         17         18         19         20
    16  C    0.000000
    17  H    1.094202   0.000000
    18  H    1.095880   1.786681   0.000000
    19  H    1.094052   1.770639   1.784928   0.000000
    20  C    2.836016   3.811296   2.949166   3.084806   0.000000
    21  H    2.969647   3.970411   2.664653   3.330457   1.096183
    22  H    3.812069   4.700763   3.957739   4.109471   1.094536
    23  H    3.071542   4.101414   3.292671   2.918872   1.094350
    24  C    2.838671   3.089227   2.951526   3.813584   2.826683
    25  H    3.817268   4.103845   3.973496   4.707132   3.114112
    26  H    2.994306   3.370117   2.691224   3.987818   2.911133
    27  H    3.043454   2.891211   3.251688   4.078957   3.796744
    28  H    4.406136   4.807154   5.324821   4.180786   3.800326
    29  H    4.859792   5.096075   5.841541   4.682899   4.518473
                   21         22         23         24         25
    21  H    0.000000
    22  H    1.784615   0.000000
    23  H    1.786741   1.770047   0.000000
    24  C    2.939946   3.082200   3.801316   0.000000
    25  H    3.345165   2.972291   4.138603   1.094437   0.000000
    26  H    2.603246   3.263573   3.918314   1.096076   1.784890
    27  H    3.923846   4.119951   4.682494   1.094511   1.772253
    28  H    4.875089   3.836359   3.519326   4.843709   4.898259
    29  H    5.585042   4.527261   4.321308   5.187058   5.201357
                   26         27         28         29
    26  H    0.000000
    27  H    1.785200   0.000000
    28  H    5.659551   5.254073   0.000000
    29  H    6.093614   5.455425   0.843852   0.000000
 Stoichiometry    C6H20P2Pt
 Framework group  C1[X(C6H20P2Pt)]
 Deg. of freedom    81
 Full point group                 C1      NOp   1
 RotChk:  IX=0 Diff= 7.40D-16
 Largest Abelian subgroup         C1      NOp   1
 Largest concise Abelian subgroup C1      NOp   1
                         Standard orientation:                         
 ---------------------------------------------------------------------
 Center     Atomic      Atomic             Coordinates (Angstroms)
 Number     Number       Type             X           Y           Z
 ---------------------------------------------------------------------
      1         78           0        0.000694   -0.706298   -0.002624
      2         15           0        1.975867    0.394747    0.003109
      3         15           0       -1.971030    0.400077   -0.008027
      4          6           0        2.157835    1.659268    1.328297
      5          1           0        2.098532    1.171961    2.306296
      6          1           0        3.111161    2.194270    1.250522
      7          1           0        1.333553    2.375627    1.257053
      8          6           0        3.599432   -0.468472    0.148237
      9          1           0        3.701007   -1.181519   -0.675853
     10          1           0        4.443185    0.231049    0.126412
     11          1           0        3.624173   -1.032204    1.086091
     12          6           0        2.272002    1.410294   -1.502423
     13          1           0        1.436708    2.103846   -1.638739
     14          1           0        3.207663    1.976372   -1.430701
     15          1           0        2.314414    0.756282   -2.378650
     16          6           0       -2.521177    0.987522    1.646582
     17          1           0       -1.732378    1.600831    2.092595
     18          1           0       -3.443242    1.575807    1.578253
     19          1           0       -2.691349    0.126929    2.300318
     20          6           0       -3.522141   -0.381048   -0.626758
     21          1           0       -4.379128    0.299725   -0.565601
     22          1           0       -3.381413   -0.687051   -1.668183
     23          1           0       -3.730587   -1.279019   -0.037012
     24          6           0       -1.995336    1.973976   -0.962718
     25          1           0       -1.742768    1.769376   -2.007774
     26          1           0       -2.975163    2.463269   -0.918946
     27          1           0       -1.237409    2.650485   -0.555486
     28          1           0       -0.435430   -2.514924   -0.025710
     29          1           0        0.408111   -2.521507   -0.003739
 ---------------------------------------------------------------------
 Rotational constants (GHZ):           1.2017257           0.4647406           0.4103303
 Leave Link  202 at Fri Nov  1 07:58:19 2019, MaxMem=   140000000 cpu:               2.7 elap:               0.2
 (Enter /usr/g16/l301.exe)
 General basis read from cards:  (5D, 7F)
 Centers:       1
 SDD
 ****
 Centers:       2      3      4      8     12     16     20     24      5      6
 Centers:       7      9     10     11     13     14     15     17     18     19
 Centers:      21     22     23     25     26     27     28     29
 6-31g*
 ****
 ======================================================================================================
                                       Pseudopotential Parameters
 ======================================================================================================
  Center     Atomic      Valence      Angular      Power
  Number     Number     Electrons     Momentum     of R      Exponent        Coefficient   SO-Coeffient
 ======================================================================================================
    1         78           18
                                      H and up 
                                                     2        1.0000000        0.00000000    0.00000000
                                      S - H
                                                     2       13.4286510      579.22386100    0.00000000
                                                     2        6.7143260       29.66949100    0.00000000
                                      P - H
                                                     2       10.3659440      280.86077400    0.00000000
                                                     2        5.1829720       26.74538200    0.00000000
                                      D - H
                                                     2        7.6004790      120.39644400    0.00000000
                                                     2        3.8002400       15.81092100    0.00000000
                                      F - H
                                                     2        3.3095690       24.31437600    0.00000000
                                      G - H
                                                     2        5.2772890      -24.21867500    0.00000000
    2         15
                                   No pseudopotential on this center.
    3         15
                                   No pseudopotential on this center.
    4          6
                                   No pseudopotential on this center.
    5          1
                                   No pseudopotential on this center.
    6          1
                                   No pseudopotential on this center.
    7          1
                                   No pseudopotential on this center.
    8          6
                                   No pseudopotential on this center.
    9          1
                                   No pseudopotential on this center.
   10          1
                                   No pseudopotential on this center.
   11          1
                                   No pseudopotential on this center.
   12          6
                                   No pseudopotential on this center.
   13          1
                                   No pseudopotential on this center.
   14          1
                                   No pseudopotential on this center.
   15          1
                                   No pseudopotential on this center.
   16          6
                                   No pseudopotential on this center.
   17          1
                                   No pseudopotential on this center.
   18          1
                                   No pseudopotential on this center.
   19          1
                                   No pseudopotential on this center.
   20          6
                                   No pseudopotential on this center.
   21          1
                                   No pseudopotential on this center.
   22          1
                                   No pseudopotential on this center.
   23          1
                                   No pseudopotential on this center.
   24          6
                                   No pseudopotential on this center.
   25          1
                                   No pseudopotential on this center.
   26          1
                                   No pseudopotential on this center.
   27          1
                                   No pseudopotential on this center.
   28          1
                                   No pseudopotential on this center.
   29          1
                                   No pseudopotential on this center.
 ======================================================================================================
 Ernie: Thresh=  0.10000D-02 Tol=  0.10000D-05 Strict=F.
 There are   207 symmetry adapted cartesian basis functions of A   symmetry.
 There are   196 symmetry adapted basis functions of A   symmetry.
   196 basis functions,   417 primitive gaussians,   207 cartesian basis functions
    52 alpha electrons       52 beta electrons
       nuclear repulsion energy       838.9546808058 Hartrees.
 IExCor= 4336 DFT=T Ex+Corr=M062X ExCW=0 ScaHFX=  0.540000
 ScaDFX=  1.000000  1.000000  1.000000  1.000000 ScalE2=  1.000000  1.000000
 IRadAn=      5 IRanWt=     -1 IRanGd=            0 ICorTp=0 IEmpDi=  4
 NAtoms=   29 NActive=   29 NUniq=   29 SFac= 1.00D+00 NAtFMM=   60 NAOKFM=F Big=F
 Integral buffers will be    131072 words long.
 Raffenetti 2 integral format.
 Two-electron integral symmetry is turned on.
 Force inversion solution in PCM.
 ------------------------------------------------------------------------------
 Polarizable Continuum Model (PCM)
 =================================
 Model                : PCM.
 Atomic radii         : SMD-Coulomb.
 Polarization charges : Total charges.
 Charge compensation  : None.
 Solution method      : Matrix inversion.
 Cavity type          : VdW (van der Waals Surface) (Alpha=1.000).
 Cavity algorithm     : GePol (No added spheres)
                        Default sphere list used, NSphG=   29.
                        Lebedev-Laikov grids with approx.  5.0 points / Ang**2.
                        Smoothing algorithm: York/Karplus (Gamma=1.0000).
                        Polarization charges: spherical gaussians, with
                                              point-specific exponents (IZeta= 3).
                        Self-potential: point-specific (ISelfS= 7).
                        Self-field    : sphere-specific E.n sum rule (ISelfD= 2).
 1st derivatives      : Analytical E(r).r(x)/FMM algorithm (CHGder, D1EAlg=3).
                        Cavity 1st derivative terms included.
 2nd derivatives      : Analytical E(r).r(xy)/FMM algorithm (CHGder, D2EAlg=3).
                        Cavity 2nd derivative terms included.
 Solvent              : Benzene, Eps=   2.270600 Eps(inf)=   2.253301
 ------------------------------------------------------------------------------
 GePol: Number of generator spheres                  =      29
 GePol: Total number of spheres                      =      29
 GePol: Number of exposed spheres                    =      29 (100.00%)
 GePol: Number of points                             =    2159
 GePol: Average weight of points                     =       0.12
 GePol: Minimum weight of points                     =   0.39D-08
 GePol: Maximum weight of points                     =    0.22001
 GePol: Number of points with low weight             =     126
 GePol: Fraction of low-weight points (<1% of avg)   =       5.84%
 GePol: Cavity surface area                          =    254.827 Ang**2
 GePol: Cavity volume                                =    209.017 Ang**3
 ------------------------------------------------------------------------------
 Atomic radii for non-electrostatic terms: SMD-CDS.
 ------------------------------------------------------------------------------
 PCM non-electrostatic energy =         0.0004031696 Hartrees.
 Nuclear repulsion after PCM non-electrostatic terms =      838.9550839754 Hartrees.
 Leave Link  301 at Fri Nov  1 07:58:20 2019, MaxMem=   140000000 cpu:               6.0 elap:               0.5
 (Enter /usr/g16/l302.exe)
 NPDir=0 NMtPBC=     1 NCelOv=     1 NCel=       1 NClECP=     1 NCelD=      1
         NCelK=      1 NCelE2=     1 NClLst=     1 CellRange=     0.0.
 One-electron integrals computed using PRISM.
 One-electron integral symmetry used in STVInt
   1 Symmetry operations used in ECPInt.
 ECPInt:  NShTT=    3916 NPrTT=   20546 LenC2=    3772 LenP2D=   13434.
 LDataN:  DoStor=T MaxTD1= 7 Len=  274
 Number of processors reduced to  20 by ecpmxn.
 NBasis=   196 RedAO= T EigKep=  2.27D-03  NBF=   196
 NBsUse=   196 1.00D-06 EigRej= -1.00D+00 NBFU=   196
 Precomputing XC quadrature grid using
 IXCGrd= 4 IRadAn=           5 IRanWt=          -1 IRanGd=           0 AccXCQ= 0.00D+00.
 Defaulting to unpruned grid for atomic number  78.
 Generated NRdTot=       0 NPtTot=           0 NUsed=           0 NTot=          32
 NSgBfM=   205   205   205   205   205 MxSgAt=    29 MxSgA2=    29.
 Leave Link  302 at Fri Nov  1 07:58:24 2019, MaxMem=   140000000 cpu:              57.1 elap:               4.0
 (Enter /usr/g16/l303.exe)
 DipDrv:  MaxL=1.
 Leave Link  303 at Fri Nov  1 07:58:24 2019, MaxMem=   140000000 cpu:               4.6 elap:               0.4
 (Enter /usr/g16/l401.exe)
 ExpMin= 1.50D-02 ExpMax= 1.94D+04 ExpMxC= 2.91D+03 IAcc=3 IRadAn=         5 AccDes= 0.00D+00
 Harris functional with IExCor= 1009 and IRadAn=       5 diagonalized for initial guess.
 HarFok:  IExCor= 1009 AccDes= 0.00D+00 IRadAn=         5 IDoV= 1 UseB2=F ITyADJ=14
 ICtDFT=  3500011 ScaDFX=  1.000000  1.000000  1.000000  1.000000
 Defaulting to unpruned grid for atomic number  78.
 FoFCou: FMM=F IPFlag=           0 FMFlag=      100000 FMFlg1=           0
         NFxFlg=           0 DoJE=T BraDBF=F KetDBF=T FulRan=T
         wScrn=  0.000000 ICntrl=       500 IOpCl=  0 I1Cent=   200000004 NGrid=           0
         NMat0=    1 NMatS0=      1 NMatT0=    0 NMatD0=    1 NMtDS0=    0 NMtDT0=    0
 Petite list used in FoFCou.
 Harris En= -1042.23731414204    
 JPrj=0 DoOrth=F DoCkMO=F.
 Leave Link  401 at Fri Nov  1 07:58:29 2019, MaxMem=   140000000 cpu:              63.5 elap:               4.4
 (Enter /usr/g16/l502.exe)
 Integral symmetry usage will be decided dynamically.
 Closed shell SCF:
 Using DIIS extrapolation, IDIIS=  1040.
 NGot=   140000000 LenX=   139906737 LenY=   139863447
 Requested convergence on RMS density matrix=1.00D-08 within 128 cycles.
 Requested convergence on MAX density matrix=1.00D-06.
 Requested convergence on             energy=1.00D-06.
 No special actions if energy rises.
 Fock matrices will be formed incrementally for  20 cycles.

 Cycle   1  Pass 1  IDiag  1:
 FoFJK:  IHMeth= 1 ICntrl=       0 DoSepK=F KAlg= 0 I1Cent=           0 FoldK=F
 IRaf= 930000000 NMat=       1 IRICut=       1 DoRegI=T DoRafI=F ISym2E= 0 IDoP0=0 IntGTp=1.
 FoFCou: FMM=F IPFlag=           0 FMFlag=      100000 FMFlg1=           0
         NFxFlg=           0 DoJE=F BraDBF=F KetDBF=F FulRan=T
         wScrn=  0.000000 ICntrl=         0 IOpCl=  0 I1Cent=           0 NGrid=           0
         NMat0=    1 NMatS0=      1 NMatT0=    0 NMatD0=    1 NMtDS0=    0 NMtDT0=    0
 Symmetry not used in FoFCou.
 Defaulting to unpruned grid for atomic number  78.
 Defaulting to unpruned grid for atomic number  78.
 Defaulting to unpruned grid for atomic number  78.
 Defaulting to unpruned grid for atomic number  78.
 Defaulting to unpruned grid for atomic number  78.
 Defaulting to unpruned grid for atomic number  78.
 Defaulting to unpruned grid for atomic number  78.
 Defaulting to unpruned grid for atomic number  78.
 Defaulting to unpruned grid for atomic number  78.
 Defaulting to unpruned grid for atomic number  78.
 Defaulting to unpruned grid for atomic number  78.
 Defaulting to unpruned grid for atomic number  78.
 Defaulting to unpruned grid for atomic number  78.
 Defaulting to unpruned grid for atomic number  78.
 Defaulting to unpruned grid for atomic number  78.
 Defaulting to unpruned grid for atomic number  78.
 Defaulting to unpruned grid for atomic number  78.
 Defaulting to unpruned grid for atomic number  78.
 Defaulting to unpruned grid for atomic number  78.
 Defaulting to unpruned grid for atomic number  78.
 Defaulting to unpruned grid for atomic number  78.
 Defaulting to unpruned grid for atomic number  78.
 Defaulting to unpruned grid for atomic number  78.
 Defaulting to unpruned grid for atomic number  78.
 Inv3:  Mode=1 IEnd=    13983843.
 Iteration    1 A*A^-1 deviation from unit magnitude is 7.33D-15 for    161.
 Iteration    1 A*A^-1 deviation from orthogonality  is 2.87D-15 for   2094   1704.
 Iteration    1 A^-1*A deviation from unit magnitude is 7.77D-15 for    161.
 Iteration    1 A^-1*A deviation from orthogonality  is 2.88D-15 for   2153   1922.
 E= -1041.72008619818    
 DIIS: error= 5.84D-02 at cycle   1 NSaved=   1.
 NSaved= 1 IEnMin= 1 EnMin= -1041.72008619818     IErMin= 1 ErrMin= 5.84D-02
 ErrMax= 5.84D-02  0.00D+00 EMaxC= 1.00D-01 BMatC= 7.55D-01 BMatP= 7.55D-01
 IDIUse=3 WtCom= 4.16D-01 WtEn= 5.84D-01
 Coeff-Com:  0.100D+01
 Coeff-En:   0.100D+01
 Coeff:      0.100D+01
 Gap=     0.489 Goal=   None    Shift=    0.000
 GapD=    0.489 DampG=2.000 DampE=0.250 DampFc=0.5000 IDamp=-1.
 Damping current iteration by 5.00D-01
 RMSDP=9.03D-03 MaxDP=3.09D-01              OVMax= 2.40D-01

 Cycle   2  Pass 1  IDiag  1:
 RMSU=  4.49D-03    CP:  9.87D-01
 E= -1042.04038472193     Delta-E=       -0.320298523747 Rises=F Damp=T
 DIIS: error= 9.64D-03 at cycle   2 NSaved=   2.
 NSaved= 2 IEnMin= 2 EnMin= -1042.04038472193     IErMin= 2 ErrMin= 9.64D-03
 ErrMax= 9.64D-03  0.00D+00 EMaxC= 1.00D-01 BMatC= 3.72D-02 BMatP= 7.55D-01
 IDIUse=3 WtCom= 9.04D-01 WtEn= 9.64D-02
 Coeff-Com:  0.860D-01 0.914D+00
 Coeff-En:   0.130D+00 0.870D+00
 Coeff:      0.902D-01 0.910D+00
 Gap=     0.322 Goal=   None    Shift=    0.000
 RMSDP=2.78D-03 MaxDP=2.14D-01 DE=-3.20D-01 OVMax= 1.95D-01

 Cycle   3  Pass 1  IDiag  1:
 RMSU=  2.47D-03    CP:  9.81D-01  7.21D-01
 E= -1042.40349909881     Delta-E=       -0.363114376885 Rises=F Damp=F
 DIIS: error= 1.09D-02 at cycle   3 NSaved=   3.
 NSaved= 3 IEnMin= 3 EnMin= -1042.40349909881     IErMin= 2 ErrMin= 9.64D-03
 ErrMax= 1.09D-02  0.00D+00 EMaxC= 1.00D-01 BMatC= 2.42D-02 BMatP= 3.72D-02
 IDIUse=3 WtCom= 8.91D-01 WtEn= 1.09D-01
 Coeff-Com:  0.841D-02 0.439D+00 0.552D+00
 Coeff-En:   0.000D+00 0.000D+00 0.100D+01
 Coeff:      0.750D-02 0.391D+00 0.601D+00
 Gap=     0.241 Goal=   None    Shift=    0.000
 RMSDP=1.12D-03 MaxDP=4.76D-02 DE=-3.63D-01 OVMax= 4.56D-02

 Cycle   4  Pass 1  IDiag  1:
 RMSU=  7.80D-04    CP:  9.82D-01  8.51D-01  7.76D-01
 E= -1042.42153939711     Delta-E=       -0.018040298301 Rises=F Damp=F
 DIIS: error= 4.45D-03 at cycle   4 NSaved=   4.
 NSaved= 4 IEnMin= 4 EnMin= -1042.42153939711     IErMin= 4 ErrMin= 4.45D-03
 ErrMax= 4.45D-03  0.00D+00 EMaxC= 1.00D-01 BMatC= 4.53D-03 BMatP= 2.42D-02
 IDIUse=3 WtCom= 9.56D-01 WtEn= 4.45D-02
 Coeff-Com:  0.869D-02-0.186D-01 0.279D+00 0.731D+00
 Coeff-En:   0.000D+00 0.000D+00 0.134D+00 0.866D+00
 Coeff:      0.830D-02-0.178D-01 0.272D+00 0.737D+00
 Gap=     0.235 Goal=   None    Shift=    0.000
 RMSDP=4.05D-04 MaxDP=2.43D-02 DE=-1.80D-02 OVMax= 1.25D-02

 Cycle   5  Pass 1  IDiag  1:
 RMSU=  2.07D-04    CP:  9.80D-01  8.09D-01  8.88D-01  9.08D-01
 E= -1042.42529215264     Delta-E=       -0.003752755531 Rises=F Damp=F
 DIIS: error= 3.94D-04 at cycle   5 NSaved=   5.
 NSaved= 5 IEnMin= 5 EnMin= -1042.42529215264     IErMin= 5 ErrMin= 3.94D-04
 ErrMax= 3.94D-04  0.00D+00 EMaxC= 1.00D-01 BMatC= 3.27D-05 BMatP= 4.53D-03
 IDIUse=3 WtCom= 9.96D-01 WtEn= 3.94D-03
 Coeff-Com:  0.264D-02-0.214D-01 0.340D-01 0.150D+00 0.835D+00
 Coeff-En:   0.000D+00 0.000D+00 0.000D+00 0.000D+00 0.100D+01
 Coeff:      0.263D-02-0.213D-01 0.338D-01 0.150D+00 0.835D+00
 Gap=     0.234 Goal=   None    Shift=    0.000
 RMSDP=8.58D-05 MaxDP=4.58D-03 DE=-3.75D-03 OVMax= 2.79D-03

 Cycle   6  Pass 1  IDiag  1:
 RMSU=  5.98D-05    CP:  9.80D-01  8.04D-01  9.07D-01  9.53D-01  9.69D-01
 E= -1042.42535150997     Delta-E=       -0.000059357322 Rises=F Damp=F
 DIIS: error= 7.04D-05 at cycle   6 NSaved=   6.
 NSaved= 6 IEnMin= 6 EnMin= -1042.42535150997     IErMin= 6 ErrMin= 7.04D-05
 ErrMax= 7.04D-05  0.00D+00 EMaxC= 1.00D-01 BMatC= 1.84D-06 BMatP= 3.27D-05
 IDIUse=1 WtCom= 1.00D+00 WtEn= 0.00D+00
 Coeff-Com: -0.305D-03 0.969D-03-0.169D-01-0.517D-01-0.680D-02 0.107D+01
 Coeff:     -0.305D-03 0.969D-03-0.169D-01-0.517D-01-0.680D-02 0.107D+01
 Gap=     0.234 Goal=   None    Shift=    0.000
 RMSDP=3.33D-05 MaxDP=1.92D-03 DE=-5.94D-05 OVMax= 1.28D-03

 Cycle   7  Pass 1  IDiag  1:
 RMSU=  1.02D-05    CP:  9.80D-01  8.03D-01  9.13D-01  9.72D-01  1.06D+00
                    CP:  1.23D+00
 E= -1042.42535696163     Delta-E=       -0.000005451662 Rises=F Damp=F
 DIIS: error= 2.82D-05 at cycle   7 NSaved=   7.
 NSaved= 7 IEnMin= 7 EnMin= -1042.42535696163     IErMin= 7 ErrMin= 2.82D-05
 ErrMax= 2.82D-05  0.00D+00 EMaxC= 1.00D-01 BMatC= 1.40D-07 BMatP= 1.84D-06
 IDIUse=1 WtCom= 1.00D+00 WtEn= 0.00D+00
 Coeff-Com: -0.220D-05 0.680D-03-0.833D-03-0.754D-02-0.257D-01-0.288D-01
 Coeff-Com:  0.106D+01
 Coeff:     -0.220D-05 0.680D-03-0.833D-03-0.754D-02-0.257D-01-0.288D-01
 Coeff:      0.106D+01
 Gap=     0.234 Goal=   None    Shift=    0.000
 RMSDP=8.34D-06 MaxDP=4.67D-04 DE=-5.45D-06 OVMax= 4.61D-04

 Cycle   8  Pass 1  IDiag  1:
 RMSU=  3.24D-06    CP:  9.80D-01  8.03D-01  9.14D-01  9.74D-01  1.07D+00
                    CP:  1.31D+00  1.29D+00
 E= -1042.42535733582     Delta-E=       -0.000000374192 Rises=F Damp=F
 DIIS: error= 7.92D-06 at cycle   8 NSaved=   8.
 NSaved= 8 IEnMin= 8 EnMin= -1042.42535733582     IErMin= 8 ErrMin= 7.92D-06
 ErrMax= 7.92D-06  0.00D+00 EMaxC= 1.00D-01 BMatC= 1.65D-08 BMatP= 1.40D-07
 IDIUse=1 WtCom= 1.00D+00 WtEn= 0.00D+00
 Coeff-Com:  0.422D-04-0.229D-04 0.139D-02 0.284D-02-0.415D-02-0.106D+00
 Coeff-Com:  0.282D+00 0.824D+00
 Coeff:      0.422D-04-0.229D-04 0.139D-02 0.284D-02-0.415D-02-0.106D+00
 Coeff:      0.282D+00 0.824D+00
 Gap=     0.234 Goal=   None    Shift=    0.000
 RMSDP=2.03D-06 MaxDP=1.07D-04 DE=-3.74D-07 OVMax= 1.36D-04

 Cycle   9  Pass 1  IDiag  1:
 RMSU=  1.03D-06    CP:  9.80D-01  8.03D-01  9.14D-01  9.74D-01  1.07D+00
                    CP:  1.32D+00  1.42D+00  9.68D-01
 E= -1042.42535737680     Delta-E=       -0.000000040980 Rises=F Damp=F
 DIIS: error= 4.49D-06 at cycle   9 NSaved=   9.
 NSaved= 9 IEnMin= 9 EnMin= -1042.42535737680     IErMin= 9 ErrMin= 4.49D-06
 ErrMax= 4.49D-06  0.00D+00 EMaxC= 1.00D-01 BMatC= 1.58D-09 BMatP= 1.65D-08
 IDIUse=1 WtCom= 1.00D+00 WtEn= 0.00D+00
 Coeff-Com:  0.470D-05-0.417D-04 0.342D-03 0.144D-02 0.171D-02-0.159D-01
 Coeff-Com: -0.728D-01 0.136D+00 0.949D+00
 Coeff:      0.470D-05-0.417D-04 0.342D-03 0.144D-02 0.171D-02-0.159D-01
 Coeff:     -0.728D-01 0.136D+00 0.949D+00
 Gap=     0.234 Goal=   None    Shift=    0.000
 RMSDP=7.05D-07 MaxDP=4.96D-05 DE=-4.10D-08 OVMax= 7.17D-05

 Cycle  10  Pass 1  IDiag  1:
 RMSU=  3.61D-07    CP:  9.80D-01  8.03D-01  9.14D-01  9.74D-01  1.07D+00
                    CP:  1.32D+00  1.46D+00  1.08D+00  1.12D+00
 E= -1042.42535738215     Delta-E=       -0.000000005345 Rises=F Damp=F
 DIIS: error= 1.27D-06 at cycle  10 NSaved=  10.
 NSaved=10 IEnMin=10 EnMin= -1042.42535738215     IErMin=10 ErrMin= 1.27D-06
 ErrMax= 1.27D-06  0.00D+00 EMaxC= 1.00D-01 BMatC= 2.25D-10 BMatP= 1.58D-09
 IDIUse=1 WtCom= 1.00D+00 WtEn= 0.00D+00
 Coeff-Com: -0.618D-05-0.383D-05-0.767D-04 0.673D-04 0.717D-03 0.735D-02
 Coeff-Com: -0.423D-01-0.605D-01 0.211D+00 0.884D+00
 Coeff:     -0.618D-05-0.383D-05-0.767D-04 0.673D-04 0.717D-03 0.735D-02
 Coeff:     -0.423D-01-0.605D-01 0.211D+00 0.884D+00
 Gap=     0.234 Goal=   None    Shift=    0.000
 RMSDP=2.02D-07 MaxDP=1.51D-05 DE=-5.35D-09 OVMax= 2.27D-05

 Cycle  11  Pass 1  IDiag  1:
 RMSU=  1.08D-07    CP:  9.80D-01  8.03D-01  9.14D-01  9.74D-01  1.07D+00
                    CP:  1.32D+00  1.47D+00  1.09D+00  1.25D+00  1.14D+00
 E= -1042.42535738275     Delta-E=       -0.000000000603 Rises=F Damp=F
 DIIS: error= 3.71D-07 at cycle  11 NSaved=  11.
 NSaved=11 IEnMin=11 EnMin= -1042.42535738275     IErMin=11 ErrMin= 3.71D-07
 ErrMax= 3.71D-07  0.00D+00 EMaxC= 1.00D-01 BMatC= 2.58D-11 BMatP= 2.25D-10
 IDIUse=1 WtCom= 1.00D+00 WtEn= 0.00D+00
 Coeff-Com: -0.279D-05 0.426D-05-0.675D-04-0.161D-03 0.492D-05 0.407D-02
 Coeff-Com: -0.365D-02-0.351D-01-0.459D-01 0.245D+00 0.836D+00
 Coeff:     -0.279D-05 0.426D-05-0.675D-04-0.161D-03 0.492D-05 0.407D-02
 Coeff:     -0.365D-02-0.351D-01-0.459D-01 0.245D+00 0.836D+00
 Gap=     0.234 Goal=   None    Shift=    0.000
 RMSDP=7.66D-08 MaxDP=4.53D-06 DE=-6.03D-10 OVMax= 7.01D-06

 Cycle  12  Pass 1  IDiag  1:
 RMSU=  4.13D-08    CP:  9.80D-01  8.03D-01  9.14D-01  9.74D-01  1.07D+00
                    CP:  1.32D+00  1.47D+00  1.09D+00  1.28D+00  1.26D+00
                    CP:  1.20D+00
 E= -1042.42535738282     Delta-E=       -0.000000000073 Rises=F Damp=F
 DIIS: error= 1.29D-07 at cycle  12 NSaved=  12.
 NSaved=12 IEnMin=12 EnMin= -1042.42535738282     IErMin=12 ErrMin= 1.29D-07
 ErrMax= 1.29D-07  0.00D+00 EMaxC= 1.00D-01 BMatC= 3.87D-12 BMatP= 2.58D-11
 IDIUse=1 WtCom= 1.00D+00 WtEn= 0.00D+00
 Coeff-Com:  0.171D-06 0.288D-05-0.117D-04-0.748D-04-0.112D-03 0.209D-03
 Coeff-Com:  0.514D-02-0.193D-02-0.439D-01-0.627D-01 0.243D+00 0.860D+00
 Coeff:      0.171D-06 0.288D-05-0.117D-04-0.748D-04-0.112D-03 0.209D-03
 Coeff:      0.514D-02-0.193D-02-0.439D-01-0.627D-01 0.243D+00 0.860D+00
 Gap=     0.234 Goal=   None    Shift=    0.000
 RMSDP=3.17D-08 MaxDP=1.61D-06 DE=-7.28D-11 OVMax= 2.53D-06

 Cycle  13  Pass 1  IDiag  1:
 RMSU=  1.25D-08    CP:  9.80D-01  8.03D-01  9.14D-01  9.74D-01  1.07D+00
                    CP:  1.32D+00  1.47D+00  1.09D+00  1.29D+00  1.31D+00
                    CP:  1.38D+00  1.08D+00
 E= -1042.42535738283     Delta-E=       -0.000000000011 Rises=F Damp=F
 DIIS: error= 4.76D-08 at cycle  13 NSaved=  13.
 NSaved=13 IEnMin=13 EnMin= -1042.42535738283     IErMin=13 ErrMin= 4.76D-08
 ErrMax= 4.76D-08  0.00D+00 EMaxC= 1.00D-01 BMatC= 1.84D-13 BMatP= 3.87D-12
 IDIUse=1 WtCom= 1.00D+00 WtEn= 0.00D+00
 Coeff-Com:  0.333D-06-0.411D-06 0.501D-05 0.701D-05-0.498D-05-0.346D-03
 Coeff-Com:  0.792D-03 0.314D-02 0.107D-02-0.281D-01-0.650D-01 0.637D-01
 Coeff-Com:  0.102D+01
 Coeff:      0.333D-06-0.411D-06 0.501D-05 0.701D-05-0.498D-05-0.346D-03
 Coeff:      0.792D-03 0.314D-02 0.107D-02-0.281D-01-0.650D-01 0.637D-01
 Coeff:      0.102D+01
 Gap=     0.234 Goal=   None    Shift=    0.000
 RMSDP=1.09D-08 MaxDP=6.53D-07 DE=-1.09D-11 OVMax= 6.24D-07

 Cycle  14  Pass 1  IDiag  1:
 RMSU=  3.42D-09    CP:  9.80D-01  8.03D-01  9.14D-01  9.74D-01  1.07D+00
                    CP:  1.32D+00  1.47D+00  1.09D+00  1.29D+00  1.32D+00
                    CP:  1.44D+00  1.20D+00  1.24D+00
 E= -1042.42535738281     Delta-E=        0.000000000026 Rises=F Damp=F
 DIIS: error= 8.13D-09 at cycle  14 NSaved=  14.
 NSaved=14 IEnMin=13 EnMin= -1042.42535738283     IErMin=14 ErrMin= 8.13D-09
 ErrMax= 8.13D-09  0.00D+00 EMaxC= 1.00D-01 BMatC= 1.38D-14 BMatP= 1.84D-13
 IDIUse=1 WtCom= 1.00D+00 WtEn= 0.00D+00
 Coeff-Com: -0.712D-07-0.592D-07 0.243D-06 0.496D-05 0.646D-05 0.163D-04
 Coeff-Com: -0.379D-03-0.164D-03 0.250D-02 0.677D-02-0.839D-02-0.597D-01
 Coeff-Com: -0.894D-01 0.115D+01
 Coeff:     -0.712D-07-0.592D-07 0.243D-06 0.496D-05 0.646D-05 0.163D-04
 Coeff:     -0.379D-03-0.164D-03 0.250D-02 0.677D-02-0.839D-02-0.597D-01
 Coeff:     -0.894D-01 0.115D+01
 Gap=     0.234 Goal=   None    Shift=    0.000
 RMSDP=2.75D-09 MaxDP=1.77D-07 DE= 2.59D-11 OVMax= 1.50D-07

 Error on total polarization charges =  0.04203
 SCF Done:  E(RM062X) =  -1042.42535738     A.U. after   14 cycles
            NFock= 14  Conv=0.27D-08     -V/T= 2.0849
 KE= 9.608187763710D+02 PE=-4.106670289766D+03 EE= 1.264471072037D+03
 SMD-CDS (non-electrostatic) energy       (kcal/mol) =       0.25
 (included in total energy above)
 Leave Link  502 at Fri Nov  1 08:01:25 2019, MaxMem=   140000000 cpu:            2724.5 elap:             176.4
 (Enter /usr/g16/l801.exe)
 DoSCS=F DFT=T ScalE2(SS,OS)=  1.000000  1.000000
 Range of M.O.s used for correlation:     1   196
 NBasis=   196 NAE=    52 NBE=    52 NFC=     0 NFV=     0
 NROrb=    196 NOA=    52 NOB=    52 NVA=   144 NVB=   144
 Leave Link  801 at Fri Nov  1 08:01:26 2019, MaxMem=   140000000 cpu:               3.2 elap:               0.2
 (Enter /usr/g16/l1101.exe)
 Using compressed storage, NAtomX=    29.
 Will process     30 centers per pass.
   1 Symmetry operations used in ECPInt.
 ECPInt:  NShTT=    3916 NPrTT=   20546 LenC2=    3772 LenP2D=   13434.
 LDataN:  DoStor=T MaxTD1= 8 Len=  415
 Number of processors reduced to   7 by ecpmxn.
 Leave Link 1101 at Fri Nov  1 08:01:33 2019, MaxMem=   140000000 cpu:              98.6 elap:               7.6
 (Enter /usr/g16/l1102.exe)
 Symmetrizing basis deriv contribution to polar:
 IMax=3 JMax=2 DiffMx= 0.00D+00
 Leave Link 1102 at Fri Nov  1 08:01:34 2019, MaxMem=   140000000 cpu:               4.5 elap:               0.4
 (Enter /usr/g16/l1110.exe)
 Forming Gx(P) for the SCF density, NAtomX=    29.
 Integral derivatives from FoFJK, PRISM(SPDF).
 Do as many integral derivatives as possible in FoFJK.
 G2DrvN: MDV=     139997776.
 G2DrvN: will do    30 centers at a time, making    1 passes.
 Calling FoFCou, ICntrl=  3107 FMM=F I1Cent=   0 AccDes= 0.00D+00.
 FoFJK:  IHMeth= 1 ICntrl=    3107 DoSepK=F KAlg= 0 I1Cent=           0 FoldK=F
 IRaf=         0 NMat=       1 IRICut=       1 DoRegI=T DoRafI=F ISym2E= 0 IDoP0=0 IntGTp=1.
 FoFCou: FMM=F IPFlag=           0 FMFlag=      100000 FMFlg1=           0
         NFxFlg=           0 DoJE=F BraDBF=F KetDBF=F FulRan=T
         wScrn=  0.000000 ICntrl=      3107 IOpCl=  0 I1Cent=           0 NGrid=           0
         NMat0=    1 NMatS0=      1 NMatT0=    0 NMatD0=    1 NMtDS0=    0 NMtDT0=    0
 Symmetry not used in FoFCou.
 Defaulting to unpruned grid for atomic number  78.
 Defaulting to unpruned grid for atomic number  78.
 Defaulting to unpruned grid for atomic number  78.
 Defaulting to unpruned grid for atomic number  78.
 Defaulting to unpruned grid for atomic number  78.
 Defaulting to unpruned grid for atomic number  78.
 Defaulting to unpruned grid for atomic number  78.
 Defaulting to unpruned grid for atomic number  78.
 Defaulting to unpruned grid for atomic number  78.
 Defaulting to unpruned grid for atomic number  78.
 Defaulting to unpruned grid for atomic number  78.
 Defaulting to unpruned grid for atomic number  78.
 Defaulting to unpruned grid for atomic number  78.
 Defaulting to unpruned grid for atomic number  78.
 Defaulting to unpruned grid for atomic number  78.
 Defaulting to unpruned grid for atomic number  78.
 Defaulting to unpruned grid for atomic number  78.
 Defaulting to unpruned grid for atomic number  78.
 Defaulting to unpruned grid for atomic number  78.
 Defaulting to unpruned grid for atomic number  78.
 Defaulting to unpruned grid for atomic number  78.
 Defaulting to unpruned grid for atomic number  78.
 Defaulting to unpruned grid for atomic number  78.
 Defaulting to unpruned grid for atomic number  78.
 NEqPCM:  Using equilibrium solvation (IEInf=0, Eps=   2.2706, EpsInf=   2.2533)
 G2PCM: DoFxE=T DoFxN=T DoGrad=T DoDP/DQ/DG/TGxP=FFFF NFrqRd=   0 IEInf=0 SqF1=F DoCFld=F IF1Alg=4.
 GePol: Maximum number of non-zero 1st derivatives   =     242
 CoulSu:  requested number of processors reduced to:  17 ShMem   1 Linda.
 CoulSu:  requested number of processors reduced to:  20 ShMem   1 Linda.
 End of G2Drv F.D. properties file   721 does not exist.
 End of G2Drv F.D. properties file   722 does not exist.
 End of G2Drv F.D. properties file   788 does not exist.
 Leave Link 1110 at Fri Nov  1 08:06:37 2019, MaxMem=   140000000 cpu:            4767.9 elap:             303.6
 (Enter /usr/g16/l1002.exe)
 Minotr:  Closed shell wavefunction.
          IDoAtm=11111111111111111111111111111
 NEqPCM:  Using equilibrium solvation (IEInf=0, Eps=   2.2706, EpsInf=   2.2533)
          Direct CPHF calculation.
          Differentiating once with respect to nuclear coordinates.
          Requested convergence is 1.0D-08 RMS, and 1.0D-07 maximum.
          Secondary convergence is 1.0D-12 RMS, and 1.0D-12 maximum.
          NewPWx=T KeepS1=F KeepF1=F KeepIn=T MapXYZ=F SortEE=F KeepMc=T.
 Defaulting to unpruned grid for atomic number  78.
         8993 words used for storage of precomputed grid.
 Two-electron integrals replicated using symmetry.
          MDV=     140000000 using IRadAn=       1.
          Solving linear equations simultaneously, MaxMat=     384.
 FoF2E skips out because all densities are zero.
 CalDSu exits because no D1Ps are significant.
 FoFJK:  IHMeth= 1 ICntrl=       0 DoSepK=F KAlg= 0 I1Cent=           0 FoldK=F
 IRaf= 920000000 NMat=      48 IRICut=     120 DoRegI=T DoRafI=T ISym2E= 2 IDoP0=3 IntGTp=3.
 Defaulting to unpruned grid for atomic number  78.
 Defaulting to unpruned grid for atomic number  78.
 Defaulting to unpruned grid for atomic number  78.
 Defaulting to unpruned grid for atomic number  78.
 Defaulting to unpruned grid for atomic number  78.
 Defaulting to unpruned grid for atomic number  78.
 Defaulting to unpruned grid for atomic number  78.
 Defaulting to unpruned grid for atomic number  78.
 Defaulting to unpruned grid for atomic number  78.
 Defaulting to unpruned grid for atomic number  78.
 Defaulting to unpruned grid for atomic number  78.
 Defaulting to unpruned grid for atomic number  78.
 Defaulting to unpruned grid for atomic number  78.
 Defaulting to unpruned grid for atomic number  78.
 Defaulting to unpruned grid for atomic number  78.
 Defaulting to unpruned grid for atomic number  78.
 Defaulting to unpruned grid for atomic number  78.
 Defaulting to unpruned grid for atomic number  78.
 Defaulting to unpruned grid for atomic number  78.
 Defaulting to unpruned grid for atomic number  78.
 Defaulting to unpruned grid for atomic number  78.
 Defaulting to unpruned grid for atomic number  78.
 Defaulting to unpruned grid for atomic number  78.
 Defaulting to unpruned grid for atomic number  78.
          There are    90 degrees of freedom in the 1st order CPHF.  IDoFFX=6 NUNeed=     0.
     84 vectors produced by pass  0 Test12= 8.32D-15 1.11D-09 XBig12= 5.62D-02 6.50D-02.
 AX will form    48 AO Fock derivatives at one time.
     84 vectors produced by pass  1 Test12= 8.32D-15 1.11D-09 XBig12= 9.64D-03 2.43D-02.
     84 vectors produced by pass  2 Test12= 8.32D-15 1.11D-09 XBig12= 3.19D-04 6.56D-03.
     84 vectors produced by pass  3 Test12= 8.32D-15 1.11D-09 XBig12= 3.87D-06 4.83D-04.
     84 vectors produced by pass  4 Test12= 8.32D-15 1.11D-09 XBig12= 2.26D-08 4.48D-05.
     84 vectors produced by pass  5 Test12= 8.32D-15 1.11D-09 XBig12= 7.06D-11 1.06D-06.
     41 vectors produced by pass  6 Test12= 8.32D-15 1.11D-09 XBig12= 2.09D-13 6.08D-08.
      3 vectors produced by pass  7 Test12= 8.32D-15 1.11D-09 XBig12= 6.12D-16 3.52D-09.
 InvSVY:  IOpt=1 It=  1 EMax= 4.72D-16
 Solved reduced A of dimension   548 with    90 vectors.
 End of Minotr F.D. properties file   721 does not exist.
 End of Minotr F.D. properties file   722 does not exist.
 End of Minotr F.D. properties file   788 does not exist.
 Leave Link 1002 at Fri Nov  1 08:13:01 2019, MaxMem=   140000000 cpu:            6255.8 elap:             383.2
 (Enter /usr/g16/l601.exe)
 Copying SCF densities to generalized density rwf, IOpCl= 0 IROHF=0.

 **********************************************************************

            Population analysis using the SCF density.

 **********************************************************************

 Orbital symmetries:
       Occupied  (A) (A) (A) (A) (A) (A) (A) (A) (A) (A) (A) (A)
                 (A) (A) (A) (A) (A) (A) (A) (A) (A) (A) (A) (A)
                 (A) (A) (A) (A) (A) (A) (A) (A) (A) (A) (A) (A)
                 (A) (A) (A) (A) (A) (A) (A) (A) (A) (A) (A) (A)
                 (A) (A) (A) (A)
       Virtual   (A) (A) (A) (A) (A) (A) (A) (A) (A) (A) (A) (A)
                 (A) (A) (A) (A) (A) (A) (A) (A) (A) (A) (A) (A)
                 (A) (A) (A) (A) (A) (A) (A) (A) (A) (A) (A) (A)
                 (A) (A) (A) (A) (A) (A) (A) (A) (A) (A) (A) (A)
                 (A) (A) (A) (A) (A) (A) (A) (A) (A) (A) (A) (A)
                 (A) (A) (A) (A) (A) (A) (A) (A) (A) (A) (A) (A)
                 (A) (A) (A) (A) (A) (A) (A) (A) (A) (A) (A) (A)
                 (A) (A) (A) (A) (A) (A) (A) (A) (A) (A) (A) (A)
                 (A) (A) (A) (A) (A) (A) (A) (A) (A) (A) (A) (A)
                 (A) (A) (A) (A) (A) (A) (A) (A) (A) (A) (A) (A)
                 (A) (A) (A) (A) (A) (A) (A) (A) (A) (A) (A) (A)
                 (A) (A) (A) (A) (A) (A) (A) (A) (A) (A) (A) (A)
 The electronic state is 1-A.
 Alpha  occ. eigenvalues --  -78.04466 -78.04424 -10.52675 -10.52659 -10.52642
 Alpha  occ. eigenvalues --  -10.52627 -10.52411 -10.52354  -6.85908  -6.85866
 Alpha  occ. eigenvalues --   -4.97289  -4.97264  -4.97246  -4.97222  -4.97081
 Alpha  occ. eigenvalues --   -4.97039  -4.02095  -2.23837  -2.23434  -2.21599
 Alpha  occ. eigenvalues --   -0.85399  -0.85197  -0.77397  -0.77314  -0.77216
 Alpha  occ. eigenvalues --   -0.77118  -0.61789  -0.60787  -0.53598  -0.50439
 Alpha  occ. eigenvalues --   -0.49997  -0.48914  -0.48533  -0.48495  -0.48406
 Alpha  occ. eigenvalues --   -0.46063  -0.45819  -0.45758  -0.45620  -0.44154
 Alpha  occ. eigenvalues --   -0.44095  -0.39495  -0.38605  -0.38356  -0.38149
 Alpha  occ. eigenvalues --   -0.37739  -0.36347  -0.28898  -0.28504  -0.26481
 Alpha  occ. eigenvalues --   -0.24544  -0.22592
 Alpha virt. eigenvalues --    0.00839   0.01085   0.04935   0.05627   0.09345
 Alpha virt. eigenvalues --    0.09882   0.10873   0.11474   0.12290   0.12583
 Alpha virt. eigenvalues --    0.12899   0.13843   0.15226   0.15873   0.16429
 Alpha virt. eigenvalues --    0.16610   0.18135   0.20075   0.20243   0.21436
 Alpha virt. eigenvalues --    0.21875   0.22272   0.23237   0.23679   0.24275
 Alpha virt. eigenvalues --    0.24653   0.24946   0.25480   0.25622   0.26460
 Alpha virt. eigenvalues --    0.26699   0.27970   0.28580   0.29169   0.30262
 Alpha virt. eigenvalues --    0.32009   0.34403   0.36249   0.36664   0.44298
 Alpha virt. eigenvalues --    0.46223   0.47280   0.48297   0.50474   0.51211
 Alpha virt. eigenvalues --    0.52302   0.55533   0.56812   0.59418   0.63465
 Alpha virt. eigenvalues --    0.64289   0.66561   0.67135   0.68605   0.69608
 Alpha virt. eigenvalues --    0.71120   0.71735   0.72054   0.72404   0.73017
 Alpha virt. eigenvalues --    0.75783   0.77128   0.79376   0.81112   0.83346
 Alpha virt. eigenvalues --    0.83637   0.84908   0.85796   0.87090   0.87397
 Alpha virt. eigenvalues --    0.87956   0.89830   0.91436   0.91531   0.93992
 Alpha virt. eigenvalues --    0.94570   0.95880   0.96950   0.97474   0.97964
 Alpha virt. eigenvalues --    0.98914   0.99252   0.99829   1.00707   1.01248
 Alpha virt. eigenvalues --    1.01931   1.02310   1.02664   1.04165   1.04514
 Alpha virt. eigenvalues --    1.05762   1.09457   1.09989   1.12044   1.12454
 Alpha virt. eigenvalues --    1.13629   1.14277   1.16809   1.24560   1.33585
 Alpha virt. eigenvalues --    1.37523   1.40125   1.41511   1.42517   1.43925
 Alpha virt. eigenvalues --    1.45208   1.46644   1.56201   1.61377   1.71361
 Alpha virt. eigenvalues --    1.71390   1.75751   1.76563   1.76852   1.77492
 Alpha virt. eigenvalues --    1.84878   1.86053   1.87824   1.87962   1.96813
 Alpha virt. eigenvalues --    1.99327   2.15292   2.15435   2.26226   2.26269
 Alpha virt. eigenvalues --    2.26705   2.27119   2.29546   2.30609   2.31859
 Alpha virt. eigenvalues --    2.31929   2.32438   2.32667   2.32928   2.33080
 Alpha virt. eigenvalues --    2.35037   2.35350   2.35382   2.35845   2.58317
 Alpha virt. eigenvalues --   46.19089  46.26870  46.32107 115.14080
          Condensed to atoms (all electrons):
               1          2          3          4          5          6
     1  Pt  18.021748   0.248777   0.255181  -0.019727   0.003472   0.007735
     2  P    0.248777  13.570107  -0.047038   0.327024  -0.027340  -0.019957
     3  P    0.255181  -0.047038  13.559542  -0.001232  -0.000082   0.000020
     4  C   -0.019727   0.327024  -0.001232   5.377927   0.371381   0.351842
     5  H    0.003472  -0.027340  -0.000082   0.371381   0.481168  -0.026384
     6  H    0.007735  -0.019957   0.000020   0.351842  -0.026384   0.531682
     7  H    0.002610  -0.024987  -0.000142   0.368102  -0.021254  -0.026037
     8  C   -0.014906   0.308731   0.000692  -0.050168  -0.001384  -0.004744
     9  H    0.003533  -0.029177   0.000011   0.002405  -0.000005  -0.000040
    10  H    0.006361  -0.016174  -0.000018  -0.004660  -0.000320   0.003541
    11  H    0.003451  -0.029566   0.000020  -0.001662   0.000777  -0.000343
    12  C   -0.019667   0.327958  -0.001157  -0.041160   0.002339  -0.004966
    13  H    0.002958  -0.025545  -0.000806  -0.001812   0.000014  -0.000299
    14  H    0.007619  -0.019856   0.000016  -0.005013  -0.000058   0.003309
    15  H    0.004085  -0.027030   0.000049   0.002329  -0.000038  -0.000060
    16  C   -0.017293  -0.000106   0.325734  -0.000009  -0.000003   0.000000
    17  H    0.002543  -0.000264  -0.026139   0.000086  -0.000027  -0.000002
    18  H    0.007364  -0.000012  -0.019744  -0.000000  -0.000000  -0.000000
    19  H    0.004221   0.000052  -0.026469  -0.000000   0.000001  -0.000000
    20  C   -0.015234   0.000750   0.311227  -0.000001  -0.000000   0.000000
    21  H    0.006396  -0.000019  -0.016637   0.000000   0.000000  -0.000000
    22  H    0.003726   0.000039  -0.029748  -0.000000   0.000000   0.000000
    23  H    0.003364   0.000002  -0.028067   0.000000   0.000000  -0.000000
    24  C   -0.023788  -0.002303   0.329986   0.000015   0.000004  -0.000002
    25  H    0.003027  -0.000359  -0.028062   0.000005   0.000000  -0.000000
    26  H    0.008198   0.000047  -0.020015  -0.000002  -0.000000   0.000000
    27  H    0.001321  -0.000033  -0.023916  -0.000017  -0.000004  -0.000007
    28  H    0.068705  -0.016932   0.021093   0.000051   0.000004  -0.000001
    29  H    0.068343   0.020491  -0.016968   0.000099   0.000012  -0.000000
               7          8          9         10         11         12
     1  Pt   0.002610  -0.014906   0.003533   0.006361   0.003451  -0.019667
     2  P   -0.024987   0.308731  -0.029177  -0.016174  -0.029566   0.327958
     3  P   -0.000142   0.000692   0.000011  -0.000018   0.000020  -0.001157
     4  C    0.368102  -0.050168   0.002405  -0.004660  -0.001662  -0.041160
     5  H   -0.021254  -0.001384  -0.000005  -0.000320   0.000777   0.002339
     6  H   -0.026037  -0.004744  -0.000040   0.003541  -0.000343  -0.004966
     7  H    0.490035   0.002402  -0.000040  -0.000043   0.000013  -0.001863
     8  C    0.002402   5.398106   0.372899   0.346886   0.373203  -0.048300
     9  H   -0.000040   0.372899   0.487350  -0.025967  -0.021661  -0.001635
    10  H   -0.000043   0.346886  -0.025967   0.539639  -0.026166  -0.004781
    11  H    0.000013   0.373203  -0.021661  -0.026166   0.487661   0.002401
    12  C   -0.001863  -0.048300  -0.001635  -0.004781   0.002401   5.374345
    13  H    0.000658   0.002368   0.000008  -0.000045  -0.000039   0.368994
    14  H   -0.000311  -0.004804  -0.000332   0.003480  -0.000046   0.351802
    15  H    0.000021  -0.001375   0.000792  -0.000331  -0.000004   0.370897
    16  C   -0.000054  -0.000001  -0.000000   0.000000  -0.000000   0.000010
    17  H   -0.000065  -0.000000   0.000000   0.000000   0.000000   0.000000
    18  H   -0.000003   0.000000   0.000000  -0.000000   0.000000  -0.000000
    19  H    0.000001  -0.000000   0.000000   0.000000   0.000000   0.000000
    20  C   -0.000000  -0.000000  -0.000000   0.000000  -0.000000  -0.000002
    21  H   -0.000000   0.000000   0.000000  -0.000000   0.000000   0.000000
    22  H    0.000000  -0.000000   0.000000   0.000000   0.000000  -0.000000
    23  H    0.000000  -0.000000  -0.000000   0.000000   0.000000   0.000000
    24  C   -0.000009  -0.000001   0.000000   0.000000   0.000000  -0.000020
    25  H   -0.000008  -0.000000   0.000000   0.000000   0.000000  -0.000005
    26  H   -0.000005   0.000000   0.000000  -0.000000   0.000000   0.000000
    27  H   -0.000007  -0.000000   0.000000  -0.000000   0.000000  -0.000166
    28  H    0.000002   0.000099   0.000020  -0.000003   0.000018   0.000068
    29  H   -0.000000  -0.001826  -0.000059   0.000029  -0.000075   0.000077
              13         14         15         16         17         18
     1  Pt   0.002958   0.007619   0.004085  -0.017293   0.002543   0.007364
     2  P   -0.025545  -0.019856  -0.027030  -0.000106  -0.000264  -0.000012
     3  P   -0.000806   0.000016   0.000049   0.325734  -0.026139  -0.019744
     4  C   -0.001812  -0.005013   0.002329  -0.000009   0.000086  -0.000000
     5  H    0.000014  -0.000058  -0.000038  -0.000003  -0.000027  -0.000000
     6  H   -0.000299   0.003309  -0.000060   0.000000  -0.000002  -0.000000
     7  H    0.000658  -0.000311   0.000021  -0.000054  -0.000065  -0.000003
     8  C    0.002368  -0.004804  -0.001375  -0.000001  -0.000000   0.000000
     9  H    0.000008  -0.000332   0.000792  -0.000000   0.000000   0.000000
    10  H   -0.000045   0.003480  -0.000331   0.000000   0.000000  -0.000000
    11  H   -0.000039  -0.000046  -0.000004  -0.000000   0.000000   0.000000
    12  C    0.368994   0.351802   0.370897   0.000010   0.000000  -0.000000
    13  H    0.486562  -0.025948  -0.021213   0.000000  -0.000005  -0.000000
    14  H   -0.025948   0.531754  -0.026268  -0.000000  -0.000000   0.000000
    15  H   -0.021213  -0.026268   0.479289  -0.000000   0.000000   0.000000
    16  C    0.000000  -0.000000  -0.000000   5.372987   0.369672   0.351916
    17  H   -0.000005  -0.000000   0.000000   0.369672   0.483583  -0.025909
    18  H   -0.000000   0.000000   0.000000   0.351916  -0.025909   0.531029
    19  H    0.000000  -0.000000   0.000000   0.370388  -0.020913  -0.025978
    20  C   -0.000000   0.000000  -0.000000  -0.044732   0.002381  -0.005035
    21  H   -0.000000  -0.000000   0.000000  -0.005087  -0.000054   0.003493
    22  H   -0.000000   0.000000   0.000000   0.002409  -0.000038  -0.000057
    23  H    0.000000   0.000000   0.000000  -0.001623   0.000008  -0.000328
    24  C    0.000407  -0.000002  -0.000002  -0.043048  -0.001694  -0.004895
    25  H   -0.000023  -0.000001  -0.000000   0.002346   0.000003  -0.000053
    26  H   -0.000010   0.000000  -0.000000  -0.004754  -0.000305   0.003241
    27  H    0.000021  -0.000007   0.000001  -0.002089   0.000820  -0.000312
    28  H    0.000002  -0.000001   0.000006  -0.000053  -0.000004   0.000002
    29  H   -0.000001   0.000000   0.000018   0.000092   0.000003  -0.000001
              19         20         21         22         23         24
     1  Pt   0.004221  -0.015234   0.006396   0.003726   0.003364  -0.023788
     2  P    0.000052   0.000750  -0.000019   0.000039   0.000002  -0.002303
     3  P   -0.026469   0.311227  -0.016637  -0.029748  -0.028067   0.329986
     4  C   -0.000000  -0.000001   0.000000  -0.000000   0.000000   0.000015
     5  H    0.000001  -0.000000   0.000000   0.000000   0.000000   0.000004
     6  H   -0.000000   0.000000  -0.000000   0.000000  -0.000000  -0.000002
     7  H    0.000001  -0.000000  -0.000000   0.000000   0.000000  -0.000009
     8  C   -0.000000  -0.000000   0.000000  -0.000000  -0.000000  -0.000001
     9  H    0.000000  -0.000000   0.000000   0.000000  -0.000000   0.000000
    10  H    0.000000   0.000000  -0.000000   0.000000   0.000000   0.000000
    11  H    0.000000  -0.000000   0.000000   0.000000   0.000000   0.000000
    12  C    0.000000  -0.000002   0.000000  -0.000000   0.000000  -0.000020
    13  H    0.000000  -0.000000  -0.000000  -0.000000   0.000000   0.000407
    14  H   -0.000000   0.000000  -0.000000   0.000000   0.000000  -0.000002
    15  H    0.000000  -0.000000   0.000000   0.000000   0.000000  -0.000002
    16  C    0.370388  -0.044732  -0.005087   0.002409  -0.001623  -0.043048
    17  H   -0.020913   0.002381  -0.000054  -0.000038   0.000008  -0.001694
    18  H   -0.025978  -0.005035   0.003493  -0.000057  -0.000328  -0.004895
    19  H    0.478627  -0.001323  -0.000335  -0.000006   0.000826   0.002346
    20  C   -0.001323   5.395090   0.347338   0.373104   0.371896  -0.052365
[...]
 56277,-0.00011412,-0.06585213,0.01224845,0.07669594,0.00818306,-0.0038
 1314,-0.02347250,-0.00222390,0.00011811,0.00355363,0.06730687,0.000406
 16,-0.00028253,-0.00013993,0.00012139,0.00004878,0.00011553,-0.0034236
 8,0.00052417,0.01311863,0.00003421,-0.00001120,-0.00001229,-0.00000801
 ,-0.00000498,-0.00000703,0.00000234,0.00001072,-0.00000866,-0.00000064
 ,0.00001836,0.00000334,0.00005032,0.00001615,-0.00004549,-0.00000441,0
 .00000052,0.00000010,0.00002517,-0.00000221,0.00000840,-0.00000928,-0.
 00000085,-0.00000590,0.00001820,0.00000615,0.00000774,0.00000742,-0.00
 000882,-0.00001379,-0.00000125,-0.00000168,-0.00001297,-0.00000561,0.0
 0000178,-0.00000557,0.00096984,0.00075219,-0.00013364,-0.00003283,0.00
 030145,-0.00016827,0.00001571,-0.00006302,0.00007594,-0.00023900,-0.00
 073870,-0.00012302,0.01043247,-0.04688924,-0.02646496,-0.00412207,0.00
 037491,0.01046618,0.00939206,-0.00183331,-0.03164404,-0.00991585,0.049
 40267,-0.00010426,0.00005952,0.00057870,-0.00001394,-0.00003020,-0.000
 20269,-0.00105320,-0.00065676,-0.00337995,-0.00002386,0.00000694,0.000
 01326,0.00000426,0.00000624,0.00000126,0.00000215,-0.00000735,0.000005
 13,0.00000104,-0.00001236,0.00000389,-0.00003507,-0.00001218,0.0000441
 5,0.00000272,0.00000047,-0.00000141,-0.00001546,0.00000406,-0.00000860
 ,0.00000819,0.00000022,0.00000520,-0.00000059,0.00000049,-0.00000681,-
 0.00000075,0.00000017,0.00001337,0.00000471,0.00000093,0.00000357,-0.0
 0000108,0.00000138,0.00000080,-0.00021877,0.00025497,0.00013048,-0.000
 01914,0.00007339,0.00014672,0.00006410,-0.00000663,-0.00006722,0.00001
 563,0.00026487,0.00004555,0.07109337,-0.03130266,-0.30430171,0.0060314
 6,-0.00242275,-0.01525306,0.00068280,0.00022498,-0.00387202,-0.0777254
 3,0.03350865,0.32516023,-0.00259334,-0.00265023,-0.00685014,0.00401859
 ,0.00106843,-0.00117518,-0.04421296,-0.00334580,-0.00933897,-0.0006925
 2,-0.00001992,0.00013292,0.00005144,0.00004814,0.00000051,-0.00007043,
 -0.00024810,0.00010555,0.00001233,0.00000838,0.00000891,-0.00044986,-0
 .00020544,0.00020882,0.00008861,-0.00001272,0.00002488,-0.00020507,-0.
 00002086,-0.00006951,0.00002321,0.00001276,-0.00000975,-0.00004859,-0.
 00018871,0.00011278,0.00018086,0.00007505,-0.00004396,-0.00008516,0.00
 004484,0.00009447,0.00002095,-0.00002997,-0.00001225,-0.00063233,0.001
 96730,0.00816958,0.00012586,-0.00010832,-0.00047745,0.00047292,-0.0006
 8579,0.00097607,-0.00044451,0.00196764,0.00046084,-0.00425332,0.001701
 63,0.02246380,0.00128103,0.00065617,0.00070494,0.00098598,0.00031698,-
 0.00058786,-0.00488881,-0.00325605,0.00103454,0.55950196,0.00032470,0.
 00276917,0.00170283,-0.00083597,-0.00040818,0.00011352,-0.00084438,-0.
 04877532,-0.00170923,0.00006018,0.00005710,-0.00004376,0.00004350,-0.0
 0000498,0.00005299,0.00002424,0.00005906,-0.00001117,0.00003680,-0.000
 11803,-0.00004551,0.00016247,0.00007978,-0.00008213,-0.00002889,0.0000
 0551,-0.00000596,0.00007626,0.00001316,0.00003170,0.00000436,-0.000005
 75,0.00001475,-0.00003718,-0.00005975,-0.00005646,-0.00006964,0.000153
 62,0.00002100,0.00000982,-0.00001415,-0.00003336,0.00009703,-0.0000225
 6,0.00007840,0.00445503,-0.00293082,-0.02722951,-0.00060638,0.00141968
 ,0.00042161,-0.00071042,0.00179951,0.00015995,0.00195565,-0.00690834,-
 0.00051847,-0.00283608,0.00322710,0.01606075,0.00064503,0.00025111,-0.
 00056069,0.00101886,0.00051775,-0.00024069,-0.00387741,-0.00221608,0.0
 0050548,0.00182687,0.55848514,-0.00138899,-0.00104556,-0.00270649,0.00
 197685,0.00026950,-0.00027048,0.01232517,-0.01159310,-0.15922669,-0.00
 017992,0.00001143,0.00011124,0.00001578,0.00003501,-0.00000387,-0.0000
 5758,-0.00007532,-0.00000260,0.00007020,0.00006707,-0.00006352,-0.0001
 2709,-0.00000884,0.00006051,0.00002245,-0.00000091,-0.00000515,-0.0000
 7990,-0.00002304,0.00000031,0.00000970,0.00000152,-0.00000262,-0.00011
 457,0.00001821,0.00005061,0.00009045,-0.00006714,-0.00009754,-0.000043
 01,0.00002341,0.00005950,0.00000431,-0.00000919,-0.00002039,-0.0001922
 8,-0.00009154,-0.00427806,-0.00043514,0.00028315,0.00022550,0.00011998
 ,0.00091162,0.00087496,-0.00016552,-0.00023071,0.00042859,0.00024199,-
 0.00033905,-0.00704128,-0.00076788,-0.00072108,0.00087393,-0.00044443,
 0.00022195,0.00016782,0.00056230,0.00082156,0.00039103,0.01395284,-0.0
 1208367,0.40289599,-0.00021046,-0.00006180,0.00004158,0.00008521,-0.00
 010895,-0.00017201,-0.00188972,0.00116117,0.00053822,0.00004488,0.0000
 2589,0.00004720,0.00000099,0.00000872,-0.00000346,-0.00001627,0.000017
 05,-0.00002535,0.00003112,0.00001080,-0.00002004,-0.00000696,0.0000617
 0,0.00005481,-0.00000687,0.00000026,-0.00001045,-0.00000211,-0.0000072
 8,-0.00000500,0.00001693,-0.00000348,0.00001527,-0.00006530,0.00009348
 ,-0.00004867,-0.00035027,-0.00020082,0.00011621,0.00004628,0.00001624,
 0.00007325,-0.00003522,0.00002688,-0.00001174,0.00017388,0.00015748,0.
 00058741,0.00000746,0.00028173,0.00006304,0.00027400,-0.00039765,-0.00
 004565,0.00037980,0.00017739,0.00006425,-0.00014309,0.00004869,-0.0003
 3004,-0.00000823,0.00009424,0.00000288,-0.00018779,-0.00018618,0.00037
 656,0.00007950,-0.00012482,-0.00004653,-0.06613769,0.07006601,0.016081
 43,0.06714967,-0.00023683,0.00025619,0.00017595,0.00003969,-0.00017772
 ,-0.00024624,-0.00001950,-0.00067591,0.00174252,0.00002126,0.00002674,
 0.00005642,-0.00000004,0.00001581,0.00000038,-0.00001016,0.00000443,-0
 .00001010,0.00002340,-0.00000533,-0.00002154,-0.00003709,0.00005555,0.
 00007005,-0.00000882,0.00000003,-0.00001210,-0.00000991,-0.00000135,-0
 .00001258,0.00002349,-0.00000236,0.00001838,-0.00008848,0.00007713,-0.
 00007334,-0.00016050,-0.00008643,0.00007824,0.00005188,0.00000353,0.00
 006207,-0.00001600,0.00000456,0.00000351,-0.00029006,0.00037589,-0.000
 44259,-0.00000301,0.00013486,0.00012436,-0.00019881,0.00019782,0.00007
 297,0.00000114,0.00009104,0.00012911,0.00024276,0.00023815,-0.00039749
 ,-0.00005526,-0.00003505,-0.00003984,0.00007313,-0.00000249,0.00005181
 ,0.00010569,0.00012719,-0.00007420,0.06877661,-0.29186063,-0.06195000,
 -0.07479044,0.31299686,0.00002956,0.00107575,0.00059048,-0.00027277,-0
 .00008372,0.00002385,0.00609197,-0.02424615,-0.00357791,0.00009155,0.0
 0002158,-0.00002526,0.00000144,-0.00000768,0.00000817,0.00001824,0.000
 03554,-0.00000609,-0.00000074,-0.00001989,-0.00000006,0.00001162,0.000
 02410,0.00000255,-0.00001057,0.00000352,-0.00000509,0.00001330,0.00000
 539,0.00000339,0.00000716,-0.00000289,0.00000478,0.00001867,-0.0000047
 4,-0.00001223,-0.00007464,-0.00003039,0.00006310,0.00001507,0.00001990
 ,0.00000733,-0.00002434,0.00002502,-0.00000618,0.00087376,0.00011365,-
 0.00738575,-0.00025202,0.00026259,0.00011915,-0.00000416,0.00045091,0.
 00006822,0.00070459,-0.00228555,0.00005299,-0.00037401,0.00045447,0.00
 131559,0.00001777,0.00001154,-0.00010149,0.00055285,0.00045690,-0.0003
 0478,-0.00041870,0.00007636,0.00000819,0.01827659,-0.06953469,-0.05883
 936,-0.01847923,0.06729177,0.06188099,-0.00004470,0.00032239,-0.000621
 04,0.00042861,0.00002828,0.00011986,0.00151288,-0.00067317,0.00300503,
 -0.00000721,-0.00003000,0.00001058,-0.00001824,0.00000543,-0.00001543,
 -0.00001002,-0.00001789,0.00000783,0.00001162,0.00005883,-0.00000235,-
 0.00000956,-0.00002780,-0.00002088,0.00000252,0.00000363,-0.00000069,-
 0.00002148,-0.00000154,0.00000876,-0.00000944,0.00000164,-0.00001276,0
 .00004927,-0.00001460,0.00006615,0.00004758,-0.00000967,-0.00010271,-0
 .00004147,-0.00000025,-0.00002324,-0.00001161,-0.00000024,-0.00001998,
 0.00071119,-0.00050570,0.00014042,-0.00004189,0.00003503,-0.00005852,-
 0.00001623,-0.00036199,-0.00038975,0.00010480,-0.00014247,0.00008116,0
 .00108588,-0.00026843,0.00051402,0.00008682,0.00031822,-0.00017756,-0.
 00006719,-0.00005985,-0.00007287,0.00018200,0.00001430,0.00003418,-0.2
 5080239,0.05335074,-0.10447638,-0.00606091,0.00033065,-0.00281911,0.27
 048174,-0.00009602,0.00054009,-0.00011510,0.00014950,-0.00008601,0.000
 05166,-0.00199270,-0.00046376,-0.00131985,0.00004419,-0.00001797,0.000
 01419,-0.00001760,0.00000625,-0.00001092,0.00000026,0.00000174,-0.0000
 0184,0.00001526,0.00004089,0.00001065,0.00000641,0.00002327,0.00000147
 ,-0.00000553,0.00000095,-0.00000666,0.00000321,-0.00000115,0.00000501,
 0.00000505,0.00000046,0.00000190,-0.00000185,0.00003594,-0.00000636,-0
 .00000503,-0.00007782,0.00001561,0.00001109,0.00001241,0.00001818,-0.0
 0003311,0.00001495,-0.00001908,-0.00109814,0.00032151,-0.00013959,-0.0
 0001382,-0.00009863,-0.00001617,0.00031953,0.00001997,-0.00010761,0.00
 007253,0.00003040,0.00015021,0.00013780,-0.00030234,0.00027204,-0.0001
 6347,0.00012957,0.00024388,0.00001582,-0.00008868,0.00008340,-0.000118
 23,-0.00005463,-0.00012214,0.05271972,-0.06248705,0.02769018,0.0260910
 9,-0.00457552,0.01492867,-0.05909104,0.06154506,-0.00106648,-0.0011829
 5,-0.00171320,0.00173888,0.00044405,-0.00084204,-0.02036452,0.00479178
 ,-0.01380850,-0.00029044,0.00000986,0.00010505,0.00002897,0.00002874,-
 0.00000116,-0.00004663,-0.00010635,0.00003272,-0.00000514,-0.00001488,
 -0.00002057,-0.00025582,-0.00008218,0.00018345,0.00004131,-0.00000553,
 0.00000664,-0.00012236,-0.00001000,-0.00004129,0.00002977,0.00000416,0
 .00000869,-0.00016203,-0.00003640,-0.00001466,-0.00006074,-0.00000710,
 0.00006751,-0.00000628,0.00002941,0.00009957,0.00000192,-0.00001083,-0
 .00000178,-0.00022178,0.00090106,0.00180999,0.00005256,0.00001343,-0.0
 0002133,0.00066173,-0.00091488,0.00006660,0.00019433,0.00041235,0.0003
 6970,-0.00081303,-0.00016170,0.00174875,0.00119789,0.00024676,-0.00000
 002,0.00009053,0.00000767,-0.00003003,-0.00015376,-0.00044714,0.000485
 62,-0.11406506,0.03068051,-0.09989083,0.00853533,-0.00116833,0.0036455
 6,0.11524867,-0.03046762,0.10360022,0.00009663,0.00022142,-0.00005983,
 0.00023783,-0.00000005,-0.00006538,-0.00237094,-0.00021032,-0.00058552
 ,0.00001214,0.00007029,0.00004112,0.00003415,0.00000641,0.00002106,0.0
 0000034,-0.00000078,0.00000758,-0.00033462,-0.00035807,-0.00021053,0.0
 0003045,0.00003573,0.00000141,-0.00000111,0.00000079,-0.00000186,0.000
 01108,-0.00000470,0.00000708,0.00001165,-0.00000342,0.00000822,-0.0000
 7954,-0.00001353,-0.00006258,-0.00039345,0.00026941,-0.00005793,0.0000
 2300,-0.00000878,0.00004659,0.00003472,-0.00000925,0.00000989,-0.00006
 460,0.00021795,-0.00020150,-0.00002834,0.00024494,0.00025582,-0.000104
 57,-0.00004780,0.00004450,0.00009275,0.00010259,-0.00006945,0.00028466
 ,0.00008803,0.00100251,0.00054881,0.00008928,-0.00008312,-0.00005894,-
 0.00010379,-0.00004772,0.00012006,-0.00032607,0.00013598,-0.19019071,-
 0.12461238,0.06336882,0.00680032,0.00619177,-0.00409821,-0.01744063,-0
 .01700687,0.01024533,0.20277295,0.00049085,0.00004218,-0.00036369,-0.0
 0000661,0.00009016,0.00054360,0.00233526,0.00070282,-0.00257577,0.0000
 3356,-0.00007053,-0.00007382,-0.00002202,-0.00002006,-0.00002049,0.000
 01198,-0.00000223,0.00002212,-0.00028345,-0.00006648,-0.00011151,0.000
 05302,-0.00006157,-0.00010532,0.00000057,0.00000448,0.00000806,0.00001
 347,0.00000453,0.00001574,-0.00003428,0.00000319,-0.00002751,0.0001430
 3,-0.00004261,0.00010195,0.00039286,-0.00011283,-0.00006617,-0.0000641
 8,0.00000123,-0.00008780,-0.00004614,0.00001424,-0.00003545,0.00008030
 ,0.00038569,0.00051436,-0.00002084,-0.00016126,-0.00034120,0.00007328,
 -0.00003093,0.00005143,-0.00006235,0.00016732,0.00009859,0.00054906,0.
 00012665,-0.00091525,-0.00010531,-0.00007329,-0.00003089,0.00011086,0.
 00016504,-0.00012422,0.00018064,0.00039179,-0.00018336,-0.12327142,-0.
 15219983,0.05689113,-0.02240786,-0.01718775,0.01120335,0.00672547,0.00
 540774,-0.00392595,0.13518504,0.16251624,-0.00009793,-0.00085803,0.001
 20660,-0.00047719,0.00038412,-0.00041992,0.01843678,0.01666247,-0.0067
 9530,-0.00003041,0.00005954,-0.00008449,0.00003102,-0.00000707,0.00001
 797,0.00005054,-0.00000583,0.00003662,-0.00026109,-0.00030587,0.000015
 81,-0.00003196,-0.00006430,0.00005062,0.00002594,-0.00001032,0.0000194
 6,-0.00000665,0.00000510,-0.00001176,0.00000892,0.00000307,0.00000766,
 0.00001406,-0.00007908,-0.00002825,-0.00022332,0.00013874,0.00001728,0
 .00003433,-0.00000680,0.00001036,0.00003478,-0.00001925,0.00000551,-0.
 00054125,0.00020813,0.00178503,0.00011127,-0.00080776,-0.00029635,0.00
 004463,-0.00009984,-0.00008729,-0.00037401,0.00032318,0.00004125,0.000
 40531,-0.00142704,-0.00719978,-0.00021668,-0.00029271,0.00014868,-0.00
 040370,-0.00005724,0.00015235,0.00202534,0.00122575,-0.00007439,0.0687
 6017,0.06185997,-0.07253200,-0.00743356,-0.00531332,0.00251148,-0.0103
 5088,-0.01075934,0.00507909,-0.06956467,-0.06047375,0.07588946,-0.0075
 1931,-0.03664641,0.07023981,-0.00117625,0.00100258,-0.00337660,-0.0038
 5080,0.00668276,-0.01276296,-0.00086652,0.00003953,0.00038943,0.000041
 61,0.00002075,0.00001225,-0.00022257,-0.00037180,0.00022994,-0.0000061
 7,-0.00002557,-0.00005957,-0.00211588,-0.00096461,0.00190609,-0.000191
 22,0.00018086,0.00011618,-0.00113530,0.00016883,-0.00062493,-0.0001096
 2,-0.00021810,-0.00001152,-0.00081266,-0.00043745,0.00021894,-0.000004
 88,0.00006108,-0.00001013,-0.00023883,0.00008681,0.00042341,0.00001876
 ,0.00000703,0.00001840,-0.00006108,-0.00007393,0.00042320,0.00001390,-
 0.00014208,-0.00001218,0.00000625,-0.00018969,0.00017609,0.00002898,0.
 00009148,0.00010818,0.00284670,-0.00145106,0.00261434,0.00140637,0.000
 71070,-0.00013529,-0.00009458,-0.00003097,0.00012474,-0.00004657,-0.00
 017840,0.00004351,-0.00091648,0.00023207,-0.00042893,-0.00000652,-0.00
 000955,0.00010166,0.00007126,-0.00005089,-0.00025253,-0.00003772,0.000
 02402,0.00008079,0.16543781,-0.00133041,-0.00866634,0.00146292,-0.0032
 3199,0.00193449,0.00774786,-0.00238867,-0.00107705,0.00133716,0.000325
 46,-0.00009025,-0.00032989,-0.00001221,-0.00019482,-0.00000013,0.00000
 314,0.00008292,-0.00015294,-0.00003874,0.00006073,-0.00000696,0.000914
 97,0.00024788,-0.00070074,0.00001095,-0.00002705,-0.00000373,0.0003886
 9,-0.00008573,0.00013799,-0.00012745,0.00002028,-0.00012515,-0.0020355
 6,-0.00073701,0.00055374,0.00002757,-0.00009977,-0.00020655,-0.0002569
 4,0.00038354,0.00053560,0.00004010,-0.00001240,-0.00010526,0.00001257,
 0.00003092,-0.00008798,0.00000568,0.00001876,0.00002342,-0.00005119,0.
 00003436,0.00000576,-0.00001811,0.00003346,0.00001013,-0.00092113,0.00
 042234,-0.00086048,-0.00047355,-0.00014212,0.00004769,0.00012748,0.000
 03799,-0.00001493,0.00000358,0.00003187,-0.00001130,0.00079508,-0.0001
 4461,0.00017671,-0.00004897,0.00003384,-0.00003549,-0.00000646,0.00009
 233,0.00025898,-0.00000624,0.00000535,-0.00013193,0.02468933,0.0169204
 5,0.00218065,-0.00296964,0.00040448,0.00569041,0.00822373,-0.00964870,
 0.00409862,0.00192096,-0.00430801,0.00234562,0.00025448,-0.00079191,-0
 .00003597,-0.00002805,0.00008223,0.00018190,0.00075467,-0.00005728,0.0
 0001640,-0.00029011,0.00009539,-0.00184671,-0.00078991,0.00131426,0.00
 010535,-0.00002105,0.00016639,-0.00082390,0.00002923,-0.00036932,0.000
 03234,-0.00007536,0.00004539,0.00051851,-0.00012192,-0.00004647,0.0000
 2087,0.00010411,0.00013670,0.00007141,-0.00021833,0.00000573,0.0000306
 5,-0.00015655,-0.00010021,0.00046533,-0.00010150,0.00068200,0.00000184
 ,-0.00015148,-0.00004000,0.00006758,-0.00032720,0.00016898,-0.00008265
 ,0.00014722,0.00003520,0.00154279,-0.00048580,0.00125079,0.00071451,0.
 00029477,0.00007900,-0.00001593,-0.00001788,0.00002733,-0.00005413,-0.
 00010557,0.00007317,-0.00101937,0.00015998,-0.00041598,-0.00001652,-0.
 00004226,-0.00002163,0.00000163,-0.00017847,-0.00029632,-0.00001771,0.
 00002259,0.00025521,-0.02279454,-0.01107662,0.02743238,0.00446651,0.03
 603784,-0.07001044,-0.00510647,-0.00655159,0.01296914,-0.00081300,-0.0
 0293279,0.00452381,-0.00084892,-0.00016469,0.00016372,0.00003875,0.000
 01362,-0.00005255,0.00000244,-0.00020658,-0.00005892,-0.00000916,0.000
 15497,-0.00003961,0.00371129,0.00141993,-0.00264794,-0.00004963,-0.000
 03101,-0.00019100,0.00161086,-0.00017179,0.00079763,-0.00004029,0.0001
 4354,-0.00010836,-0.00053710,0.00007455,0.00005207,0.00000987,-0.00009
 162,-0.00013471,-0.00000858,0.00015730,-0.00003362,0.00004445,0.000067
 20,-0.00000935,-0.00093534,0.00005597,-0.00096562,0.00001823,0.0000349
 5,0.00005458,-0.00026441,0.00055691,-0.00013060,-0.00001370,0.00001506
 ,-0.00000670,-0.00204417,0.00128952,-0.00221422,-0.00125091,-0.0006041
 5,0.00019263,0.00000781,-0.00004713,-0.00017741,-0.00026303,0.00015837
 ,0.00009946,-0.00013956,0.00006908,0.00005933,0.00003736,0.00005301,0.
 00000269,-0.00017320,0.00010284,-0.00018064,-0.00000640,-0.00007882,-0
 .00005060,-0.15045869,-0.01639701,0.00862103,0.15301500,0.00105057,-0.
 00632751,-0.00205585,0.00197842,-0.00106479,0.00197053,0.00199566,0.00
 202933,0.00839900,-0.00006801,-0.00012101,-0.00001257,-0.00005207,-0.0
 0001332,0.00000735,0.00000733,0.,-0.00004540,-0.00002269,0.00008104,0.
 00000724,0.00086048,0.00025248,-0.00048135,-0.00008407,0.00001042,-0.0
 0008068,0.00035469,0.00008591,0.00014204,0.00006320,0.00000273,-0.0000
 0818,-0.00012979,0.00005820,-0.00008364,0.00001650,-0.00006399,-0.0001
 3037,-0.00004041,0.00013269,-0.00007688,-0.00002739,0.00009199,0.00006
 904,-0.00101466,0.00006984,-0.00094428,0.00003721,-0.00007248,0.000018
 46,-0.00016696,0.00041709,-0.00004569,0.00007159,-0.00017665,-0.000052
 93,-0.00037022,0.00000647,-0.00042780,-0.00020237,-0.00012887,-0.00006
 479,-0.00006699,-0.00006574,-0.00001520,0.00008282,0.00009858,-0.00007
 088,0.00205771,-0.00068160,0.00081670,-0.00000059,-0.00002907,-0.00020
 981,0.00001648,0.00003003,0.00071309,-0.00001163,0.00000070,-0.0001505
 8,0.00679268,-0.00911433,0.00524597,-0.01312750,0.01449185,-0.00107016
 ,0.00297851,-0.01488157,-0.00443542,0.00093852,-0.00223284,-0.00431662
 ,0.00781011,-0.00983336,0.00050521,0.00005006,-0.00001042,0.00001990,0
 .00010098,0.00002084,0.00004779,0.00017016,0.00014109,-0.00000286,-0.0
 0022330,0.00006999,-0.00129880,-0.00043715,0.00068593,0.00001514,-0.00
 002478,0.00004122,-0.00055811,0.00004556,-0.00012093,0.00009724,-0.000
 02328,0.00006492,-0.00000336,-0.00017949,0.00005074,0.00000848,0.00010
 121,0.00010651,-0.00000896,-0.00006796,0.00011250,0.00006904,-0.000031
 50,-0.00005528,-0.00138885,0.00005031,-0.00065277,0.00003363,-0.000235
 31,-0.00003044,-0.00025474,0.00039647,0.00018821,-0.00002462,0.0000770
 6,0.00009530,0.00137718,-0.00068741,0.00125332,0.00064091,0.00026590,-
 0.00001759,-0.00013540,-0.00009552,0.00003213,-0.00010305,-0.00008990,
 0.00005755,-0.00183872,0.00029186,-0.00074312,0.00005080,-0.00007361,-
 0.00002000,-0.00007414,-0.00021628,-0.00062745,-0.00006991,-0.00001079
 ,0.00027910,-0.03675780,0.00155209,-0.01615882,0.04947621,-0.01243251,
 0.04218521\\-0.00000061,-0.00000072,-0.00000014,0.00000148,0.00000023,
 0.00000025,-0.00000054,0.00000093,0.00000100,0.00000009,-0.00000015,-0
 .00000064,0.00000060,0.00000006,-0.00000071,-0.00000007,-0.00000038,-0
 .00000109,-0.00000009,-0.00000037,-0.00000048,-0.00000013,0.00000021,-
 0.00000002,-0.00000006,0.00000023,0.00000025,-0.00000002,-0.00000003,-
 0.00000032,0.00000013,0.00000040,-0.00000029,0.00000009,-0.00000022,-0
 .00000006,0.00000018,-0.00000034,-0.00000002,-0.00000001,-0.00000098,0
 .00000005,-0.00000045,-0.00000049,0.00000047,-0.00000042,0.00000027,-0
 .00000120,0.00000005,0.00000008,-0.00000044,0.00000007,0.00000038,-0.0
 0000054,0.00000004,0.00000046,-0.00000040,0.00000034,0.,0.00000090,0.0
 0000016,0.00000021,0.00000041,-0.00000016,0.00000017,0.00000091,-0.000
 00004,0.00000072,0.00000049,-0.00000020,-0.00000070,-0.00000007,-0.000
 00050,-0.00000056,0.00000043,-0.00000007,-0.00000029,0.00000014,0.0000
 0006,-0.00000079,-0.00000008,-0.00000044,0.00000138,0.00000035,0.00000
 051,0.00000028,0.00000084\\\@


 MAN IS A SINGULAR CREATURE.  HE HAS A SET OF GIFTS
 WHICH MAKE HIM UNIQUE AMONG THE ANIMALS: SO THAT, 
 UNLIKE THEM, HE IS NOT A FIGURE IN THE LANDSCAPE --
 HE IS A SHAPER OF THE LANDSCAPE.

                       -- JACOB BRONOWSKI
 Job cpu time:       0 days  5 hours 10 minutes 22.7 seconds.
 Elapsed time:       0 days  0 hours 13 minutes  2.1 seconds.
 File lengths (MBytes):  RWF=    237 Int=      0 D2E=      0 Chk=     17 Scr=      1
 Normal termination of Gaussian 16 at Fri Nov  1 08:28:02 2019.
