 Entering Gaussian System, Link 0=g16
 Input=Pt_tsb.gjf
 Output=Pt_tsb.log
 Initial command:
 /usr/g16/l1.exe "/scratch/wsr/gaussian/Gau-188472.inp" -scrdir="/scratch/wsr/gaussian/"
 Entering Link 1 = /usr/g16/l1.exe PID=    188473.
  
 Copyright (c) 1988,1990,1992,1993,1995,1998,2003,2009,2016,
            Gaussian, Inc.  All Rights Reserved.
  
 This is part of the Gaussian(R) 16 program.  It is based on
 the Gaussian(R) 09 system (copyright 2009, Gaussian, Inc.),
 the Gaussian(R) 03 system (copyright 2003, Gaussian, Inc.),
 the Gaussian(R) 98 system (copyright 1998, Gaussian, Inc.),
 the Gaussian(R) 94 system (copyright 1995, Gaussian, Inc.),
 the Gaussian 92(TM) system (copyright 1992, Gaussian, Inc.),
 the Gaussian 90(TM) system (copyright 1990, Gaussian, Inc.),
 the Gaussian 88(TM) system (copyright 1988, Gaussian, Inc.),
 the Gaussian 86(TM) system (copyright 1986, Carnegie Mellon
 University), and the Gaussian 82(TM) system (copyright 1983,
 Carnegie Mellon University). Gaussian is a federally registered
 trademark of Gaussian, Inc.
  
 This software contains proprietary and confidential information,
 including trade secrets, belonging to Gaussian, Inc.
  
 This software is provided under written license and may be
 used, copied, transmitted, or stored only in accord with that
 written license.
  
 The following legend is applicable only to US Government
 contracts under FAR:
  
                    RESTRICTED RIGHTS LEGEND
  
 Use, reproduction and disclosure by the US Government is
 subject to restrictions as set forth in subparagraphs (a)
 and (c) of the Commercial Computer Software - Restricted
 Rights clause in FAR 52.227-19.
  
 Gaussian, Inc.
 340 Quinnipiac St., Bldg. 40, Wallingford CT 06492
  
  
 ---------------------------------------------------------------
 Warning -- This program may not be used in any manner that
 competes with the business of Gaussian, Inc. or will provide
 assistance to any competitor of Gaussian, Inc.  The licensee
 of this program is prohibited from giving any competitor of
 Gaussian, Inc. access to this program.  By using this program,
 the user acknowledges that Gaussian, Inc. is engaged in the
 business of creating and licensing software in the field of
 computational chemistry and represents and warrants to the
 licensee that it is not a competitor of Gaussian, Inc. and that
 it will not use this program in any manner prohibited above.
 ---------------------------------------------------------------
  

 Cite this work as:
 Gaussian 16, Revision A.03,
 M. J. Frisch, G. W. Trucks, H. B. Schlegel, G. E. Scuseria, 
 M. A. Robb, J. R. Cheeseman, G. Scalmani, V. Barone, 
 G. A. Petersson, H. Nakatsuji, X. Li, M. Caricato, A. V. Marenich, 
 J. Bloino, B. G. Janesko, R. Gomperts, B. Mennucci, H. P. Hratchian, 
 J. V. Ortiz, A. F. Izmaylov, J. L. Sonnenberg, D. Williams-Young, 
 F. Ding, F. Lipparini, F. Egidi, J. Goings, B. Peng, A. Petrone, 
 T. Henderson, D. Ranasinghe, V. G. Zakrzewski, J. Gao, N. Rega, 
 G. Zheng, W. Liang, M. Hada, M. Ehara, K. Toyota, R. Fukuda, 
 J. Hasegawa, M. Ishida, T. Nakajima, Y. Honda, O. Kitao, H. Nakai, 
 T. Vreven, K. Throssell, J. A. Montgomery, Jr., J. E. Peralta, 
 F. Ogliaro, M. J. Bearpark, J. J. Heyd, E. N. Brothers, K. N. Kudin, 
 V. N. Staroverov, T. A. Keith, R. Kobayashi, J. Normand, 
 K. Raghavachari, A. P. Rendell, J. C. Burant, S. S. Iyengar, 
 J. Tomasi, M. Cossi, J. M. Millam, M. Klene, C. Adamo, R. Cammi, 
 J. W. Ochterski, R. L. Martin, K. Morokuma, O. Farkas, 
 J. B. Foresman, and D. J. Fox, Gaussian, Inc., Wallingford CT, 2016.
 
 ******************************************
 Gaussian 16:  ES64L-G16RevA.03 25-Dec-2016
                 1-Nov-2019 
 ******************************************
 %chk=Pt_tsb.chk
 %nprocshared=24
 Will use up to   24 processors via shared memory.
 ------------------------------------------------------------------
 #p opt=(calcfc,ts,noeigen) M062X/genecp scrf=(smd,solvent=benzene)
 ------------------------------------------------------------------
 1/5=1,10=4,11=1,18=20,26=3,38=1/1,3;
 2/9=110,12=2,17=6,18=5,40=1/2;
 3/5=7,11=2,16=1,17=8,25=1,30=1,70=32201,71=2,72=12,74=-55,140=1/1,2,3;
 4//1;
 5/5=2,38=5,53=12/2;
 8/6=4,10=90,11=11/1;
 11/6=1,8=1,9=11,15=111,16=1/1,2,10;
 10/6=1,13=1/2;
 6/7=2,8=2,9=2,10=2,28=1/1;
 7/10=1,18=20,25=1/1,2,3,16;
 1/5=1,10=4,11=1,18=20,26=3/3(2);
 2/9=110/2;
 99//99;
 2/9=110/2;
 3/5=7,6=1,11=2,16=1,17=8,25=1,30=1,70=32205,71=1,72=12,74=-55,82=7/1,2,3;
 4/5=5,16=3,69=1/1;
 5/5=2,38=5,53=12/2;
 7//1,2,3,16;
 1/5=1,11=1,18=20,26=3/3(-5);
 2/9=110/2;
 6/7=2,8=2,9=2,10=2,19=2,28=1/1;
 99/9=1/99;
 Leave Link    1 at Fri Nov  1 05:32:44 2019, MaxMem=           0 cpu:               2.4 elap:               0.1
 (Enter /usr/g16/l101.exe)
 -------------------
 Title Card Required
 -------------------
 Symbolic Z-matrix:
 Charge =  0 Multiplicity = 1
 Pt                   -0.11664   0.74248   0.01095 
 P                     2.10931  -0.02442   0.00716 
 P                    -2.12237  -0.07414   0.00878 
 C                     3.14812   0.54334   1.41696 
 H                     2.69645   0.21269   2.35799 
 H                     4.16995   0.15187   1.35033 
 H                     3.17565   1.6369    1.42111 
 C                     2.40718  -1.84554   0.03481 
 H                     1.906    -2.31446  -0.81821 
 H                     3.47839  -2.0724   -0.01841 
 H                     2.00252  -2.27285   0.95692 
 C                     3.09781   0.4892   -1.45883 
 H                     3.11594   1.58162  -1.51192 
 H                     4.12445   0.10807  -1.40814 
 H                     2.6194    0.1143   -2.36961 
 C                    -3.3954    1.02242   0.75946 
 H                    -3.40435   1.97681   0.22517 
 H                    -4.39393   0.57138   0.72257 
 H                    -3.12733   1.22281   1.80187 
 C                    -2.4736   -1.67323   0.86101 
 H                    -3.54876  -1.88677   0.86952 
 H                    -1.9577   -2.49255   0.35408 
 H                    -2.11396  -1.62283   1.89398 
 C                    -2.80121  -0.37758  -1.6769 
 H                    -2.18215  -1.11843  -2.19347 
 H                    -3.83615  -0.73712  -1.63833 
 H                    -2.76334   0.55413  -2.24982 
 H                    -0.46348   2.67137  -0.02227 
 H                     0.38359   2.57712  -0.02531 
 
 ITRead=  0  0  0  0  0  0  0  0  0  0  0  0  0  0  0  0  0  0  0  0
 ITRead=  0  0  0  0  0  0  0  0  0
 MicOpt= -1 -1 -1 -1 -1 -1 -1 -1 -1 -1 -1 -1 -1 -1 -1 -1 -1 -1 -1 -1
 MicOpt= -1 -1 -1 -1 -1 -1 -1 -1 -1
 NAtoms=     29 NQM=       29 NQMF=       0 NMMI=      0 NMMIF=      0
                NMic=       0 NMicF=      0.
                    Isotopes and Nuclear Properties:
 (Nuclear quadrupole moments (NQMom) in fm**2, nuclear magnetic moments (NMagM)
  in nuclear magnetons)

  Atom         1           2           3           4           5           6           7           8           9          10
 IAtWgt=         195          31          31          12           1           1           1          12           1           1
 AtmWgt= 194.9648000  30.9737634  30.9737634  12.0000000   1.0078250   1.0078250   1.0078250  12.0000000   1.0078250   1.0078250
 NucSpn=           1           1           1           0           1           1           1           0           1           1
 AtZEff=  -0.0000000  -0.0000000  -0.0000000  -0.0000000  -0.0000000  -0.0000000  -0.0000000  -0.0000000  -0.0000000  -0.0000000
 NQMom=    0.0000000   0.0000000   0.0000000   0.0000000   0.0000000   0.0000000   0.0000000   0.0000000   0.0000000   0.0000000
 NMagM=    0.6095000   1.1316000   1.1316000   0.0000000   2.7928460   2.7928460   2.7928460   0.0000000   2.7928460   2.7928460
 AtZNuc=  78.0000000  15.0000000  15.0000000   6.0000000   1.0000000   1.0000000   1.0000000   6.0000000   1.0000000   1.0000000

  Atom        11          12          13          14          15          16          17          18          19          20
 IAtWgt=           1          12           1           1           1          12           1           1           1          12
 AtmWgt=   1.0078250  12.0000000   1.0078250   1.0078250   1.0078250  12.0000000   1.0078250   1.0078250   1.0078250  12.0000000
 NucSpn=           1           0           1           1           1           0           1           1           1           0
 AtZEff=  -0.0000000  -0.0000000  -0.0000000  -0.0000000  -0.0000000  -0.0000000  -0.0000000  -0.0000000  -0.0000000  -0.0000000
 NQMom=    0.0000000   0.0000000   0.0000000   0.0000000   0.0000000   0.0000000   0.0000000   0.0000000   0.0000000   0.0000000
 NMagM=    2.7928460   0.0000000   2.7928460   2.7928460   2.7928460   0.0000000   2.7928460   2.7928460   2.7928460   0.0000000
 AtZNuc=   1.0000000   6.0000000   1.0000000   1.0000000   1.0000000   6.0000000   1.0000000   1.0000000   1.0000000   6.0000000

  Atom        21          22          23          24          25          26          27          28          29
 IAtWgt=           1           1           1          12           1           1           1           1           1
 AtmWgt=   1.0078250   1.0078250   1.0078250  12.0000000   1.0078250   1.0078250   1.0078250   1.0078250   1.0078250
 NucSpn=           1           1           1           0           1           1           1           1           1
 AtZEff=  -0.0000000  -0.0000000  -0.0000000  -0.0000000  -0.0000000  -0.0000000  -0.0000000  -0.0000000  -0.0000000
 NQMom=    0.0000000   0.0000000   0.0000000   0.0000000   0.0000000   0.0000000   0.0000000   0.0000000   0.0000000
 NMagM=    2.7928460   2.7928460   2.7928460   0.0000000   2.7928460   2.7928460   2.7928460   2.7928460   2.7928460
 AtZNuc=   1.0000000   1.0000000   1.0000000   6.0000000   1.0000000   1.0000000   1.0000000   1.0000000   1.0000000
 Leave Link  101 at Fri Nov  1 05:32:44 2019, MaxMem=   140000000 cpu:               4.3 elap:               0.2
 (Enter /usr/g16/l103.exe)

 GradGradGradGradGradGradGradGradGradGradGradGradGradGradGradGradGradGrad
 Berny optimization.
 Initialization pass.
                           ----------------------------
                           !    Initial Parameters    !
                           ! (Angstroms and Degrees)  !
 --------------------------                            --------------------------
 ! Name  Definition              Value          Derivative Info.                !
 --------------------------------------------------------------------------------
 ! R1    R(1,2)                  2.3544         calculate D2E/DX2 analytically  !
 ! R2    R(1,3)                  2.1656         calculate D2E/DX2 analytically  !
 ! R3    R(1,28)                 1.9601         calculate D2E/DX2 analytically  !
 ! R4    R(1,29)                 1.902          calculate D2E/DX2 analytically  !
 ! R5    R(2,4)                  1.8409         calculate D2E/DX2 analytically  !
 ! R6    R(2,8)                  1.8455         calculate D2E/DX2 analytically  !
 ! R7    R(2,12)                 1.8412         calculate D2E/DX2 analytically  !
 ! R8    R(3,16)                 1.8403         calculate D2E/DX2 analytically  !
 ! R9    R(3,20)                 1.8457         calculate D2E/DX2 analytically  !
 ! R10   R(3,24)                 1.8424         calculate D2E/DX2 analytically  !
 ! R11   R(4,5)                  1.0949         calculate D2E/DX2 analytically  !
 ! R12   R(4,6)                  1.0963         calculate D2E/DX2 analytically  !
 ! R13   R(4,7)                  1.0939         calculate D2E/DX2 analytically  !
 ! R14   R(8,9)                  1.0949         calculate D2E/DX2 analytically  !
 ! R15   R(8,10)                 1.0963         calculate D2E/DX2 analytically  !
 ! R16   R(8,11)                 1.0939         calculate D2E/DX2 analytically  !
 ! R17   R(12,13)                1.0939         calculate D2E/DX2 analytically  !
 ! R18   R(12,14)                1.0963         calculate D2E/DX2 analytically  !
 ! R19   R(12,15)                1.095          calculate D2E/DX2 analytically  !
 ! R20   R(16,17)                1.0938         calculate D2E/DX2 analytically  !
 ! R21   R(16,18)                1.0963         calculate D2E/DX2 analytically  !
 ! R22   R(16,19)                1.0948         calculate D2E/DX2 analytically  !
 ! R23   R(20,21)                1.0962         calculate D2E/DX2 analytically  !
 ! R24   R(20,22)                1.0929         calculate D2E/DX2 analytically  !
 ! R25   R(20,23)                1.095          calculate D2E/DX2 analytically  !
 ! R26   R(24,25)                1.095          calculate D2E/DX2 analytically  !
 ! R27   R(24,26)                1.0963         calculate D2E/DX2 analytically  !
 ! R28   R(24,27)                1.0944         calculate D2E/DX2 analytically  !
 ! R29   R(28,29)                0.8523         calculate D2E/DX2 analytically  !
 ! A1    A(2,1,3)              138.8358         calculate D2E/DX2 analytically  !
 ! A2    A(2,1,28)             119.1976         calculate D2E/DX2 analytically  !
 ! A3    A(2,1,29)              93.7565         calculate D2E/DX2 analytically  !
 ! A4    A(3,1,28)             101.9572         calculate D2E/DX2 analytically  !
 ! A5    A(3,1,29)             127.3956         calculate D2E/DX2 analytically  !
 ! A6    A(1,2,4)              115.5828         calculate D2E/DX2 analytically  !
 ! A7    A(1,2,8)              118.2949         calculate D2E/DX2 analytically  !
 ! A8    A(1,2,12)             114.7089         calculate D2E/DX2 analytically  !
 ! A9    A(4,2,8)              101.6411         calculate D2E/DX2 analytically  !
 ! A10   A(4,2,12)             102.7534         calculate D2E/DX2 analytically  !
 ! A11   A(8,2,12)             101.5686         calculate D2E/DX2 analytically  !
 ! A12   A(1,3,16)             114.5567         calculate D2E/DX2 analytically  !
 ! A13   A(1,3,20)             120.1642         calculate D2E/DX2 analytically  !
 ! A14   A(1,3,24)             113.8457         calculate D2E/DX2 analytically  !
 ! A15   A(16,3,20)            101.3184         calculate D2E/DX2 analytically  !
 ! A16   A(16,3,24)            102.5018         calculate D2E/DX2 analytically  !
 ! A17   A(20,3,24)            102.1021         calculate D2E/DX2 analytically  !
 ! A18   A(2,4,5)              109.4059         calculate D2E/DX2 analytically  !
 ! A19   A(2,4,6)              111.6717         calculate D2E/DX2 analytically  !
 ! A20   A(2,4,7)              108.9907         calculate D2E/DX2 analytically  !
 ! A21   A(5,4,6)              109.2019         calculate D2E/DX2 analytically  !
 ! A22   A(5,4,7)              107.9994         calculate D2E/DX2 analytically  !
 ! A23   A(6,4,7)              109.4968         calculate D2E/DX2 analytically  !
 ! A24   A(2,8,9)              109.6985         calculate D2E/DX2 analytically  !
 ! A25   A(2,8,10)             111.1736         calculate D2E/DX2 analytically  !
 ! A26   A(2,8,11)             109.7784         calculate D2E/DX2 analytically  !
 ! A27   A(9,8,10)             108.7142         calculate D2E/DX2 analytically  !
 ! A28   A(9,8,11)             108.67           calculate D2E/DX2 analytically  !
 ! A29   A(10,8,11)            108.7568         calculate D2E/DX2 analytically  !
 ! A30   A(2,12,13)            109.0343         calculate D2E/DX2 analytically  !
 ! A31   A(2,12,14)            111.653          calculate D2E/DX2 analytically  !
 ! A32   A(2,12,15)            109.4021         calculate D2E/DX2 analytically  !
 ! A33   A(13,12,14)           109.5072         calculate D2E/DX2 analytically  !
 ! A34   A(13,12,15)           107.9864         calculate D2E/DX2 analytically  !
 ! A35   A(14,12,15)           109.1834         calculate D2E/DX2 analytically  !
 ! A36   A(3,16,17)            109.046          calculate D2E/DX2 analytically  !
 ! A37   A(3,16,18)            111.7896         calculate D2E/DX2 analytically  !
 ! A38   A(3,16,19)            109.1517         calculate D2E/DX2 analytically  !
 ! A39   A(17,16,18)           109.5783         calculate D2E/DX2 analytically  !
 ! A40   A(17,16,19)           107.9013         calculate D2E/DX2 analytically  !
 ! A41   A(18,16,19)           109.2909         calculate D2E/DX2 analytically  !
 ! A42   A(3,20,21)            111.0386         calculate D2E/DX2 analytically  !
 ! A43   A(3,20,22)            110.2127         calculate D2E/DX2 analytically  !
 ! A44   A(3,20,23)            109.464          calculate D2E/DX2 analytically  !
 ! A45   A(21,20,22)           108.6959         calculate D2E/DX2 analytically  !
 ! A46   A(21,20,23)           108.8927         calculate D2E/DX2 analytically  !
 ! A47   A(22,20,23)           108.4844         calculate D2E/DX2 analytically  !
 ! A48   A(3,24,25)            109.5577         calculate D2E/DX2 analytically  !
 ! A49   A(3,24,26)            111.6943         calculate D2E/DX2 analytically  !
 ! A50   A(3,24,27)            109.0264         calculate D2E/DX2 analytically  !
 ! A51   A(25,24,26)           109.1735         calculate D2E/DX2 analytically  !
 ! A52   A(25,24,27)           108.0278         calculate D2E/DX2 analytically  !
 ! A53   A(26,24,27)           109.2867         calculate D2E/DX2 analytically  !
 ! D1    D(3,1,2,4)           -122.0006         calculate D2E/DX2 analytically  !
 ! D2    D(3,1,2,8)             -1.2171         calculate D2E/DX2 analytically  !
 ! D3    D(3,1,2,12)           118.678          calculate D2E/DX2 analytically  !
 ! D4    D(28,1,2,4)            59.356          calculate D2E/DX2 analytically  !
 ! D5    D(28,1,2,8)          -179.8606         calculate D2E/DX2 analytically  !
 ! D6    D(28,1,2,12)          -59.9655         calculate D2E/DX2 analytically  !
 ! D7    D(29,1,2,4)            59.2928         calculate D2E/DX2 analytically  !
 ! D8    D(29,1,2,8)          -179.9238         calculate D2E/DX2 analytically  !
 ! D9    D(29,1,2,12)          -60.0287         calculate D2E/DX2 analytically  !
 ! D10   D(2,1,3,16)           153.5301         calculate D2E/DX2 analytically  !
 ! D11   D(2,1,3,20)            32.5242         calculate D2E/DX2 analytically  !
 ! D12   D(2,1,3,24)           -88.9427         calculate D2E/DX2 analytically  !
 ! D13   D(28,1,3,16)          -27.6804         calculate D2E/DX2 analytically  !
 ! D14   D(28,1,3,20)         -148.6862         calculate D2E/DX2 analytically  !
 ! D15   D(28,1,3,24)           89.8469         calculate D2E/DX2 analytically  !
 ! D16   D(29,1,3,16)          -28.0944         calculate D2E/DX2 analytically  !
 ! D17   D(29,1,3,20)         -149.1003         calculate D2E/DX2 analytically  !
 ! D18   D(29,1,3,24)           89.4328         calculate D2E/DX2 analytically  !
 ! D19   D(1,2,4,5)             59.1297         calculate D2E/DX2 analytically  !
 ! D20   D(1,2,4,6)           -179.8584         calculate D2E/DX2 analytically  !
 ! D21   D(1,2,4,7)            -58.756          calculate D2E/DX2 analytically  !
 ! D22   D(8,2,4,5)            -70.3051         calculate D2E/DX2 analytically  !
 ! D23   D(8,2,4,6)             50.7068         calculate D2E/DX2 analytically  !
 ! D24   D(8,2,4,7)            171.8092         calculate D2E/DX2 analytically  !
 ! D25   D(12,2,4,5)          -175.1713         calculate D2E/DX2 analytically  !
 ! D26   D(12,2,4,6)           -54.1594         calculate D2E/DX2 analytically  !
 ! D27   D(12,2,4,7)            66.943          calculate D2E/DX2 analytically  !
 ! D28   D(1,2,8,9)             56.975          calculate D2E/DX2 analytically  !
 ! D29   D(1,2,8,10)           177.2494         calculate D2E/DX2 analytically  !
 ! D30   D(1,2,8,11)           -62.3704         calculate D2E/DX2 analytically  !
 ! D31   D(4,2,8,9)           -175.3187         calculate D2E/DX2 analytically  !
 ! D32   D(4,2,8,10)           -55.0443         calculate D2E/DX2 analytically  !
 ! D33   D(4,2,8,11)            65.3359         calculate D2E/DX2 analytically  !
 ! D34   D(12,2,8,9)           -69.5213         calculate D2E/DX2 analytically  !
 ! D35   D(12,2,8,10)           50.7531         calculate D2E/DX2 analytically  !
 ! D36   D(12,2,8,11)          171.1334         calculate D2E/DX2 analytically  !
 ! D37   D(1,2,12,13)           58.7199         calculate D2E/DX2 analytically  !
 ! D38   D(1,2,12,14)          179.8526         calculate D2E/DX2 analytically  !
 ! D39   D(1,2,12,15)          -59.1734         calculate D2E/DX2 analytically  !
 ! D40   D(4,2,12,13)          -67.5441         calculate D2E/DX2 analytically  !
 ! D41   D(4,2,12,14)           53.5886         calculate D2E/DX2 analytically  !
 ! D42   D(4,2,12,15)          174.5626         calculate D2E/DX2 analytically  !
 ! D43   D(8,2,12,13)         -172.4662         calculate D2E/DX2 analytically  !
 ! D44   D(8,2,12,14)          -51.3335         calculate D2E/DX2 analytically  !
 ! D45   D(8,2,12,15)           69.6404         calculate D2E/DX2 analytically  !
 ! D46   D(1,3,16,17)           57.9229         calculate D2E/DX2 analytically  !
 ! D47   D(1,3,16,18)          179.2408         calculate D2E/DX2 analytically  !
 ! D48   D(1,3,16,19)          -59.7308         calculate D2E/DX2 analytically  !
 ! D49   D(20,3,16,17)        -171.168          calculate D2E/DX2 analytically  !
 ! D50   D(20,3,16,18)         -49.8501         calculate D2E/DX2 analytically  !
 ! D51   D(20,3,16,19)          71.1783         calculate D2E/DX2 analytically  !
 ! D52   D(24,3,16,17)         -65.897          calculate D2E/DX2 analytically  !
 ! D53   D(24,3,16,18)          55.4209         calculate D2E/DX2 analytically  !
 ! D54   D(24,3,16,19)         176.4493         calculate D2E/DX2 analytically  !
 ! D55   D(1,3,20,21)          173.3144         calculate D2E/DX2 analytically  !
 ! D56   D(1,3,20,22)          -66.182          calculate D2E/DX2 analytically  !
 ! D57   D(1,3,20,23)           53.0568         calculate D2E/DX2 analytically  !
 ! D58   D(16,3,20,21)          45.9744         calculate D2E/DX2 analytically  !
 ! D59   D(16,3,20,22)         166.4781         calculate D2E/DX2 analytically  !
 ! D60   D(16,3,20,23)         -74.2831         calculate D2E/DX2 analytically  !
 ! D61   D(24,3,20,21)         -59.6124         calculate D2E/DX2 analytically  !
 ! D62   D(24,3,20,22)          60.8913         calculate D2E/DX2 analytically  !
 ! D63   D(24,3,20,23)        -179.8699         calculate D2E/DX2 analytically  !
 ! D64   D(1,3,24,25)           62.095          calculate D2E/DX2 analytically  !
 ! D65   D(1,3,24,26)         -176.8112         calculate D2E/DX2 analytically  !
 ! D66   D(1,3,24,27)          -55.9336         calculate D2E/DX2 analytically  !
 ! D67   D(16,3,24,25)        -173.6123         calculate D2E/DX2 analytically  !
 ! D68   D(16,3,24,26)         -52.5186         calculate D2E/DX2 analytically  !
 ! D69   D(16,3,24,27)          68.3591         calculate D2E/DX2 analytically  !
 ! D70   D(20,3,24,25)         -68.9489         calculate D2E/DX2 analytically  !
 ! D71   D(20,3,24,26)          52.1448         calculate D2E/DX2 analytically  !
 ! D72   D(20,3,24,27)         173.0224         calculate D2E/DX2 analytically  !
 --------------------------------------------------------------------------------
 Trust Radius=3.00D-01 FncErr=1.00D-07 GrdErr=1.00D-06 EigMax=2.50D+02 EigMin=1.00D-04
 Number of steps in this run=    164 maximum allowed number of steps=    174.
 Search for a saddle point of order  1.
 GradGradGradGradGradGradGradGradGradGradGradGradGradGradGradGradGradGrad

 Leave Link  103 at Fri Nov  1 05:32:44 2019, MaxMem=   140000000 cpu:               0.9 elap:               0.1
 (Enter /usr/g16/l202.exe)
                          Input orientation:                          
 ---------------------------------------------------------------------
 Center     Atomic      Atomic             Coordinates (Angstroms)
 Number     Number       Type             X           Y           Z
 ---------------------------------------------------------------------
      1         78           0       -0.116639    0.742484    0.010950
      2         15           0        2.109306   -0.024423    0.007161
      3         15           0       -2.122371   -0.074143    0.008784
      4          6           0        3.148121    0.543343    1.416964
      5          1           0        2.696451    0.212693    2.357990
      6          1           0        4.169948    0.151871    1.350332
      7          1           0        3.175646    1.636902    1.421112
      8          6           0        2.407185   -1.845540    0.034811
      9          1           0        1.905998   -2.314460   -0.818209
     10          1           0        3.478394   -2.072403   -0.018408
     11          1           0        2.002524   -2.272852    0.956924
     12          6           0        3.097812    0.489197   -1.458827
     13          1           0        3.115937    1.581616   -1.511923
     14          1           0        4.124452    0.108071   -1.408145
     15          1           0        2.619396    0.114302   -2.369615
     16          6           0       -3.395403    1.022416    0.759456
     17          1           0       -3.404349    1.976813    0.225165
     18          1           0       -4.393930    0.571383    0.722566
     19          1           0       -3.127329    1.222810    1.801874
     20          6           0       -2.473597   -1.673225    0.861010
     21          1           0       -3.548758   -1.886772    0.869516
     22          1           0       -1.957702   -2.492547    0.354082
     23          1           0       -2.113955   -1.622828    1.893984
     24          6           0       -2.801214   -0.377577   -1.676904
     25          1           0       -2.182148   -1.118429   -2.193472
     26          1           0       -3.836145   -0.737123   -1.638329
     27          1           0       -2.763344    0.554129   -2.249820
     28          1           0       -0.463476    2.671368   -0.022270
     29          1           0        0.383592    2.577123   -0.025310
 ---------------------------------------------------------------------
                    Distance matrix (angstroms):
                    1          2          3          4          5
     1  Pt   0.000000
     2  P    2.354356   0.000000
     3  P    2.165605   4.231969   0.000000
     4  C    3.560223   1.840934   5.490204   0.000000
     5  H    3.701722   2.434617   5.368620   1.094927   0.000000
     6  H    4.529635   2.466056   6.437710   1.096276   1.786132
     7  H    3.691569   2.428238   5.743808   1.093913   1.770802
     8  C    3.614986   1.845525   4.863681   2.857638   3.117236
     9  H    3.758120   2.442711   4.683022   3.834827   4.135161
    10  H    4.566039   2.463591   5.946625   3.001916   3.388269
    11  H    3.804993   2.443130   4.769492   3.074895   2.936401
    12  C    3.543598   1.841214   5.451747   2.876740   3.847809
    13  H    3.670535   2.429050   5.700347   3.107640   4.126275
    14  H    4.516986   2.466061   6.408095   3.020583   4.029132
    15  H    3.680704   2.434851   5.308167   3.847311   4.729256
    16  C    3.374748   5.653640   1.840262   6.593901   6.349933
    17  H    3.518309   5.869656   2.428314   6.812494   6.699315
    18  H    4.339458   6.569541   2.467016   7.574002   7.285380
    19  H    3.535870   5.674410   2.430473   6.323851   5.936835
    20  C    3.480446   4.944756   1.845728   6.068441   5.703248
    21  H    4.407898   6.018778   2.461922   7.145162   6.754697
    22  H    3.738005   4.769963   2.448474   6.034548   5.744137
    23  H    3.623505   4.893969   2.439770   5.710454   5.169569
    24  C    3.363084   5.203268   1.842402   6.768655   6.844933
    25  H    3.548071   4.945323   2.438040   6.648948   6.803560
    26  H    4.329444   6.209989   2.467701   7.730095   7.716704
    27  H    3.485916   5.401056   2.430405   6.956352   7.152472
    28  H    1.960100   3.726575   3.207916   4.432100   4.657881
    29  H    1.901958   3.122048   3.648318   3.722772   4.076759
                    6          7          8          9         10
     6  H    0.000000
     7  H    1.788565   0.000000
     8  C    2.971124   3.826195   0.000000
     9  H    3.988837   4.715912   1.094858   0.000000
    10  H    2.701683   3.990341   1.096262   1.780647   0.000000
    11  H    3.275938   4.108267   1.093910   1.778242   1.780349
    12  C    3.025663   3.101182   2.856382   3.113086   2.963350
    13  H    3.368622   2.934164   3.826240   4.138187   3.964066
    14  H    2.759200   3.352947   2.974512   3.337396   2.665188
    15  H    4.030338   4.122782   3.109224   2.968953   3.323813
    16  C    7.638162   6.632803   6.513088   6.459770   7.578395
    17  H    7.871873   6.696429   6.958487   6.906768   7.989220
    18  H    8.597097   7.676052   7.250495   7.098674   8.337394
    19  H    7.389252   6.328028   6.570245   6.686665   7.603120
    20  C    6.907033   6.571500   4.953214   4.734111   6.029836
    21  H    7.997854   7.611711   6.014290   5.725880   7.085460
    22  H    6.747855   6.673992   4.424114   4.041554   5.465017
    23  H    6.552293   6.231318   4.893550   4.898405   5.927372
    24  C    7.618502   7.026997   5.675588   5.162046   6.712416
    25  H    7.383856   7.025883   5.153243   4.476023   6.138625
    26  H    8.591852   8.010081   6.557984   6.011056   7.609836
    27  H    7.822624   7.065391   6.141035   5.664015   7.130019
    28  H    5.449818   4.049282   5.352234   5.577311   6.167797
    29  H    4.702205   3.282030   4.863999   5.184013   5.585333
                   11         12         13         14         15
    11  H    0.000000
    12  C    3.829415   0.000000
    13  H    4.710819   1.093858   0.000000
    14  H    3.970506   1.096274   1.788633   0.000000
    15  H    4.140639   1.094972   1.770649   1.785961   0.000000
    16  C    6.327354   6.882365   6.918773   7.879260   6.840582
    17  H    6.915881   6.879457   6.759274   7.927341   6.818162
    18  H    7.004229   7.803296   7.900102   8.793032   7.678362
    19  H    6.264901   7.065602   7.077313   8.008445   7.187138
    20  C    4.517125   6.410796   6.889680   7.201134   6.290530
    21  H    5.565378   7.432583   7.881568   8.248956   7.248612
    22  H    4.011867   6.142935   6.769238   6.845528   5.929924
    23  H    4.271536   6.547099   7.015728   7.267585   6.603068
    24  C    5.796984   5.966353   6.235249   6.947873   5.486784
    25  H    5.363690   5.567957   5.985353   6.472577   4.960391
    26  H    6.571443   7.043851   7.329664   8.008648   6.552382
    27  H    6.402228   5.914646   6.013831   6.953353   5.402007
    28  H    5.611175   4.416824   4.027260   5.435092   4.642490
    29  H    5.206533   3.712330   3.266001   4.690681   4.069407
                   16         17         18         19         20
    16  C    0.000000
    17  H    1.093810   0.000000
    18  H    1.096288   1.789389   0.000000
    19  H    1.094832   1.769540   1.787049   0.000000
    20  C    2.850706   3.820128   2.957213   3.114420   0.000000
    21  H    2.915305   3.919608   2.603542   3.273590   1.096196
    22  H    3.819199   4.699425   3.931750   4.155480   1.092892
    23  H    3.150648   4.172228   3.374176   3.022096   1.094952
    24  C    2.872089   3.086226   3.032280   3.843109   2.868282
    25  H    3.843826   4.113892   4.031218   4.726263   3.118109
    26  H    3.006594   3.320318   2.756290   4.022283   2.996584
    27  H    3.110392   2.925829   3.390308   4.122602   3.836968
    28  H    3.453452   3.031891   4.518095   3.538634   4.867880
    29  H    4.160982   3.843384   5.235172   4.183220   5.197553
                   21         22         23         24         25
    21  H    0.000000
    22  H    1.778791   0.000000
    23  H    1.782656   1.775423   0.000000
    24  C    3.052989   3.051150   3.843725   0.000000
    25  H    3.440911   2.903206   4.119025   1.094965   0.000000
    26  H    2.773728   3.252655   4.028356   1.096286   1.785857
    27  H    4.037961   4.087982   4.725671   1.094414   1.771557
    28  H    5.575919   5.388911   4.983596   4.183168   4.693667
    29  H    6.015849   5.597066   5.249859   4.647688   4.994102
                   26         27         28         29
    26  H    0.000000
    27  H    1.786661   0.000000
    28  H    5.060074   3.838499   0.000000
    29  H    5.602878   4.352488   0.852300   0.000000
 Stoichiometry    C6H20P2Pt
 Framework group  C1[X(C6H20P2Pt)]
 Deg. of freedom    81
 Full point group                 C1      NOp   1
 Largest Abelian subgroup         C1      NOp   1
 Largest concise Abelian subgroup C1      NOp   1
                         Standard orientation:                         
 ---------------------------------------------------------------------
 Center     Atomic      Atomic             Coordinates (Angstroms)
 Number     Number       Type             X           Y           Z
 ---------------------------------------------------------------------
      1         78           0       -0.056874   -0.472889   -0.008448
      2         15           0        2.166224    0.302231   -0.004659
      3         15           0       -2.065607    0.336328   -0.006282
      4          6           0        3.207128   -0.261696   -1.414462
      5          1           0        2.754240    0.067285   -2.355488
      6          1           0        4.227503    0.133546   -1.347830
      7          1           0        3.238691   -1.355146   -1.418610
      8          6           0        2.457377    2.124435   -0.032308
      9          1           0        1.954464    2.591502    0.820711
     10          1           0        3.527743    2.355252    0.020910
     11          1           0        2.051143    2.550250   -0.954422
     12          6           0        3.156620   -0.207736    1.461329
     13          1           0        3.178777   -1.300080    1.514426
     14          1           0        4.181846    0.177178    1.410647
     15          1           0        2.676823    0.165390    2.372117
     16          6           0       -3.334583   -0.764924   -0.756954
     17          1           0       -3.340005   -1.719347   -0.222663
     18          1           0       -4.334768   -0.317580   -0.720063
     19          1           0       -3.065770   -0.964327   -1.799372
     20          6           0       -2.422735    1.934103   -0.858507
     21          1           0       -3.498677    2.143678   -0.867014
     22          1           0       -1.909868    2.755324   -0.351579
     23          1           0       -2.062909    1.885033   -1.891482
     24          6           0       -2.745566    0.637253    1.679406
     25          1           0       -2.129240    1.380387    2.195975
     26          1           0       -3.781817    0.992977    1.640831
     27          1           0       -2.704256   -0.294306    2.252323
     28          1           0       -0.396588   -2.403040    0.024772
     29          1           0        0.450126   -2.305668    0.027812
 ---------------------------------------------------------------------
 Rotational constants (GHZ):           1.4100799           0.4184538           0.3937232
 Leave Link  202 at Fri Nov  1 05:32:44 2019, MaxMem=   140000000 cpu:               0.7 elap:               0.1
 (Enter /usr/g16/l301.exe)
 General basis read from cards:  (5D, 7F)
 Centers:       1
 SDD
 ****
 Centers:       2      3      4      8     12     16     20     24      5      6
 Centers:       7      9     10     11     13     14     15     17     18     19
 Centers:      21     22     23     25     26     27     28     29
 6-31g*
 ****
 ======================================================================================================
                                       Pseudopotential Parameters
 ======================================================================================================
  Center     Atomic      Valence      Angular      Power
  Number     Number     Electrons     Momentum     of R      Exponent        Coefficient   SO-Coeffient
 ======================================================================================================
    1         78           18
                                      H and up 
                                                     2        1.0000000        0.00000000    0.00000000
                                      S - H
                                                     2       13.4286510      579.22386100    0.00000000
                                                     2        6.7143260       29.66949100    0.00000000
                                      P - H
                                                     2       10.3659440      280.86077400    0.00000000
                                                     2        5.1829720       26.74538200    0.00000000
                                      D - H
                                                     2        7.6004790      120.39644400    0.00000000
                                                     2        3.8002400       15.81092100    0.00000000
                                      F - H
                                                     2        3.3095690       24.31437600    0.00000000
                                      G - H
                                                     2        5.2772890      -24.21867500    0.00000000
    2         15
                                   No pseudopotential on this center.
    3         15
                                   No pseudopotential on this center.
    4          6
                                   No pseudopotential on this center.
    5          1
                                   No pseudopotential on this center.
    6          1
                                   No pseudopotential on this center.
    7          1
                                   No pseudopotential on this center.
    8          6
                                   No pseudopotential on this center.
    9          1
                                   No pseudopotential on this center.
   10          1
                                   No pseudopotential on this center.
   11          1
                                   No pseudopotential on this center.
   12          6
                                   No pseudopotential on this center.
   13          1
                                   No pseudopotential on this center.
   14          1
                                   No pseudopotential on this center.
   15          1
                                   No pseudopotential on this center.
   16          6
                                   No pseudopotential on this center.
   17          1
                                   No pseudopotential on this center.
   18          1
                                   No pseudopotential on this center.
   19          1
                                   No pseudopotential on this center.
   20          6
                                   No pseudopotential on this center.
   21          1
                                   No pseudopotential on this center.
   22          1
                                   No pseudopotential on this center.
   23          1
                                   No pseudopotential on this center.
   24          6
                                   No pseudopotential on this center.
   25          1
                                   No pseudopotential on this center.
   26          1
                                   No pseudopotential on this center.
   27          1
                                   No pseudopotential on this center.
   28          1
                                   No pseudopotential on this center.
   29          1
                                   No pseudopotential on this center.
 ======================================================================================================
 Ernie: Thresh=  0.10000D-02 Tol=  0.10000D-05 Strict=F.
 There are   207 symmetry adapted cartesian basis functions of A   symmetry.
 There are   196 symmetry adapted basis functions of A   symmetry.
   196 basis functions,   417 primitive gaussians,   207 cartesian basis functions
    52 alpha electrons       52 beta electrons
       nuclear repulsion energy       825.4911001189 Hartrees.
 IExCor= 4336 DFT=T Ex+Corr=M062X ExCW=0 ScaHFX=  0.540000
 ScaDFX=  1.000000  1.000000  1.000000  1.000000 ScalE2=  1.000000  1.000000
 IRadAn=      5 IRanWt=     -1 IRanGd=            0 ICorTp=0 IEmpDi=  4
 NAtoms=   29 NActive=   29 NUniq=   29 SFac= 1.00D+00 NAtFMM=   60 NAOKFM=F Big=F
 Integral buffers will be    131072 words long.
 Raffenetti 2 integral format.
 Two-electron integral symmetry is turned on.
 Force inversion solution in PCM.
 ------------------------------------------------------------------------------
 Polarizable Continuum Model (PCM)
 =================================
 Model                : PCM.
 Atomic radii         : SMD-Coulomb.
 Polarization charges : Total charges.
 Charge compensation  : None.
 Solution method      : Matrix inversion.
 Cavity type          : VdW (van der Waals Surface) (Alpha=1.000).
 Cavity algorithm     : GePol (No added spheres)
                        Default sphere list used, NSphG=   29.
                        Lebedev-Laikov grids with approx.  5.0 points / Ang**2.
                        Smoothing algorithm: York/Karplus (Gamma=1.0000).
                        Polarization charges: spherical gaussians, with
                                              point-specific exponents (IZeta= 3).
                        Self-potential: point-specific (ISelfS= 7).
                        Self-field    : sphere-specific E.n sum rule (ISelfD= 2).
 1st derivatives      : Analytical E(r).r(x)/FMM algorithm (CHGder, D1EAlg=3).
                        Cavity 1st derivative terms included.
 2nd derivatives      : Analytical E(r).r(xy)/FMM algorithm (CHGder, D2EAlg=3).
                        Cavity 2nd derivative terms included.
 Solvent              : Benzene, Eps=   2.270600 Eps(inf)=   2.253301
 ------------------------------------------------------------------------------
 GePol: Number of generator spheres                  =      29
 GePol: Total number of spheres                      =      29
 GePol: Number of exposed spheres                    =      29 (100.00%)
 GePol: Number of points                             =    2164
 GePol: Average weight of points                     =       0.12
 GePol: Minimum weight of points                     =   0.13D-10
 GePol: Maximum weight of points                     =    0.22001
 GePol: Number of points with low weight             =     126
 GePol: Fraction of low-weight points (<1% of avg)   =       5.82%
 GePol: Cavity surface area                          =    254.002 Ang**2
 GePol: Cavity volume                                =    208.014 Ang**3
 ------------------------------------------------------------------------------
 Atomic radii for non-electrostatic terms: SMD-CDS.
 ------------------------------------------------------------------------------
 PCM non-electrostatic energy =         0.0003488640 Hartrees.
 Nuclear repulsion after PCM non-electrostatic terms =      825.4914489829 Hartrees.
 Leave Link  301 at Fri Nov  1 05:32:44 2019, MaxMem=   140000000 cpu:               3.7 elap:               0.2
 (Enter /usr/g16/l302.exe)
 NPDir=0 NMtPBC=     1 NCelOv=     1 NCel=       1 NClECP=     1 NCelD=      1
         NCelK=      1 NCelE2=     1 NClLst=     1 CellRange=     0.0.
 One-electron integrals computed using PRISM.
 One-electron integral symmetry used in STVInt
   1 Symmetry operations used in ECPInt.
 ECPInt:  NShTT=    3916 NPrTT=   20546 LenC2=    3743 LenP2D=   13150.
 LDataN:  DoStor=T MaxTD1= 7 Len=  274
 Number of processors reduced to  20 by ecpmxn.
 NBasis=   196 RedAO= T EigKep=  1.95D-03  NBF=   196
 NBsUse=   196 1.00D-06 EigRej= -1.00D+00 NBFU=   196
 Precomputing XC quadrature grid using
 IXCGrd= 4 IRadAn=           5 IRanWt=          -1 IRanGd=           0 AccXCQ= 0.00D+00.
 Defaulting to unpruned grid for atomic number  78.
 Generated NRdTot=       0 NPtTot=           0 NUsed=           0 NTot=          32
 NSgBfM=   206   206   206   206   206 MxSgAt=    29 MxSgA2=    29.
 Leave Link  302 at Fri Nov  1 05:32:45 2019, MaxMem=   140000000 cpu:              14.9 elap:               0.7
 (Enter /usr/g16/l303.exe)
 DipDrv:  MaxL=1.
 Leave Link  303 at Fri Nov  1 05:32:45 2019, MaxMem=   140000000 cpu:               2.1 elap:               0.1
 (Enter /usr/g16/l401.exe)
 ExpMin= 1.50D-02 ExpMax= 1.94D+04 ExpMxC= 2.91D+03 IAcc=3 IRadAn=         5 AccDes= 0.00D+00
 Harris functional with IExCor= 1009 and IRadAn=       5 diagonalized for initial guess.
 HarFok:  IExCor= 1009 AccDes= 0.00D+00 IRadAn=         5 IDoV= 1 UseB2=F ITyADJ=14
 ICtDFT=  3500011 ScaDFX=  1.000000  1.000000  1.000000  1.000000
 Defaulting to unpruned grid for atomic number  78.
 FoFCou: FMM=F IPFlag=           0 FMFlag=      100000 FMFlg1=           0
         NFxFlg=           0 DoJE=T BraDBF=F KetDBF=T FulRan=T
         wScrn=  0.000000 ICntrl=       500 IOpCl=  0 I1Cent=   200000004 NGrid=           0
         NMat0=    1 NMatS0=      1 NMatT0=    0 NMatD0=    1 NMtDS0=    0 NMtDT0=    0
 Petite list used in FoFCou.
 Harris En= -1042.22768577506    
 JPrj=0 DoOrth=F DoCkMO=F.
 Leave Link  401 at Fri Nov  1 05:32:47 2019, MaxMem=   140000000 cpu:              34.2 elap:               1.4
 (Enter /usr/g16/l502.exe)
 Integral symmetry usage will be decided dynamically.
 Closed shell SCF:
 Using DIIS extrapolation, IDIIS=  1040.
 NGot=   140000000 LenX=   139906737 LenY=   139863447
 Requested convergence on RMS density matrix=1.00D-08 within 128 cycles.
 Requested convergence on MAX density matrix=1.00D-06.
 Requested convergence on             energy=1.00D-06.
 No special actions if energy rises.
 Fock matrices will be formed incrementally for  20 cycles.

 Cycle   1  Pass 1  IDiag  1:
 FoFJK:  IHMeth= 1 ICntrl=       0 DoSepK=F KAlg= 0 I1Cent=           0 FoldK=F
 IRaf= 910000000 NMat=       1 IRICut=       1 DoRegI=T DoRafI=F ISym2E= 0 IDoP0=0 IntGTp=1.
 FoFCou: FMM=F IPFlag=           0 FMFlag=      100000 FMFlg1=           0
         NFxFlg=           0 DoJE=F BraDBF=F KetDBF=F FulRan=T
         wScrn=  0.000000 ICntrl=         0 IOpCl=  0 I1Cent=           0 NGrid=           0
         NMat0=    1 NMatS0=      1 NMatT0=    0 NMatD0=    1 NMtDS0=    0 NMtDT0=    0
 Symmetry not used in FoFCou.
 Defaulting to unpruned grid for atomic number  78.
 Defaulting to unpruned grid for atomic number  78.
 Defaulting to unpruned grid for atomic number  78.
 Defaulting to unpruned grid for atomic number  78.
 Defaulting to unpruned grid for atomic number  78.
 Defaulting to unpruned grid for atomic number  78.
 Defaulting to unpruned grid for atomic number  78.
 Defaulting to unpruned grid for atomic number  78.
 Defaulting to unpruned grid for atomic number  78.
 Defaulting to unpruned grid for atomic number  78.
 Defaulting to unpruned grid for atomic number  78.
 Defaulting to unpruned grid for atomic number  78.
 Defaulting to unpruned grid for atomic number  78.
 Defaulting to unpruned grid for atomic number  78.
 Defaulting to unpruned grid for atomic number  78.
 Defaulting to unpruned grid for atomic number  78.
 Defaulting to unpruned grid for atomic number  78.
 Defaulting to unpruned grid for atomic number  78.
 Defaulting to unpruned grid for atomic number  78.
 Defaulting to unpruned grid for atomic number  78.
 Defaulting to unpruned grid for atomic number  78.
 Defaulting to unpruned grid for atomic number  78.
 Defaulting to unpruned grid for atomic number  78.
 Defaulting to unpruned grid for atomic number  78.
 Inv3:  Mode=1 IEnd=    14048688.
 Iteration    1 A*A^-1 deviation from unit magnitude is 8.66D-15 for    179.
 Iteration    1 A*A^-1 deviation from orthogonality  is 5.05D-15 for   1121    164.
 Iteration    1 A^-1*A deviation from unit magnitude is 8.66D-15 for    179.
 Iteration    1 A^-1*A deviation from orthogonality  is 2.84D-15 for   1764   1680.
 E= -1041.74209061756    
 DIIS: error= 6.12D-02 at cycle   1 NSaved=   1.
 NSaved= 1 IEnMin= 1 EnMin= -1041.74209061756     IErMin= 1 ErrMin= 6.12D-02
 ErrMax= 6.12D-02  0.00D+00 EMaxC= 1.00D-01 BMatC= 7.22D-01 BMatP= 7.22D-01
 IDIUse=3 WtCom= 3.88D-01 WtEn= 6.12D-01
 Coeff-Com:  0.100D+01
 Coeff-En:   0.100D+01
 Coeff:      0.100D+01
 Gap=     0.447 Goal=   None    Shift=    0.000
 GapD=    0.447 DampG=2.000 DampE=0.250 DampFc=0.5000 IDamp=-1.
 Damping current iteration by 5.00D-01
 RMSDP=8.68D-03 MaxDP=2.99D-01              OVMax= 2.27D-01

 Cycle   2  Pass 1  IDiag  1:
 RMSU=  4.33D-03    CP:  9.87D-01
 E= -1042.05296458484     Delta-E=       -0.310873967278 Rises=F Damp=T
 DIIS: error= 1.02D-02 at cycle   2 NSaved=   2.
 NSaved= 2 IEnMin= 2 EnMin= -1042.05296458484     IErMin= 2 ErrMin= 1.02D-02
 ErrMax= 1.02D-02  0.00D+00 EMaxC= 1.00D-01 BMatC= 3.46D-02 BMatP= 7.22D-01
 IDIUse=3 WtCom= 8.98D-01 WtEn= 1.02D-01
 Coeff-Com:  0.768D-01 0.923D+00
 Coeff-En:   0.114D+00 0.886D+00
 Coeff:      0.806D-01 0.919D+00
 Gap=     0.331 Goal=   None    Shift=    0.000
 RMSDP=2.80D-03 MaxDP=2.20D-01 DE=-3.11D-01 OVMax= 1.97D-01

 Cycle   3  Pass 1  IDiag  1:
 RMSU=  2.54D-03    CP:  9.81D-01  7.30D-01
 E= -1042.39577616465     Delta-E=       -0.342811579808 Rises=F Damp=F
 DIIS: error= 1.37D-02 at cycle   3 NSaved=   3.
 NSaved= 3 IEnMin= 3 EnMin= -1042.39577616465     IErMin= 2 ErrMin= 1.02D-02
 ErrMax= 1.37D-02  0.00D+00 EMaxC= 1.00D-01 BMatC= 2.59D-02 BMatP= 3.46D-02
 IDIUse=3 WtCom= 8.63D-01 WtEn= 1.37D-01
 Coeff-Com:  0.284D-02 0.459D+00 0.539D+00
 Coeff-En:   0.000D+00 0.000D+00 0.100D+01
 Coeff:      0.245D-02 0.396D+00 0.602D+00
 Gap=     0.248 Goal=   None    Shift=    0.000
 RMSDP=1.20D-03 MaxDP=5.07D-02 DE=-3.43D-01 OVMax= 4.69D-02

 Cycle   4  Pass 1  IDiag  1:
 RMSU=  7.95D-04    CP:  9.82D-01  8.76D-01  7.49D-01
 E= -1042.41458756024     Delta-E=       -0.018811395591 Rises=F Damp=F
 DIIS: error= 5.60D-03 at cycle   4 NSaved=   4.
 NSaved= 4 IEnMin= 4 EnMin= -1042.41458756024     IErMin= 4 ErrMin= 5.60D-03
 ErrMax= 5.60D-03  0.00D+00 EMaxC= 1.00D-01 BMatC= 5.34D-03 BMatP= 2.59D-02
 IDIUse=3 WtCom= 9.44D-01 WtEn= 5.60D-02
 Coeff-Com:  0.938D-02-0.209D-01 0.290D+00 0.722D+00
 Coeff-En:   0.000D+00 0.000D+00 0.158D+00 0.842D+00
 Coeff:      0.885D-02-0.197D-01 0.283D+00 0.728D+00
 Gap=     0.237 Goal=   None    Shift=    0.000
 RMSDP=4.40D-04 MaxDP=2.67D-02 DE=-1.88D-02 OVMax= 1.36D-02

 Cycle   5  Pass 1  IDiag  1:
 RMSU=  2.08D-04    CP:  9.80D-01  8.27D-01  8.71D-01  8.97D-01
 E= -1042.41899373535     Delta-E=       -0.004406175114 Rises=F Damp=F
 DIIS: error= 3.53D-04 at cycle   5 NSaved=   5.
 NSaved= 5 IEnMin= 5 EnMin= -1042.41899373535     IErMin= 5 ErrMin= 3.53D-04
 ErrMax= 3.53D-04  0.00D+00 EMaxC= 1.00D-01 BMatC= 2.95D-05 BMatP= 5.34D-03
 IDIUse=3 WtCom= 9.96D-01 WtEn= 3.53D-03
 Coeff-Com:  0.271D-02-0.209D-01 0.328D-01 0.138D+00 0.847D+00
 Coeff-En:   0.000D+00 0.000D+00 0.000D+00 0.000D+00 0.100D+01
 Coeff:      0.270D-02-0.209D-01 0.326D-01 0.138D+00 0.848D+00
 Gap=     0.236 Goal=   None    Shift=    0.000
 RMSDP=8.48D-05 MaxDP=4.60D-03 DE=-4.41D-03 OVMax= 2.45D-03

 Cycle   6  Pass 1  IDiag  1:
 RMSU=  5.86D-05    CP:  9.80D-01  8.23D-01  8.89D-01  9.45D-01  9.84D-01
 E= -1042.41905008210     Delta-E=       -0.000056346750 Rises=F Damp=F
 DIIS: error= 1.02D-04 at cycle   6 NSaved=   6.
 NSaved= 6 IEnMin= 6 EnMin= -1042.41905008210     IErMin= 6 ErrMin= 1.02D-04
 ErrMax= 1.02D-04  0.00D+00 EMaxC= 1.00D-01 BMatC= 1.89D-06 BMatP= 2.95D-05
 IDIUse=3 WtCom= 9.99D-01 WtEn= 1.02D-03
 Coeff-Com: -0.383D-03 0.119D-02-0.184D-01-0.529D-01-0.254D-02 0.107D+01
 Coeff-En:   0.000D+00 0.000D+00 0.000D+00 0.000D+00 0.000D+00 0.100D+01
 Coeff:     -0.383D-03 0.119D-02-0.184D-01-0.528D-01-0.254D-02 0.107D+01
 Gap=     0.236 Goal=   None    Shift=    0.000
 RMSDP=3.50D-05 MaxDP=1.99D-03 DE=-5.63D-05 OVMax= 1.35D-03

 Cycle   7  Pass 1  IDiag  1:
 RMSU=  1.07D-05    CP:  9.80D-01  8.22D-01  8.95D-01  9.66D-01  1.08D+00
                    CP:  1.24D+00
 E= -1042.41905592981     Delta-E=       -0.000005847703 Rises=F Damp=F
 DIIS: error= 4.13D-05 at cycle   7 NSaved=   7.
 NSaved= 7 IEnMin= 7 EnMin= -1042.41905592981     IErMin= 7 ErrMin= 4.13D-05
 ErrMax= 4.13D-05  0.00D+00 EMaxC= 1.00D-01 BMatC= 1.52D-07 BMatP= 1.89D-06
 IDIUse=1 WtCom= 1.00D+00 WtEn= 0.00D+00
 Coeff-Com: -0.570D-04 0.744D-03-0.200D-02-0.992D-02-0.280D-01 0.329D-01
 Coeff-Com:  0.101D+01
 Coeff:     -0.570D-04 0.744D-03-0.200D-02-0.992D-02-0.280D-01 0.329D-01
 Coeff:      0.101D+01
 Gap=     0.236 Goal=   None    Shift=    0.000
 RMSDP=8.39D-06 MaxDP=3.97D-04 DE=-5.85D-06 OVMax= 5.20D-04

 Cycle   8  Pass 1  IDiag  1:
 RMSU=  4.03D-06    CP:  9.80D-01  8.22D-01  8.96D-01  9.68D-01  1.09D+00
                    CP:  1.31D+00  1.25D+00
 E= -1042.41905636454     Delta-E=       -0.000000434738 Rises=F Damp=F
 DIIS: error= 1.45D-05 at cycle   8 NSaved=   8.
 NSaved= 8 IEnMin= 8 EnMin= -1042.41905636454     IErMin= 8 ErrMin= 1.45D-05
 ErrMax= 1.45D-05  0.00D+00 EMaxC= 1.00D-01 BMatC= 3.58D-08 BMatP= 1.52D-07
 IDIUse=1 WtCom= 1.00D+00 WtEn= 0.00D+00
 Coeff-Com:  0.421D-04 0.765D-04 0.172D-02 0.310D-02-0.884D-02-0.130D+00
 Coeff-Com:  0.378D+00 0.756D+00
 Coeff:      0.421D-04 0.765D-04 0.172D-02 0.310D-02-0.884D-02-0.130D+00
 Coeff:      0.378D+00 0.756D+00
 Gap=     0.236 Goal=   None    Shift=    0.000
 RMSDP=2.74D-06 MaxDP=1.35D-04 DE=-4.35D-07 OVMax= 1.94D-04

 Cycle   9  Pass 1  IDiag  1:
 RMSU=  1.26D-06    CP:  9.80D-01  8.22D-01  8.97D-01  9.69D-01  1.10D+00
                    CP:  1.33D+00  1.42D+00  9.21D-01
 E= -1042.41905644463     Delta-E=       -0.000000080091 Rises=F Damp=F
 DIIS: error= 6.98D-06 at cycle   9 NSaved=   9.
 NSaved= 9 IEnMin= 9 EnMin= -1042.41905644463     IErMin= 9 ErrMin= 6.98D-06
 ErrMax= 6.98D-06  0.00D+00 EMaxC= 1.00D-01 BMatC= 2.25D-09 BMatP= 3.58D-08
 IDIUse=1 WtCom= 1.00D+00 WtEn= 0.00D+00
 Coeff-Com:  0.101D-04-0.765D-04 0.479D-03 0.182D-02 0.232D-02-0.199D-01
 Coeff-Com: -0.803D-01 0.855D-01 0.101D+01
 Coeff:      0.101D-04-0.765D-04 0.479D-03 0.182D-02 0.232D-02-0.199D-01
 Coeff:     -0.803D-01 0.855D-01 0.101D+01
 Gap=     0.236 Goal=   None    Shift=    0.000
 RMSDP=9.47D-07 MaxDP=6.70D-05 DE=-8.01D-08 OVMax= 9.97D-05

 Cycle  10  Pass 1  IDiag  1:
 RMSU=  4.64D-07    CP:  9.80D-01  8.22D-01  8.97D-01  9.69D-01  1.10D+00
                    CP:  1.34D+00  1.47D+00  1.04D+00  1.20D+00
 E= -1042.41905645396     Delta-E=       -0.000000009323 Rises=F Damp=F
 DIIS: error= 2.24D-06 at cycle  10 NSaved=  10.
 NSaved=10 IEnMin=10 EnMin= -1042.41905645396     IErMin=10 ErrMin= 2.24D-06
 ErrMax= 2.24D-06  0.00D+00 EMaxC= 1.00D-01 BMatC= 3.43D-10 BMatP= 2.25D-09
 IDIUse=1 WtCom= 1.00D+00 WtEn= 0.00D+00
 Coeff-Com: -0.592D-05-0.799D-05-0.803D-04 0.103D-03 0.105D-02 0.808D-02
 Coeff-Com: -0.496D-01-0.579D-01 0.195D+00 0.903D+00
 Coeff:     -0.592D-05-0.799D-05-0.803D-04 0.103D-03 0.105D-02 0.808D-02
 Coeff:     -0.496D-01-0.579D-01 0.195D+00 0.903D+00
 Gap=     0.236 Goal=   None    Shift=    0.000
 RMSDP=2.72D-07 MaxDP=2.06D-05 DE=-9.32D-09 OVMax= 3.15D-05

 Cycle  11  Pass 1  IDiag  1:
 RMSU=  1.52D-07    CP:  9.80D-01  8.22D-01  8.97D-01  9.69D-01  1.10D+00
                    CP:  1.34D+00  1.47D+00  1.07D+00  1.32D+00  1.21D+00
 E= -1042.41905645492     Delta-E=       -0.000000000957 Rises=F Damp=F
 DIIS: error= 5.83D-07 at cycle  11 NSaved=  11.
 NSaved=11 IEnMin=11 EnMin= -1042.41905645492     IErMin=11 ErrMin= 5.83D-07
 ErrMax= 5.83D-07  0.00D+00 EMaxC= 1.00D-01 BMatC= 4.78D-11 BMatP= 3.43D-10
 IDIUse=1 WtCom= 1.00D+00 WtEn= 0.00D+00
 Coeff-Com: -0.399D-05 0.831D-05-0.957D-04-0.222D-03-0.923D-05 0.521D-02
 Coeff-Com: -0.345D-02-0.296D-01-0.789D-01 0.267D+00 0.840D+00
 Coeff:     -0.399D-05 0.831D-05-0.957D-04-0.222D-03-0.923D-05 0.521D-02
 Coeff:     -0.345D-02-0.296D-01-0.789D-01 0.267D+00 0.840D+00
 Gap=     0.236 Goal=   None    Shift=    0.000
 RMSDP=1.14D-07 MaxDP=6.17D-06 DE=-9.57D-10 OVMax= 9.72D-06

 Cycle  12  Pass 1  IDiag  1:
 RMSU=  5.33D-08    CP:  9.80D-01  8.22D-01  8.97D-01  9.69D-01  1.10D+00
                    CP:  1.34D+00  1.48D+00  1.07D+00  1.36D+00  1.38D+00
                    CP:  1.15D+00
 E= -1042.41905645505     Delta-E=       -0.000000000136 Rises=F Damp=F
 DIIS: error= 1.80D-07 at cycle  12 NSaved=  12.
 NSaved=12 IEnMin=12 EnMin= -1042.41905645505     IErMin=12 ErrMin= 1.80D-07
 ErrMax= 1.80D-07  0.00D+00 EMaxC= 1.00D-01 BMatC= 4.91D-12 BMatP= 4.78D-11
 IDIUse=1 WtCom= 1.00D+00 WtEn= 0.00D+00
 Coeff-Com:  0.957D-07 0.315D-05-0.129D-04-0.795D-04-0.145D-03 0.901D-04
 Coeff-Com:  0.610D-02 0.156D-02-0.440D-01-0.695D-01 0.163D+00 0.943D+00
 Coeff:      0.957D-07 0.315D-05-0.129D-04-0.795D-04-0.145D-03 0.901D-04
 Coeff:      0.610D-02 0.156D-02-0.440D-01-0.695D-01 0.163D+00 0.943D+00
 Gap=     0.236 Goal=   None    Shift=    0.000
 RMSDP=4.75D-08 MaxDP=1.95D-06 DE=-1.36D-10 OVMax= 3.19D-06

 Cycle  13  Pass 1  IDiag  1:
 RMSU=  1.63D-08    CP:  9.80D-01  8.22D-01  8.97D-01  9.69D-01  1.10D+00
                    CP:  1.34D+00  1.47D+00  1.07D+00  1.36D+00  1.45D+00
                    CP:  1.32D+00  1.22D+00
 E= -1042.41905645509     Delta-E=       -0.000000000035 Rises=F Damp=F
 DIIS: error= 6.37D-08 at cycle  13 NSaved=  13.
 NSaved=13 IEnMin=13 EnMin= -1042.41905645509     IErMin=13 ErrMin= 6.37D-08
 ErrMax= 6.37D-08  0.00D+00 EMaxC= 1.00D-01 BMatC= 3.98D-13 BMatP= 4.91D-12
 IDIUse=1 WtCom= 1.00D+00 WtEn= 0.00D+00
 Coeff-Com:  0.465D-06-0.819D-07 0.655D-05 0.460D-05-0.259D-04-0.473D-03
 Coeff-Com:  0.138D-02 0.323D-02 0.323D-03-0.381D-01-0.547D-01 0.167D+00
 Coeff-Com:  0.921D+00
 Coeff:      0.465D-06-0.819D-07 0.655D-05 0.460D-05-0.259D-04-0.473D-03
 Coeff:      0.138D-02 0.323D-02 0.323D-03-0.381D-01-0.547D-01 0.167D+00
 Coeff:      0.921D+00
 Gap=     0.236 Goal=   None    Shift=    0.000
 RMSDP=1.42D-08 MaxDP=6.46D-07 DE=-3.48D-11 OVMax= 8.71D-07

 Cycle  14  Pass 1  IDiag  1:
 RMSU=  6.16D-09    CP:  9.80D-01  8.22D-01  8.97D-01  9.69D-01  1.10D+00
                    CP:  1.34D+00  1.47D+00  1.07D+00  1.36D+00  1.46D+00
                    CP:  1.37D+00  1.34D+00  1.12D+00
 E= -1042.41905645507     Delta-E=        0.000000000014 Rises=F Damp=F
 DIIS: error= 1.37D-08 at cycle  14 NSaved=  14.
 NSaved=14 IEnMin=13 EnMin= -1042.41905645509     IErMin=14 ErrMin= 1.37D-08
 ErrMax= 1.37D-08  0.00D+00 EMaxC= 1.00D-01 BMatC= 5.60D-14 BMatP= 3.98D-13
 IDIUse=1 WtCom= 1.00D+00 WtEn= 0.00D+00
 Coeff-Com:  0.932D-07-0.402D-06 0.293D-05 0.951D-05 0.615D-05-0.135D-03
 Coeff-Com: -0.127D-03 0.752D-03 0.370D-02-0.386D-02-0.282D-01-0.429D-01
 Coeff-Com:  0.234D+00 0.837D+00
 Coeff:      0.932D-07-0.402D-06 0.293D-05 0.951D-05 0.615D-05-0.135D-03
 Coeff:     -0.127D-03 0.752D-03 0.370D-02-0.386D-02-0.282D-01-0.429D-01
 Coeff:      0.234D+00 0.837D+00
 Gap=     0.236 Goal=   None    Shift=    0.000
 RMSDP=3.95D-09 MaxDP=2.04D-07 DE= 1.36D-11 OVMax= 2.40D-07

 Error on total polarization charges =  0.04047
 SCF Done:  E(RM062X) =  -1042.41905646     A.U. after   14 cycles
            NFock= 14  Conv=0.39D-08     -V/T= 2.0849
 KE= 9.608364219708D+02 PE=-4.080140932041D+03 EE= 1.251394004632D+03
 SMD-CDS (non-electrostatic) energy       (kcal/mol) =       0.22
 (included in total energy above)
 Leave Link  502 at Fri Nov  1 05:34:15 2019, MaxMem=   140000000 cpu:            2069.1 elap:              88.2
 (Enter /usr/g16/l801.exe)
 DoSCS=F DFT=T ScalE2(SS,OS)=  1.000000  1.000000
 Range of M.O.s used for correlation:     1   196
 NBasis=   196 NAE=    52 NBE=    52 NFC=     0 NFV=     0
 NROrb=    196 NOA=    52 NOB=    52 NVA=   144 NVB=   144
 Leave Link  801 at Fri Nov  1 05:34:15 2019, MaxMem=   140000000 cpu:               2.6 elap:               0.1
 (Enter /usr/g16/l1101.exe)
 Using compressed storage, NAtomX=    29.
 Will process     30 centers per pass.
   1 Symmetry operations used in ECPInt.
 ECPInt:  NShTT=    3916 NPrTT=   20546 LenC2=    3743 LenP2D=   13150.
 LDataN:  DoStor=T MaxTD1= 8 Len=  415
 Number of processors reduced to   7 by ecpmxn.
 Leave Link 1101 at Fri Nov  1 05:34:16 2019, MaxMem=   140000000 cpu:              19.9 elap:               1.3
 (Enter /usr/g16/l1102.exe)
 Symmetrizing basis deriv contribution to polar:
 IMax=3 JMax=2 DiffMx= 0.00D+00
 Leave Link 1102 at Fri Nov  1 05:34:16 2019, MaxMem=   140000000 cpu:               1.7 elap:               0.1
 (Enter /usr/g16/l1110.exe)
 Forming Gx(P) for the SCF density, NAtomX=    29.
 Integral derivatives from FoFJK, PRISM(SPDF).
 Do as many integral derivatives as possible in FoFJK.
 G2DrvN: MDV=     139997776.
 G2DrvN: will do    30 centers at a time, making    1 passes.
 Calling FoFCou, ICntrl=  3107 FMM=F I1Cent=   0 AccDes= 0.00D+00.
 FoFJK:  IHMeth= 1 ICntrl=    3107 DoSepK=F KAlg= 0 I1Cent=           0 FoldK=F
 IRaf=         0 NMat=       1 IRICut=       1 DoRegI=T DoRafI=F ISym2E= 0 IDoP0=0 IntGTp=1.
 FoFCou: FMM=F IPFlag=           0 FMFlag=      100000 FMFlg1=           0
         NFxFlg=           0 DoJE=F BraDBF=F KetDBF=F FulRan=T
         wScrn=  0.000000 ICntrl=      3107 IOpCl=  0 I1Cent=           0 NGrid=           0
         NMat0=    1 NMatS0=      1 NMatT0=    0 NMatD0=    1 NMtDS0=    0 NMtDT0=    0
 Symmetry not used in FoFCou.
 Defaulting to unpruned grid for atomic number  78.
 Defaulting to unpruned grid for atomic number  78.
 Defaulting to unpruned grid for atomic number  78.
 Defaulting to unpruned grid for atomic number  78.
 Defaulting to unpruned grid for atomic number  78.
 Defaulting to unpruned grid for atomic number  78.
 Defaulting to unpruned grid for atomic number  78.
 Defaulting to unpruned grid for atomic number  78.
 Defaulting to unpruned grid for atomic number  78.
 Defaulting to unpruned grid for atomic number  78.
 Defaulting to unpruned grid for atomic number  78.
 Defaulting to unpruned grid for atomic number  78.
 Defaulting to unpruned grid for atomic number  78.
 Defaulting to unpruned grid for atomic number  78.
 Defaulting to unpruned grid for atomic number  78.
 Defaulting to unpruned grid for atomic number  78.
 Defaulting to unpruned grid for atomic number  78.
 Defaulting to unpruned grid for atomic number  78.
 Defaulting to unpruned grid for atomic number  78.
 Defaulting to unpruned grid for atomic number  78.
 Defaulting to unpruned grid for atomic number  78.
 Defaulting to unpruned grid for atomic number  78.
 Defaulting to unpruned grid for atomic number  78.
 Defaulting to unpruned grid for atomic number  78.
 NEqPCM:  Using equilibrium solvation (IEInf=0, Eps=   2.2706, EpsInf=   2.2533)
 G2PCM: DoFxE=T DoFxN=T DoGrad=T DoDP/DQ/DG/TGxP=FFFF NFrqRd=   0 IEInf=0 SqF1=F DoCFld=F IF1Alg=4.
 GePol: Maximum number of non-zero 1st derivatives   =     245
 CoulSu:  requested number of processors reduced to:  17 ShMem   1 Linda.
 CoulSu:  requested number of processors reduced to:  20 ShMem   1 Linda.
 End of G2Drv F.D. properties file   721 does not exist.
 End of G2Drv F.D. properties file   722 does not exist.
 End of G2Drv F.D. properties file   788 does not exist.
 Leave Link 1110 at Fri Nov  1 05:37:04 2019, MaxMem=   140000000 cpu:            4012.1 elap:             167.9
 (Enter /usr/g16/l1002.exe)
 Minotr:  Closed shell wavefunction.
          IDoAtm=11111111111111111111111111111
 NEqPCM:  Using equilibrium solvation (IEInf=0, Eps=   2.2706, EpsInf=   2.2533)
          Direct CPHF calculation.
          Differentiating once with respect to nuclear coordinates.
          Requested convergence is 1.0D-08 RMS, and 1.0D-07 maximum.
          Secondary convergence is 1.0D-12 RMS, and 1.0D-12 maximum.
          NewPWx=T KeepS1=F KeepF1=F KeepIn=T MapXYZ=F SortEE=F KeepMc=T.
 Defaulting to unpruned grid for atomic number  78.
         8993 words used for storage of precomputed grid.
 Two-electron integrals replicated using symmetry.
          MDV=     140000000 using IRadAn=       1.
          Solving linear equations simultaneously, MaxMat=     384.
 FoF2E skips out because all densities are zero.
 CalDSu exits because no D1Ps are significant.
 FoFJK:  IHMeth= 1 ICntrl=       0 DoSepK=F KAlg= 0 I1Cent=           0 FoldK=F
 IRaf= 900000000 NMat=      48 IRICut=     120 DoRegI=T DoRafI=T ISym2E= 2 IDoP0=3 IntGTp=3.
 Defaulting to unpruned grid for atomic number  78.
 Defaulting to unpruned grid for atomic number  78.
 Defaulting to unpruned grid for atomic number  78.
 Defaulting to unpruned grid for atomic number  78.
 Defaulting to unpruned grid for atomic number  78.
 Defaulting to unpruned grid for atomic number  78.
 Defaulting to unpruned grid for atomic number  78.
 Defaulting to unpruned grid for atomic number  78.
 Defaulting to unpruned grid for atomic number  78.
 Defaulting to unpruned grid for atomic number  78.
 Defaulting to unpruned grid for atomic number  78.
 Defaulting to unpruned grid for atomic number  78.
 Defaulting to unpruned grid for atomic number  78.
 Defaulting to unpruned grid for atomic number  78.
 Defaulting to unpruned grid for atomic number  78.
 Defaulting to unpruned grid for atomic number  78.
 Defaulting to unpruned grid for atomic number  78.
 Defaulting to unpruned grid for atomic number  78.
 Defaulting to unpruned grid for atomic number  78.
 Defaulting to unpruned grid for atomic number  78.
 Defaulting to unpruned grid for atomic number  78.
 Defaulting to unpruned grid for atomic number  78.
 Defaulting to unpruned grid for atomic number  78.
 Defaulting to unpruned grid for atomic number  78.
          There are    90 degrees of freedom in the 1st order CPHF.  IDoFFX=6 NUNeed=     0.
     84 vectors produced by pass  0 Test12= 8.32D-15 1.11D-09 XBig12= 6.39D-02 6.79D-02.
 AX will form    48 AO Fock derivatives at one time.
     84 vectors produced by pass  1 Test12= 8.32D-15 1.11D-09 XBig12= 8.75D-03 2.13D-02.
     84 vectors produced by pass  2 Test12= 8.32D-15 1.11D-09 XBig12= 4.13D-04 7.43D-03.
     84 vectors produced by pass  3 Test12= 8.32D-15 1.11D-09 XBig12= 4.61D-06 4.57D-04.
     84 vectors produced by pass  4 Test12= 8.32D-15 1.11D-09 XBig12= 2.64D-08 3.76D-05.
     84 vectors produced by pass  5 Test12= 8.32D-15 1.11D-09 XBig12= 1.08D-10 1.01D-06.
     42 vectors produced by pass  6 Test12= 8.32D-15 1.11D-09 XBig12= 3.92D-13 6.80D-08.
      3 vectors produced by pass  7 Test12= 8.32D-15 1.11D-09 XBig12= 1.29D-15 4.70D-09.
 InvSVY:  IOpt=1 It=  1 EMax= 2.78D-16
 Solved reduced A of dimension   549 with    90 vectors.
 End of Minotr F.D. properties file   721 does not exist.
 End of Minotr F.D. properties file   722 does not exist.
 End of Minotr F.D. properties file   788 does not exist.
 Leave Link 1002 at Fri Nov  1 05:40:23 2019, MaxMem=   140000000 cpu:            4768.0 elap:             199.1
 (Enter /usr/g16/l601.exe)
 Copying SCF densities to generalized density rwf, IOpCl= 0 IROHF=0.

 **********************************************************************

            Population analysis using the SCF density.

 **********************************************************************

 Orbital symmetries:
       Occupied  (A) (A) (A) (A) (A) (A) (A) (A) (A) (A) (A) (A)
                 (A) (A) (A) (A) (A) (A) (A) (A) (A) (A) (A) (A)
                 (A) (A) (A) (A) (A) (A) (A) (A) (A) (A) (A) (A)
                 (A) (A) (A) (A) (A) (A) (A) (A) (A) (A) (A) (A)
                 (A) (A) (A) (A)
       Virtual   (A) (A) (A) (A) (A) (A) (A) (A) (A) (A) (A) (A)
                 (A) (A) (A) (A) (A) (A) (A) (A) (A) (A) (A) (A)
                 (A) (A) (A) (A) (A) (A) (A) (A) (A) (A) (A) (A)
                 (A) (A) (A) (A) (A) (A) (A) (A) (A) (A) (A) (A)
                 (A) (A) (A) (A) (A) (A) (A) (A) (A) (A) (A) (A)
                 (A) (A) (A) (A) (A) (A) (A) (A) (A) (A) (A) (A)
                 (A) (A) (A) (A) (A) (A) (A) (A) (A) (A) (A) (A)
                 (A) (A) (A) (A) (A) (A) (A) (A) (A) (A) (A) (A)
                 (A) (A) (A) (A) (A) (A) (A) (A) (A) (A) (A) (A)
                 (A) (A) (A) (A) (A) (A) (A) (A) (A) (A) (A) (A)
                 (A) (A) (A) (A) (A) (A) (A) (A) (A) (A) (A) (A)
                 (A) (A) (A) (A) (A) (A) (A) (A) (A) (A) (A) (A)
 The electronic state is 1-A.
 Alpha  occ. eigenvalues --  -78.04367 -78.04029 -10.52887 -10.52877 -10.52758
 Alpha  occ. eigenvalues --  -10.52346 -10.52246 -10.52052  -6.85873  -6.85507
 Alpha  occ. eigenvalues --   -4.97250  -4.97227  -4.97023  -4.96887  -4.96857
 Alpha  occ. eigenvalues --   -4.96705  -4.01332  -2.23651  -2.22079  -2.20923
 Alpha  occ. eigenvalues --   -0.85343  -0.84854  -0.77584  -0.77397  -0.77054
 Alpha  occ. eigenvalues --   -0.76924  -0.61816  -0.60534  -0.52579  -0.50193
 Alpha  occ. eigenvalues --   -0.49739  -0.48759  -0.48673  -0.48305  -0.48244
 Alpha  occ. eigenvalues --   -0.46144  -0.45793  -0.45702  -0.45388  -0.44412
 Alpha  occ. eigenvalues --   -0.43899  -0.40101  -0.38638  -0.38368  -0.38063
 Alpha  occ. eigenvalues --   -0.37650  -0.34820  -0.28671  -0.27547  -0.25807
 Alpha  occ. eigenvalues --   -0.23609  -0.22857
 Alpha virt. eigenvalues --    0.00749   0.01237   0.04858   0.05634   0.08851
 Alpha virt. eigenvalues --    0.10071   0.10639   0.11769   0.12271   0.12997
 Alpha virt. eigenvalues --    0.13750   0.14045   0.15829   0.16113   0.16790
 Alpha virt. eigenvalues --    0.17074   0.17873   0.19185   0.20530   0.20648
 Alpha virt. eigenvalues --    0.21314   0.22222   0.23128   0.23632   0.24059
 Alpha virt. eigenvalues --    0.24617   0.25091   0.25645   0.25833   0.26120
 Alpha virt. eigenvalues --    0.27329   0.27459   0.28854   0.30200   0.30645
 Alpha virt. eigenvalues --    0.32984   0.34350   0.36757   0.38711   0.45479
 Alpha virt. eigenvalues --    0.46917   0.47828   0.48894   0.49863   0.51294
 Alpha virt. eigenvalues --    0.53635   0.54149   0.56529   0.57781   0.63977
 Alpha virt. eigenvalues --    0.66576   0.67544   0.68386   0.68747   0.69634
 Alpha virt. eigenvalues --    0.70111   0.70662   0.71322   0.72850   0.74059
 Alpha virt. eigenvalues --    0.75548   0.76813   0.78432   0.79359   0.83213
 Alpha virt. eigenvalues --    0.84072   0.86105   0.86341   0.86712   0.87526
 Alpha virt. eigenvalues --    0.89521   0.89936   0.91889   0.92919   0.95116
 Alpha virt. eigenvalues --    0.95851   0.96277   0.96611   0.98028   0.98228
 Alpha virt. eigenvalues --    0.98316   0.98580   0.99712   1.00339   1.00485
 Alpha virt. eigenvalues --    1.01031   1.01619   1.02000   1.03578   1.03955
 Alpha virt. eigenvalues --    1.06394   1.08724   1.10645   1.12009   1.13710
 Alpha virt. eigenvalues --    1.14554   1.15439   1.17230   1.25725   1.29477
 Alpha virt. eigenvalues --    1.38590   1.39782   1.41174   1.41716   1.42900
 Alpha virt. eigenvalues --    1.44354   1.45571   1.51057   1.67062   1.70991
 Alpha virt. eigenvalues --    1.71609   1.75724   1.76713   1.77001   1.77755
 Alpha virt. eigenvalues --    1.85055   1.86648   1.87654   1.89237   1.96373
 Alpha virt. eigenvalues --    1.97925   2.14594   2.15391   2.26235   2.26283
 Alpha virt. eigenvalues --    2.26791   2.27088   2.29860   2.30672   2.31677
 Alpha virt. eigenvalues --    2.32287   2.32439   2.32480   2.33029   2.33312
 Alpha virt. eigenvalues --    2.34403   2.34633   2.36038   2.36251   2.62103
 Alpha virt. eigenvalues --   46.19593  46.25335  46.36204 115.17076
          Condensed to atoms (all electrons):
               1          2          3          4          5          6
     1  Pt  18.070557   0.234519   0.276119  -0.011519   0.002366   0.007034
     2  P    0.234519  13.579868  -0.036620   0.314680  -0.027880  -0.020223
     3  P    0.276119  -0.036620  13.540312   0.000621   0.000071  -0.000012
     4  C   -0.011519   0.314680   0.000621   5.378496   0.371897   0.350705
     5  H    0.002366  -0.027880   0.000071   0.371897   0.477883  -0.025899
     6  H    0.007034  -0.020223  -0.000012   0.350705  -0.025899   0.530932
     7  H    0.003541  -0.026696  -0.000006   0.369841  -0.021263  -0.025116
     8  C   -0.022313   0.324304  -0.001757  -0.045792  -0.001405  -0.004217
     9  H    0.000223  -0.026147  -0.000183   0.002189   0.000003  -0.000039
    10  H    0.008258  -0.020269   0.000025  -0.004497  -0.000322   0.003245
    11  H    0.000766  -0.026408  -0.000185  -0.001399   0.000866  -0.000311
    12  C   -0.012262   0.317233   0.000659  -0.035546   0.002244  -0.004915
    13  H    0.003809  -0.026720  -0.000004  -0.001424   0.000006  -0.000311
    14  H    0.007119  -0.020666  -0.000014  -0.005005  -0.000066   0.003228
    15  H    0.002482  -0.027426   0.000083   0.002248  -0.000035  -0.000067
    16  C   -0.022446   0.000653   0.313811  -0.000000  -0.000000   0.000000
    17  H    0.004176  -0.000000  -0.025341  -0.000000   0.000000   0.000000
    18  H    0.010528  -0.000013  -0.021388   0.000000   0.000000  -0.000000
    19  H    0.002685   0.000048  -0.027029  -0.000000   0.000000   0.000000
    20  C   -0.025452  -0.001188   0.318364  -0.000001   0.000000   0.000000
    21  H    0.010432   0.000017  -0.020573   0.000000   0.000000  -0.000000
    22  H    0.001160  -0.000085  -0.023362  -0.000000   0.000000   0.000000
    23  H    0.000386  -0.000099  -0.027315   0.000000  -0.000001  -0.000000
    24  C   -0.022453   0.000408   0.321896  -0.000000  -0.000000   0.000000
    25  H   -0.000142   0.000020  -0.024368  -0.000000   0.000000   0.000000
    26  H    0.011542  -0.000007  -0.022509   0.000000   0.000000  -0.000000
    27  H    0.002242   0.000006  -0.024946  -0.000000   0.000000   0.000000
    28  H    0.051556  -0.013228   0.020216   0.000172   0.000011  -0.000004
    29  H    0.042295   0.023011  -0.017958  -0.001497  -0.000029   0.000026
               7          8          9         10         11         12
     1  Pt   0.003541  -0.022313   0.000223   0.008258   0.000766  -0.012262
     2  P   -0.026696   0.324304  -0.026147  -0.020269  -0.026408   0.317233
     3  P   -0.000006  -0.001757  -0.000183   0.000025  -0.000185   0.000659
     4  C    0.369841  -0.045792   0.002189  -0.004497  -0.001399  -0.035546
     5  H   -0.021263  -0.001405   0.000003  -0.000322   0.000866   0.002244
     6  H   -0.025116  -0.004217  -0.000039   0.003245  -0.000311  -0.004915
     7  H    0.481422   0.002258  -0.000036  -0.000057   0.000010  -0.001434
     8  C    0.002258   5.380879   0.372904   0.347954   0.373133  -0.045619
     9  H   -0.000036   0.372904   0.482935  -0.026760  -0.020010  -0.001189
    10  H   -0.000057   0.347954  -0.026760   0.540071  -0.026644  -0.004895
    11  H    0.000010   0.373133  -0.020010  -0.026644   0.483170   0.002165
    12  C   -0.001434  -0.045619  -0.001189  -0.004895   0.002165   5.377282
    13  H    0.000806   0.002266   0.000003  -0.000047  -0.000037   0.369686
    14  H   -0.000321  -0.004321  -0.000287   0.003494  -0.000037   0.350976
    15  H    0.000006  -0.001365   0.000818  -0.000367   0.000001   0.371350
    16  C   -0.000000  -0.000000  -0.000000   0.000000  -0.000000  -0.000000
    17  H    0.000000   0.000000   0.000000  -0.000000   0.000000  -0.000000
    18  H    0.000000  -0.000000   0.000000  -0.000000  -0.000000   0.000000
    19  H    0.000000   0.000000   0.000000   0.000000   0.000000  -0.000000
    20  C    0.000000   0.000042   0.000002  -0.000000   0.000015   0.000000
    21  H   -0.000000  -0.000000  -0.000000   0.000000  -0.000000   0.000000
    22  H    0.000000   0.000013  -0.000030  -0.000000  -0.000021   0.000000
    23  H    0.000000   0.000004   0.000000  -0.000000  -0.000010  -0.000000
    24  C    0.000000   0.000005   0.000002  -0.000000   0.000000  -0.000003
    25  H    0.000000   0.000002  -0.000013   0.000000  -0.000000   0.000000
    26  H   -0.000000  -0.000000  -0.000000   0.000000  -0.000000   0.000000
    27  H    0.000000   0.000000   0.000000  -0.000000   0.000000  -0.000000
    28  H    0.000054   0.000017   0.000001  -0.000000   0.000001   0.000161
    29  H    0.000201   0.000143   0.000002  -0.000002   0.000002  -0.001535
              13         14         15         16         17         18
     1  Pt   0.003809   0.007119   0.002482  -0.022446   0.004176   0.010528
     2  P   -0.026720  -0.020666  -0.027426   0.000653  -0.000000  -0.000013
     3  P   -0.000004  -0.000014   0.000083   0.313811  -0.025341  -0.021388
     4  C   -0.001424  -0.005005   0.002248  -0.000000  -0.000000   0.000000
     5  H    0.000006  -0.000066  -0.000035  -0.000000   0.000000   0.000000
     6  H   -0.000311   0.003228  -0.000067   0.000000   0.000000  -0.000000
     7  H    0.000806  -0.000321   0.000006  -0.000000   0.000000   0.000000
     8  C    0.002266  -0.004321  -0.001365  -0.000000   0.000000  -0.000000
     9  H    0.000003  -0.000287   0.000818  -0.000000   0.000000   0.000000
    10  H   -0.000047   0.003494  -0.000367   0.000000  -0.000000  -0.000000
    11  H   -0.000037  -0.000037   0.000001  -0.000000   0.000000  -0.000000
    12  C    0.369686   0.350976   0.371350  -0.000000  -0.000000   0.000000
    13  H    0.480998  -0.025031  -0.021397  -0.000000   0.000000   0.000000
    14  H   -0.025031   0.530496  -0.025907   0.000000   0.000000  -0.000000
    15  H   -0.021397  -0.025907   0.477951  -0.000000   0.000000   0.000000
    16  C   -0.000000   0.000000  -0.000000   5.404296   0.369541   0.344474
    17  H    0.000000   0.000000   0.000000   0.369541   0.483820  -0.025793
    18  H    0.000000  -0.000000   0.000000   0.344474  -0.025793   0.544481
    19  H    0.000000   0.000000   0.000000   0.371872  -0.022312  -0.026924
    20  C    0.000000  -0.000000   0.000000  -0.050538   0.002300  -0.004125
    21  H   -0.000000  -0.000000   0.000000  -0.004556  -0.000032   0.003544
    22  H    0.000000  -0.000000  -0.000000   0.002192  -0.000037  -0.000042
    23  H    0.000000   0.000000   0.000000  -0.001250  -0.000000  -0.000318
    24  C    0.000000   0.000000  -0.000001  -0.040417  -0.001866  -0.004401
    25  H    0.000000   0.000000  -0.000002   0.002188   0.000021  -0.000071
    26  H   -0.000000  -0.000000   0.000000  -0.004263  -0.000337   0.002888
    27  H    0.000000   0.000000   0.000000  -0.001581   0.000766  -0.000361
    28  H    0.000055  -0.000004   0.000012  -0.003199   0.000225   0.000081
    29  H    0.000202   0.000028  -0.000030   0.000124   0.000089  -0.000008
              19         20         21         22         23         24
     1  Pt   0.002685  -0.025452   0.010432   0.001160   0.000386  -0.022453
     2  P    0.000048  -0.001188   0.000017  -0.000085  -0.000099   0.000408
     3  P   -0.027029   0.318364  -0.020573  -0.023362  -0.027315   0.321896
     4  C   -0.000000  -0.000001   0.000000  -0.000000   0.000000  -0.000000
     5  H    0.000000   0.000000   0.000000   0.000000  -0.000001  -0.000000
     6  H    0.000000   0.000000  -0.000000   0.000000  -0.000000   0.000000
     7  H    0.000000   0.000000  -0.000000   0.000000   0.000000   0.000000
     8  C    0.000000   0.000042  -0.000000   0.000013   0.000004   0.000005
     9  H    0.000000   0.000002  -0.000000  -0.000030   0.000000   0.000002
    10  H    0.000000  -0.000000   0.000000  -0.000000  -0.000000  -0.000000
    11  H    0.000000   0.000015  -0.000000  -0.000021  -0.000010   0.000000
    12  C   -0.000000   0.000000   0.000000   0.000000  -0.000000  -0.000003
    13  H    0.000000   0.000000  -0.000000   0.000000   0.000000   0.000000
    14  H    0.000000  -0.000000  -0.000000  -0.000000   0.000000   0.000000
    15  H    0.000000   0.000000   0.000000  -0.000000   0.000000  -0.000001
    16  C    0.371872  -0.050538  -0.004556   0.002192  -0.001250  -0.040417
    17  H   -0.022312   0.002300  -0.000032  -0.000037  -0.000000  -0.001866
    18  H   -0.026924  -0.004125   0.003544  -0.000042  -0.000318  -0.004401
    19  H    0.482645  -0.001468  -0.000405   0.000006   0.000613   0.002253
[...]
     3  P    2.259231   4.071576   0.000000
     4  C    3.460312   1.841062   5.212128   0.000000
     5  H    3.671260   2.435019   5.617895   1.094140   0.000000
     6  H    4.417531   2.463590   6.118258   1.095875   1.785356
     7  H    3.565012   2.432474   4.940904   1.093994   1.770826
     8  C    3.576053   1.844230   5.563598   2.839537   3.084121
     9  H    3.733827   2.435520   5.529374   3.816395   4.106313
    10  H    4.506773   2.472398   6.399490   2.981479   3.341353
    11  H    3.794580   2.435380   5.967049   3.065354   2.907808
    12  C    3.421824   1.840645   4.446092   2.833962   3.809432
    13  H    3.548333   2.426041   4.131248   3.048861   4.084139
    14  H    4.395617   2.470537   5.537019   2.979848   3.973819
    15  H    3.571232   2.430105   4.329940   3.810882   4.700606
    16  C    3.550408   5.430167   1.842578   6.139422   6.408281
    17  H    3.701091   5.308879   2.436306   5.698457   5.965996
    18  H    4.493367   6.305378   2.465994   7.066468   7.413705
    19  H    3.747421   5.821306   2.434756   6.517428   6.614169
    20  C    3.517721   5.368094   1.842184   6.784928   7.152909
    21  H    4.468751   6.246349   2.467354   7.595264   8.026236
    22  H    3.629713   5.189525   2.433589   6.792804   7.217929
    23  H    3.732297   5.781606   2.434150   7.159911   7.372291
    24  C    3.462466   4.466960   1.841119   5.512560   6.208519
    25  H    3.604099   4.249113   2.428510   5.509328   6.288842
    26  H    4.432990   5.562601   2.470758   6.570041   7.254826
    27  H    3.604381   4.264016   2.430224   4.978139   5.732886
    28  H    1.986931   3.793657   3.309629   4.721469   4.475560
    29  H    2.009409   3.362588   3.794747   4.227686   3.896996
                    6          7          8          9         10
     6  H    0.000000
     7  H    1.785541   0.000000
     8  C    2.957520   3.814790   0.000000
     9  H    3.969921   4.705515   1.094708   0.000000
    10  H    2.682550   3.981636   1.096093   1.784004   0.000000
    11  H    3.288113   4.095715   1.094482   1.771373   1.785935
    12  C    2.940514   3.088701   2.827257   3.095999   2.926375
    13  H    3.255294   2.901202   3.797827   4.126802   3.920196
    14  H    2.668693   3.356413   2.924434   3.299273   2.601939
    15  H    3.958164   4.105797   3.099096   2.969955   3.308439
    16  C    7.120351   5.623775   7.051726   7.168668   7.875048
    17  H    6.664134   5.033550   7.042022   7.317370   7.780826
    18  H    8.000835   6.505538   7.931497   7.978217   8.727680
    19  H    7.559195   6.085294   7.319942   7.428422   8.223103
    20  C    7.649428   6.660775   6.518699   6.192416   7.421669
    21  H    8.438702   7.363904   7.480227   7.156345   8.333223
    22  H    7.563897   6.808005   6.113095   5.630229   6.987774
    23  H    8.089156   7.089754   6.819310   6.492477   7.803044
    24  C    6.208206   5.096009   6.038273   6.002475   6.644198
    25  H    6.080522   5.258097   5.616366   5.446397   6.160410
    26  H    7.262178   6.088313   7.116755   7.032977   7.722415
    27  H    5.626992   4.401877   5.972728   6.119689   6.467439
    28  H    5.732986   4.920845   4.595271   4.692431   5.643885
    29  H    5.195448   4.572477   3.971243   4.146757   5.012221
                   11         12         13         14         15
    11  H    0.000000
    12  C    3.801131   0.000000
    13  H    4.682511   1.094034   0.000000
    14  H    3.922238   1.096311   1.787529   0.000000
    15  H    4.130089   1.094378   1.771109   1.786945   0.000000
    16  C    7.321391   5.913324   5.397105   6.960321   5.981623
    17  H    7.301173   5.787722   5.158652   6.764118   6.044658
    18  H    8.276301   6.562601   5.967646   7.610674   6.534261
    19  H    7.439898   6.574043   6.177061   7.622166   6.646349
    20  C    6.910989   5.650313   5.501828   6.733586   5.211446
    21  H    7.931153   6.324226   6.040459   7.398639   5.861379
    22  H    6.581717   5.332236   5.342218   6.370256   4.716142
    23  H    7.051314   6.349432   6.283422   7.428340   5.962455
    24  C    6.701692   4.067677   3.452845   5.080640   3.880035
    25  H    6.394948   3.557816   3.101807   4.533914   3.128458
    26  H    7.777138   5.099313   4.434259   6.078472   4.848441
    27  H    6.643563   3.777135   2.943188   4.704307   3.861931
    28  H    4.353279   5.294721   5.512122   6.182853   5.404061
    29  H    3.622648   5.009968   5.343028   5.806581   5.189011
                   16         17         18         19         20
    16  C    0.000000
    17  H    1.094132   0.000000
    18  H    1.096056   1.784221   0.000000
    19  H    1.094259   1.770830   1.786085   0.000000
    20  C    2.837551   3.814450   2.959346   3.077895   0.000000
    21  H    2.978470   3.979704   2.683209   3.336518   1.095931
    22  H    3.815194   4.706814   3.973443   4.099070   1.094437
    23  H    3.058369   4.089741   3.283714   2.895655   1.094211
    24  C    2.828948   3.086639   2.933842   3.804532   2.830546
    25  H    3.802104   4.116635   3.932373   4.689963   3.061461
    26  H    2.938921   3.302845   2.623130   3.940042   2.961528
    27  H    3.085092   2.942879   3.301946   4.115249   3.806842
    28  H    4.018904   4.326546   5.012039   3.639103   3.999350
    29  H    4.638677   4.836905   5.658320   4.347333   4.591978
                   21         22         23         24         25
    21  H    0.000000
    22  H    1.785378   0.000000
    23  H    1.785457   1.771244   0.000000
    24  C    2.920879   3.107173   3.802783   0.000000
    25  H    3.246530   2.938401   4.100037   1.094418   0.000000
    26  H    2.632596   3.361888   3.946729   1.096360   1.786843
    27  H    3.935514   4.126706   4.692016   1.094345   1.772631
    28  H    5.007977   4.266531   3.633722   4.997795   5.275636
    29  H    5.629896   4.732532   4.315665   5.343970   5.525065
                   26         27         28         29
    26  H    0.000000
    27  H    1.785850   0.000000
    28  H    5.775121   5.274647   0.000000
    29  H    6.212249   5.534290   0.803305   0.000000
 Stoichiometry    C6H20P2Pt
 Framework group  C1[X(C6H20P2Pt)]
 Deg. of freedom    81
 Full point group                 C1      NOp   1
 RotChk:  IX=0 Diff= 1.18D-01
 Largest Abelian subgroup         C1      NOp   1
 Largest concise Abelian subgroup C1      NOp   1
                         Standard orientation:                         
 ---------------------------------------------------------------------
 Center     Atomic      Atomic             Coordinates (Angstroms)
 Number     Number       Type             X           Y           Z
 ---------------------------------------------------------------------
      1         78           0        0.009546   -0.605094   -0.001498
      2         15           0        2.032564    0.344608   -0.010624
      3         15           0       -2.038990    0.347591    0.002731
      4          6           0        2.921923    0.355490    1.601341
      5          1           0        3.149905   -0.672414    1.898966
      6          1           0        3.853863    0.928996    1.541998
      7          1           0        2.276215    0.794932    2.367353
      8          6           0        3.376169   -0.215877   -1.142774
      9          1           0        3.015420   -0.182453   -2.175793
     10          1           0        4.271936    0.409875   -1.056425
     11          1           0        3.636785   -1.252727   -0.908441
     12          6           0        2.008298    2.143799   -0.398304
     13          1           0        1.372708    2.653979    0.331525
     14          1           0        3.012643    2.582774   -0.376149
     15          1           0        1.570822    2.290853   -1.390600
     16          6           0       -3.203046   -0.006541    1.386443
     17          1           0       -2.727803    0.251280    2.337651
     18          1           0       -4.134430    0.562290    1.284979
     19          1           0       -3.433170   -1.076220    1.401682
     20          6           0       -3.130179    0.042242   -1.449753
     21          1           0       -4.051361    0.633511   -1.395998
     22          1           0       -2.590949    0.298764   -2.366934
     23          1           0       -3.386419   -1.020661   -1.493063
     24          6           0       -2.035846    2.188401    0.036325
     25          1           0       -1.497294    2.559369   -0.841226
     26          1           0       -3.051592    2.601021    0.039247
     27          1           0       -1.506059    2.529345    0.931129
     28          1           0       -0.427646   -2.543073   -0.032974
     29          1           0        0.374298   -2.580213   -0.061363
 ---------------------------------------------------------------------
 Rotational constants (GHZ):           1.3045765           0.4421470           0.4027982
 Leave Link  202 at Fri Nov  1 06:08:56 2019, MaxMem=   140000000 cpu:               2.5 elap:               0.1
 (Enter /usr/g16/l301.exe)
 Basis read from rwf:  (5D, 7F)
 Pseudo-potential data read from rwf file.
 There are   207 symmetry adapted cartesian basis functions of A   symmetry.
 There are   196 symmetry adapted basis functions of A   symmetry.
   196 basis functions,   417 primitive gaussians,   207 cartesian basis functions
    52 alpha electrons       52 beta electrons
       nuclear repulsion energy       833.2398143098 Hartrees.
 IExCor= 4336 DFT=T Ex+Corr=M062X ExCW=0 ScaHFX=  0.540000
 ScaDFX=  1.000000  1.000000  1.000000  1.000000 ScalE2=  1.000000  1.000000
 IRadAn=      5 IRanWt=     -1 IRanGd=            0 ICorTp=0 IEmpDi=  4
 NAtoms=   29 NActive=   29 NUniq=   29 SFac= 1.00D+00 NAtFMM=   60 NAOKFM=F Big=F
 Integral buffers will be    131072 words long.
 Raffenetti 2 integral format.
 Two-electron integral symmetry is turned on.
 No density basis found on file   724.
 ------------------------------------------------------------------------------
 Polarizable Continuum Model (PCM)
 =================================
 Model                : PCM.
 Atomic radii         : SMD-Coulomb.
 Polarization charges : Total charges.
 Charge compensation  : None.
 Solution method      : Matrix inversion.
 Cavity type          : VdW (van der Waals Surface) (Alpha=1.000).
 Cavity algorithm     : GePol (No added spheres)
                        Default sphere list used, NSphG=   29.
                        Lebedev-Laikov grids with approx.  5.0 points / Ang**2.
                        Smoothing algorithm: York/Karplus (Gamma=1.0000).
                        Polarization charges: spherical gaussians, with
                                              point-specific exponents (IZeta= 3).
                        Self-potential: point-specific (ISelfS= 7).
                        Self-field    : sphere-specific E.n sum rule (ISelfD= 2).
 1st derivatives      : Analytical E(r).r(x)/FMM algorithm (CHGder, D1EAlg=3).
                        Cavity 1st derivative terms included.
 Solvent              : Benzene, Eps=   2.270600 Eps(inf)=   2.253301
 ------------------------------------------------------------------------------
 GePol: Number of generator spheres                  =      29
 GePol: Total number of spheres                      =      29
 GePol: Number of exposed spheres                    =      29 (100.00%)
 GePol: Number of points                             =    2152
 GePol: Average weight of points                     =       0.12
 GePol: Minimum weight of points                     =   0.22D-08
 GePol: Maximum weight of points                     =    0.22001
 GePol: Number of points with low weight             =     111
 GePol: Fraction of low-weight points (<1% of avg)   =       5.16%
 GePol: Cavity surface area                          =    254.032 Ang**2
 GePol: Cavity volume                                =    208.076 Ang**3
 ------------------------------------------------------------------------------
 Atomic radii for non-electrostatic terms: SMD-CDS.
 ------------------------------------------------------------------------------
 PCM non-electrostatic energy =         0.0002537580 Hartrees.
 Nuclear repulsion after PCM non-electrostatic terms =      833.2400680679 Hartrees.
 Leave Link  301 at Fri Nov  1 06:08:57 2019, MaxMem=   140000000 cpu:               6.3 elap:               0.3
 (Enter /usr/g16/l302.exe)
 NPDir=0 NMtPBC=     1 NCelOv=     1 NCel=       1 NClECP=     1 NCelD=      1
         NCelK=      1 NCelE2=     1 NClLst=     1 CellRange=     0.0.
 One-electron integrals computed using PRISM.
 One-electron integral symmetry used in STVInt
   1 Symmetry operations used in ECPInt.
 ECPInt:  NShTT=    3916 NPrTT=   20546 LenC2=    3754 LenP2D=   13279.
 LDataN:  DoStor=T MaxTD1= 7 Len=  274
 Number of processors reduced to  20 by ecpmxn.
 NBasis=   196 RedAO= T EigKep=  2.30D-03  NBF=   196
 NBsUse=   196 1.00D-06 EigRej= -1.00D+00 NBFU=   196
 Precomputing XC quadrature grid using
 IXCGrd= 4 IRadAn=           5 IRanWt=          -1 IRanGd=           0 AccXCQ= 0.00D+00.
 Defaulting to unpruned grid for atomic number  78.
 Generated NRdTot=       0 NPtTot=           0 NUsed=           0 NTot=          32
 NSgBfM=   206   206   206   206   206 MxSgAt=    29 MxSgA2=    29.
 Leave Link  302 at Fri Nov  1 06:08:58 2019, MaxMem=   140000000 cpu:              20.6 elap:               0.9
 (Enter /usr/g16/l303.exe)
 DipDrv:  MaxL=1.
 Leave Link  303 at Fri Nov  1 06:08:58 2019, MaxMem=   140000000 cpu:               5.9 elap:               0.3
 (Enter /usr/g16/l401.exe)
 Initial guess from the checkpoint file:  "Pt_tsb.chk"
 B after Tr=    -0.000000   -0.000000   -0.000000
         Rot=    0.999375    0.035212    0.000313   -0.003028 Ang=   4.05 deg.
 Guess basis will be translated and rotated to current coordinates.
 JPrj=2 DoOrth=T DoCkMO=T.
 Generating alternative initial guess.
 ExpMin= 1.50D-02 ExpMax= 1.94D+04 ExpMxC= 2.91D+03 IAcc=3 IRadAn=         5 AccDes= 0.00D+00
 Harris functional with IExCor= 1009 and IRadAn=       5 diagonalized for initial guess.
 HarFok:  IExCor= 1009 AccDes= 0.00D+00 IRadAn=         5 IDoV= 1 UseB2=F ITyADJ=14
 ICtDFT=  3500011 ScaDFX=  1.000000  1.000000  1.000000  1.000000
 Defaulting to unpruned grid for atomic number  78.
 FoFCou: FMM=F IPFlag=           0 FMFlag=      100000 FMFlg1=           0
         NFxFlg=           0 DoJE=T BraDBF=F KetDBF=T FulRan=T
         wScrn=  0.000000 ICntrl=       500 IOpCl=  0 I1Cent=   200000004 NGrid=           0
         NMat0=    1 NMatS0=      1 NMatT0=    0 NMatD0=    1 NMtDS0=    0 NMtDT0=    0
 Petite list used in FoFCou.
 Harris En= -1042.23555295134    
 Leave Link  401 at Fri Nov  1 06:09:00 2019, MaxMem=   140000000 cpu:              54.8 elap:               2.3
 (Enter /usr/g16/l502.exe)
 Integral symmetry usage will be decided dynamically.
 Closed shell SCF:
 Using DIIS extrapolation, IDIIS=  1040.
 NGot=   140000000 LenX=   139906737 LenY=   139863447
 Requested convergence on RMS density matrix=1.00D-08 within 128 cycles.
 Requested convergence on MAX density matrix=1.00D-06.
 Requested convergence on             energy=1.00D-06.
 No special actions if energy rises.
 Fock matrices will be formed incrementally for  20 cycles.

 Cycle   1  Pass 1  IDiag  1:
 FoFJK:  IHMeth= 1 ICntrl=       0 DoSepK=F KAlg= 0 I1Cent=           0 FoldK=F
 IRaf= 920000000 NMat=       1 IRICut=       1 DoRegI=T DoRafI=F ISym2E= 0 IDoP0=0 IntGTp=1.
 FoFCou: FMM=F IPFlag=           0 FMFlag=      100000 FMFlg1=           0
         NFxFlg=           0 DoJE=F BraDBF=F KetDBF=F FulRan=T
         wScrn=  0.000000 ICntrl=         0 IOpCl=  0 I1Cent=           0 NGrid=           0
         NMat0=    1 NMatS0=      1 NMatT0=    0 NMatD0=    1 NMtDS0=    0 NMtDT0=    0
 Symmetry not used in FoFCou.
 Defaulting to unpruned grid for atomic number  78.
 Defaulting to unpruned grid for atomic number  78.
 Defaulting to unpruned grid for atomic number  78.
 Defaulting to unpruned grid for atomic number  78.
 Defaulting to unpruned grid for atomic number  78.
 Defaulting to unpruned grid for atomic number  78.
 Defaulting to unpruned grid for atomic number  78.
 Defaulting to unpruned grid for atomic number  78.
 Defaulting to unpruned grid for atomic number  78.
 Defaulting to unpruned grid for atomic number  78.
 Defaulting to unpruned grid for atomic number  78.
 Defaulting to unpruned grid for atomic number  78.
 Defaulting to unpruned grid for atomic number  78.
 Defaulting to unpruned grid for atomic number  78.
 Defaulting to unpruned grid for atomic number  78.
 Defaulting to unpruned grid for atomic number  78.
 Defaulting to unpruned grid for atomic number  78.
 Defaulting to unpruned grid for atomic number  78.
 Defaulting to unpruned grid for atomic number  78.
 Defaulting to unpruned grid for atomic number  78.
 Defaulting to unpruned grid for atomic number  78.
 Defaulting to unpruned grid for atomic number  78.
 Defaulting to unpruned grid for atomic number  78.
 Defaulting to unpruned grid for atomic number  78.
 Inv3:  Mode=1 IEnd=    13893312.
 Iteration    1 A*A^-1 deviation from unit magnitude is 3.33D-15 for   2133.
 Iteration    1 A*A^-1 deviation from orthogonality  is 2.20D-15 for   1915    411.
 Iteration    1 A^-1*A deviation from unit magnitude is 3.33D-15 for   2133.
 Iteration    1 A^-1*A deviation from orthogonality  is 1.82D-15 for   2049   1041.
 E= -1042.40766861068    
 DIIS: error= 8.83D-03 at cycle   1 NSaved=   1.
 NSaved= 1 IEnMin= 1 EnMin= -1042.40766861068     IErMin= 1 ErrMin= 8.83D-03
 ErrMax= 8.83D-03  0.00D+00 EMaxC= 1.00D-01 BMatC= 2.05D-02 BMatP= 2.05D-02
 IDIUse=3 WtCom= 9.12D-01 WtEn= 8.83D-02
 Coeff-Com:  0.100D+01
 Coeff-En:   0.100D+01
 Coeff:      0.100D+01
 Gap=     3.355 Goal=   None    Shift=    0.000
 GapD=    3.355 DampG=2.000 DampE=1.000 DampFc=2.0000 IDamp=-1.
 RMSDP=7.05D-04 MaxDP=1.34D-02              OVMax= 2.21D-02

 Cycle   2  Pass 1  IDiag  1:
 RMSU=  7.05D-04    CP:  1.00D+00
 E= -1042.42424164420     Delta-E=       -0.016573033518 Rises=F Damp=F
 DIIS: error= 1.13D-03 at cycle   2 NSaved=   2.
 NSaved= 2 IEnMin= 2 EnMin= -1042.42424164420     IErMin= 2 ErrMin= 1.13D-03
 ErrMax= 1.13D-03  0.00D+00 EMaxC= 1.00D-01 BMatC= 2.88D-04 BMatP= 2.05D-02
 IDIUse=3 WtCom= 9.89D-01 WtEn= 1.13D-02
 Coeff-Com: -0.559D-01 0.106D+01
 Coeff-En:   0.000D+00 0.100D+01
 Coeff:     -0.553D-01 0.106D+01
 Gap=     0.233 Goal=   None    Shift=    0.000
 RMSDP=2.11D-04 MaxDP=6.01D-03 DE=-1.66D-02 OVMax= 6.70D-03

 Cycle   3  Pass 1  IDiag  1:
 RMSU=  1.42D-04    CP:  1.00D+00  1.22D+00
 E= -1042.42499674910     Delta-E=       -0.000755104900 Rises=F Damp=F
 DIIS: error= 2.81D-04 at cycle   3 NSaved=   3.
 NSaved= 3 IEnMin= 3 EnMin= -1042.42499674910     IErMin= 3 ErrMin= 2.81D-04
 ErrMax= 2.81D-04  0.00D+00 EMaxC= 1.00D-01 BMatC= 2.81D-05 BMatP= 2.88D-04
 IDIUse=3 WtCom= 9.97D-01 WtEn= 2.81D-03
 Coeff-Com: -0.130D-01 0.652D-01 0.948D+00
 Coeff-En:   0.000D+00 0.000D+00 0.100D+01
 Coeff:     -0.129D-01 0.650D-01 0.948D+00
 Gap=     0.233 Goal=   None    Shift=    0.000
 RMSDP=6.99D-05 MaxDP=1.65D-03 DE=-7.55D-04 OVMax= 2.84D-03

 Cycle   4  Pass 1  IDiag  1:
 RMSU=  5.89D-05    CP:  1.00D+00  1.27D+00  1.06D+00
 E= -1042.42503610246     Delta-E=       -0.000039353355 Rises=F Damp=F
 DIIS: error= 2.00D-04 at cycle   4 NSaved=   4.
 NSaved= 4 IEnMin= 4 EnMin= -1042.42503610246     IErMin= 4 ErrMin= 2.00D-04
 ErrMax= 2.00D-04  0.00D+00 EMaxC= 1.00D-01 BMatC= 1.68D-05 BMatP= 2.81D-05
 IDIUse=3 WtCom= 9.98D-01 WtEn= 2.00D-03
 Coeff-Com:  0.387D-03-0.994D-01 0.460D+00 0.639D+00
 Coeff-En:   0.000D+00 0.000D+00 0.000D+00 0.100D+01
 Coeff:      0.386D-03-0.992D-01 0.459D+00 0.640D+00
 Gap=     0.234 Goal=   None    Shift=    0.000
 RMSDP=2.89D-05 MaxDP=6.91D-04 DE=-3.94D-05 OVMax= 1.05D-03

 Cycle   5  Pass 1  IDiag  1:
 RMSU=  1.56D-05    CP:  1.00D+00  1.28D+00  1.21D+00  8.35D-01
