 Entering Gaussian System, Link 0=g16
 Input=Pt_ts4.gjf
 Output=Pt_ts4.log
 Initial command:
 /usr/g16/l1.exe "/scratch/wsr/gaussian/Gau-94986.inp" -scrdir="/scratch/wsr/gaussian/"
 Entering Link 1 = /usr/g16/l1.exe PID=     94987.
  
 Copyright (c) 1988,1990,1992,1993,1995,1998,2003,2009,2016,
            Gaussian, Inc.  All Rights Reserved.
  
 This is part of the Gaussian(R) 16 program.  It is based on
 the Gaussian(R) 09 system (copyright 2009, Gaussian, Inc.),
 the Gaussian(R) 03 system (copyright 2003, Gaussian, Inc.),
 the Gaussian(R) 98 system (copyright 1998, Gaussian, Inc.),
 the Gaussian(R) 94 system (copyright 1995, Gaussian, Inc.),
 the Gaussian 92(TM) system (copyright 1992, Gaussian, Inc.),
 the Gaussian 90(TM) system (copyright 1990, Gaussian, Inc.),
 the Gaussian 88(TM) system (copyright 1988, Gaussian, Inc.),
 the Gaussian 86(TM) system (copyright 1986, Carnegie Mellon
 University), and the Gaussian 82(TM) system (copyright 1983,
 Carnegie Mellon University). Gaussian is a federally registered
 trademark of Gaussian, Inc.
  
 This software contains proprietary and confidential information,
 including trade secrets, belonging to Gaussian, Inc.
  
 This software is provided under written license and may be
 used, copied, transmitted, or stored only in accord with that
 written license.
  
 The following legend is applicable only to US Government
 contracts under FAR:
  
                    RESTRICTED RIGHTS LEGEND
  
 Use, reproduction and disclosure by the US Government is
 subject to restrictions as set forth in subparagraphs (a)
 and (c) of the Commercial Computer Software - Restricted
 Rights clause in FAR 52.227-19.
  
 Gaussian, Inc.
 340 Quinnipiac St., Bldg. 40, Wallingford CT 06492
  
  
 ---------------------------------------------------------------
 Warning -- This program may not be used in any manner that
 competes with the business of Gaussian, Inc. or will provide
 assistance to any competitor of Gaussian, Inc.  The licensee
 of this program is prohibited from giving any competitor of
 Gaussian, Inc. access to this program.  By using this program,
 the user acknowledges that Gaussian, Inc. is engaged in the
 business of creating and licensing software in the field of
 computational chemistry and represents and warrants to the
 licensee that it is not a competitor of Gaussian, Inc. and that
 it will not use this program in any manner prohibited above.
 ---------------------------------------------------------------
  

 Cite this work as:
 Gaussian 16, Revision A.03,
 M. J. Frisch, G. W. Trucks, H. B. Schlegel, G. E. Scuseria, 
 M. A. Robb, J. R. Cheeseman, G. Scalmani, V. Barone, 
 G. A. Petersson, H. Nakatsuji, X. Li, M. Caricato, A. V. Marenich, 
 J. Bloino, B. G. Janesko, R. Gomperts, B. Mennucci, H. P. Hratchian, 
 J. V. Ortiz, A. F. Izmaylov, J. L. Sonnenberg, D. Williams-Young, 
 F. Ding, F. Lipparini, F. Egidi, J. Goings, B. Peng, A. Petrone, 
 T. Henderson, D. Ranasinghe, V. G. Zakrzewski, J. Gao, N. Rega, 
 G. Zheng, W. Liang, M. Hada, M. Ehara, K. Toyota, R. Fukuda, 
 J. Hasegawa, M. Ishida, T. Nakajima, Y. Honda, O. Kitao, H. Nakai, 
 T. Vreven, K. Throssell, J. A. Montgomery, Jr., J. E. Peralta, 
 F. Ogliaro, M. J. Bearpark, J. J. Heyd, E. N. Brothers, K. N. Kudin, 
 V. N. Staroverov, T. A. Keith, R. Kobayashi, J. Normand, 
 K. Raghavachari, A. P. Rendell, J. C. Burant, S. S. Iyengar, 
 J. Tomasi, M. Cossi, J. M. Millam, M. Klene, C. Adamo, R. Cammi, 
 J. W. Ochterski, R. L. Martin, K. Morokuma, O. Farkas, 
 J. B. Foresman, and D. J. Fox, Gaussian, Inc., Wallingford CT, 2016.
 
 ******************************************
 Gaussian 16:  ES64L-G16RevA.03 25-Dec-2016
                31-Oct-2019 
 ******************************************
 %chk=Pt_ts4.chk
 %nprocshared=24
 Will use up to   24 processors via shared memory.
 ----------------------------------------------------------------------
 #p opt=(calcall,ts,noeigen) b3lyp/genecp scrf=(smd,solvent=benzene) em
 =gd3bj
 ----------------------------------------------------------------------
 1/5=1,10=4,11=1,18=20,26=3,38=1/1,3;
 2/9=110,12=2,17=6,18=5,40=1/2;
 3/5=7,11=2,16=1,17=8,25=1,30=1,70=32201,71=2,72=12,74=-5,124=41,140=1/1,2,3;
 4//1;
 5/5=2,38=5,53=12/2;
 8/6=4,10=90,11=11/1;
 11/6=1,8=1,9=11,15=111,16=1/1,2,10;
 10/6=1/2;
 6/7=2,8=2,9=2,10=2,18=1,28=1/1;
 7/10=1,25=1/1,2,3,16;
 1/5=1,10=4,11=1,18=20,26=3/3(3);
 2/9=110/2;
 7/8=1,9=1,25=1,44=-1/16;
 99//99;
 2/9=110/2;
 3/5=7,6=1,11=2,16=1,17=8,25=1,30=1,70=32205,71=2,72=12,74=-5,82=7,124=41,140=1/1,2,3;
 4/5=5,16=3,69=1/1;
 5/5=2,38=5,53=12/2;
 8/6=4,10=90,11=11/1;
 11/6=1,8=1,9=11,15=111,16=1/1,2,10;
 10/6=1/2;
 7/10=1,25=1/1,2,3,16;
 1/5=1,10=4,11=1,18=20,26=3/3(-8);
 2/9=110/2;
 6/7=2,8=2,9=2,10=2,18=1,19=2,28=1/1;
 7/8=1,9=1,25=1,44=-1/16;
 99//99;
 Leave Link    1 at Thu Oct 31 04:51:33 2019, MaxMem=           0 cpu:               2.2 elap:               0.1
 (Enter /usr/g16/l101.exe)
 -------------------
 Title Card Required
 -------------------
 Symbolic Z-matrix:
 Charge =  0 Multiplicity = 1
 Pt                   -0.00099   0.87025   0.00797 
 P                     1.84544  -0.55875   0.0053 
 P                    -1.85307  -0.55159   0.0069 
 C                     2.99486  -0.27002   1.41402 
 H                     2.47553  -0.47668   2.35553 
 H                     3.8856   -0.90552   1.34654 
 H                     3.29608   0.7816    1.4179 
 C                     1.67655  -2.39632   0.03308 
 H                     1.07287  -2.72437  -0.81937 
 H                     2.65643  -2.88488  -0.02106 
 H                     1.17843  -2.70835   0.95566 
 C                     2.92986  -0.30977  -1.46171 
 H                     3.22164   0.74311  -1.51507 
 H                     3.82796  -0.93646  -1.41188 
 H                     2.37178  -0.55252  -2.37198 
 C                    -3.36134   0.19004   0.75636 
 H                    -3.60914   1.11174   0.22205 
 H                    -4.2146   -0.49725   0.71853 
 H                    -3.15312   0.45109   1.79903 
 C                    -1.79233  -2.18782   0.85881 
 H                    -2.77943  -2.66449   0.86631 
 H                    -1.08678  -2.85125   0.35238 
 H                    -1.45781  -2.04897   1.89213 
 C                    -2.43244  -1.01537  -1.67942 
 H                    -1.64672  -1.57693  -2.1954 
 H                    -3.34398  -1.62326  -1.64182 
 H                    -2.62919  -0.10387  -2.25231 
 H                    -1.05344   2.10429  -0.00862 
 H                     1.089     2.07445  -0.02011 
 
 ITRead=  0  0  0  0  0  0  0  0  0  0  0  0  0  0  0  0  0  0  0  0
 ITRead=  0  0  0  0  0  0  0  0  0
 MicOpt= -1 -1 -1 -1 -1 -1 -1 -1 -1 -1 -1 -1 -1 -1 -1 -1 -1 -1 -1 -1
 MicOpt= -1 -1 -1 -1 -1 -1 -1 -1 -1
 NAtoms=     29 NQM=       29 NQMF=       0 NMMI=      0 NMMIF=      0
                NMic=       0 NMicF=      0.
                    Isotopes and Nuclear Properties:
 (Nuclear quadrupole moments (NQMom) in fm**2, nuclear magnetic moments (NMagM)
  in nuclear magnetons)

  Atom         1           2           3           4           5           6           7           8           9          10
 IAtWgt=         195          31          31          12           1           1           1          12           1           1
 AtmWgt= 194.9648000  30.9737634  30.9737634  12.0000000   1.0078250   1.0078250   1.0078250  12.0000000   1.0078250   1.0078250
 NucSpn=           1           1           1           0           1           1           1           0           1           1
 AtZEff=  -0.0000000  -0.0000000  -0.0000000  -0.0000000  -0.0000000  -0.0000000  -0.0000000  -0.0000000  -0.0000000  -0.0000000
 NQMom=    0.0000000   0.0000000   0.0000000   0.0000000   0.0000000   0.0000000   0.0000000   0.0000000   0.0000000   0.0000000
 NMagM=    0.6095000   1.1316000   1.1316000   0.0000000   2.7928460   2.7928460   2.7928460   0.0000000   2.7928460   2.7928460
 AtZNuc=  78.0000000  15.0000000  15.0000000   6.0000000   1.0000000   1.0000000   1.0000000   6.0000000   1.0000000   1.0000000

  Atom        11          12          13          14          15          16          17          18          19          20
 IAtWgt=           1          12           1           1           1          12           1           1           1          12
 AtmWgt=   1.0078250  12.0000000   1.0078250   1.0078250   1.0078250  12.0000000   1.0078250   1.0078250   1.0078250  12.0000000
 NucSpn=           1           0           1           1           1           0           1           1           1           0
 AtZEff=  -0.0000000  -0.0000000  -0.0000000  -0.0000000  -0.0000000  -0.0000000  -0.0000000  -0.0000000  -0.0000000  -0.0000000
 NQMom=    0.0000000   0.0000000   0.0000000   0.0000000   0.0000000   0.0000000   0.0000000   0.0000000   0.0000000   0.0000000
 NMagM=    2.7928460   0.0000000   2.7928460   2.7928460   2.7928460   0.0000000   2.7928460   2.7928460   2.7928460   0.0000000
 AtZNuc=   1.0000000   6.0000000   1.0000000   1.0000000   1.0000000   6.0000000   1.0000000   1.0000000   1.0000000   6.0000000

  Atom        21          22          23          24          25          26          27          28          29
 IAtWgt=           1           1           1          12           1           1           1           1           1
 AtmWgt=   1.0078250   1.0078250   1.0078250  12.0000000   1.0078250   1.0078250   1.0078250   1.0078250   1.0078250
 NucSpn=           1           1           1           0           1           1           1           1           1
 AtZEff=  -0.0000000  -0.0000000  -0.0000000  -0.0000000  -0.0000000  -0.0000000  -0.0000000  -0.0000000  -0.0000000
 NQMom=    0.0000000   0.0000000   0.0000000   0.0000000   0.0000000   0.0000000   0.0000000   0.0000000   0.0000000
 NMagM=    2.7928460   2.7928460   2.7928460   0.0000000   2.7928460   2.7928460   2.7928460   2.7928460   2.7928460
 AtZNuc=   1.0000000   1.0000000   1.0000000   6.0000000   1.0000000   1.0000000   1.0000000   1.0000000   1.0000000
 Leave Link  101 at Thu Oct 31 04:51:33 2019, MaxMem=   140000000 cpu:               4.1 elap:               0.2
 (Enter /usr/g16/l103.exe)

 GradGradGradGradGradGradGradGradGradGradGradGradGradGradGradGradGradGrad
 Berny optimization.
 Initialization pass.
                           ----------------------------
                           !    Initial Parameters    !
                           ! (Angstroms and Degrees)  !
 --------------------------                            --------------------------
 ! Name  Definition              Value          Derivative Info.                !
 --------------------------------------------------------------------------------
 ! R1    R(1,2)                  2.3348         calculate D2E/DX2 analytically  !
 ! R2    R(1,3)                  2.3349         calculate D2E/DX2 analytically  !
 ! R3    R(1,28)                 1.622          calculate D2E/DX2 analytically  !
 ! R4    R(1,29)                 1.6245         calculate D2E/DX2 analytically  !
 ! R5    R(2,4)                  1.8409         calculate D2E/DX2 analytically  !
 ! R6    R(2,8)                  1.8455         calculate D2E/DX2 analytically  !
 ! R7    R(2,12)                 1.8412         calculate D2E/DX2 analytically  !
 ! R8    R(3,16)                 1.8403         calculate D2E/DX2 analytically  !
 ! R9    R(3,20)                 1.8457         calculate D2E/DX2 analytically  !
 ! R10   R(3,24)                 1.8424         calculate D2E/DX2 analytically  !
 ! R11   R(4,5)                  1.0949         calculate D2E/DX2 analytically  !
 ! R12   R(4,6)                  1.0963         calculate D2E/DX2 analytically  !
 ! R13   R(4,7)                  1.0939         calculate D2E/DX2 analytically  !
 ! R14   R(8,9)                  1.0949         calculate D2E/DX2 analytically  !
 ! R15   R(8,10)                 1.0963         calculate D2E/DX2 analytically  !
 ! R16   R(8,11)                 1.0939         calculate D2E/DX2 analytically  !
 ! R17   R(12,13)                1.0939         calculate D2E/DX2 analytically  !
 ! R18   R(12,14)                1.0963         calculate D2E/DX2 analytically  !
 ! R19   R(12,15)                1.095          calculate D2E/DX2 analytically  !
 ! R20   R(16,17)                1.0938         calculate D2E/DX2 analytically  !
 ! R21   R(16,18)                1.0963         calculate D2E/DX2 analytically  !
 ! R22   R(16,19)                1.0948         calculate D2E/DX2 analytically  !
 ! R23   R(20,21)                1.0962         calculate D2E/DX2 analytically  !
 ! R24   R(20,22)                1.0929         calculate D2E/DX2 analytically  !
 ! R25   R(20,23)                1.095          calculate D2E/DX2 analytically  !
 ! R26   R(24,25)                1.095          calculate D2E/DX2 analytically  !
 ! R27   R(24,26)                1.0963         calculate D2E/DX2 analytically  !
 ! R28   R(24,27)                1.0944         calculate D2E/DX2 analytically  !
 ! A1    A(2,1,3)              104.7494         calculate D2E/DX2 analytically  !
 ! A2    A(2,1,29)              85.5867         calculate D2E/DX2 analytically  !
 ! A3    A(3,1,28)              87.0541         calculate D2E/DX2 analytically  !
 ! A4    A(28,1,29)             82.6004         calculate D2E/DX2 analytically  !
 ! A5    A(1,2,4)              113.3844         calculate D2E/DX2 analytically  !
 ! A6    A(1,2,8)              122.4806         calculate D2E/DX2 analytically  !
 ! A7    A(1,2,12)             112.5766         calculate D2E/DX2 analytically  !
 ! A8    A(4,2,8)              101.6411         calculate D2E/DX2 analytically  !
 ! A9    A(4,2,12)             102.7534         calculate D2E/DX2 analytically  !
 ! A10   A(8,2,12)             101.5686         calculate D2E/DX2 analytically  !
 ! A11   A(1,3,16)             113.861          calculate D2E/DX2 analytically  !
 ! A12   A(1,3,20)             120.898          calculate D2E/DX2 analytically  !
 ! A13   A(1,3,24)             113.7747         calculate D2E/DX2 analytically  !
 ! A14   A(16,3,20)            101.3184         calculate D2E/DX2 analytically  !
 ! A15   A(16,3,24)            102.5018         calculate D2E/DX2 analytically  !
 ! A16   A(20,3,24)            102.1021         calculate D2E/DX2 analytically  !
 ! A17   A(2,4,5)              109.4059         calculate D2E/DX2 analytically  !
 ! A18   A(2,4,6)              111.6717         calculate D2E/DX2 analytically  !
 ! A19   A(2,4,7)              108.9907         calculate D2E/DX2 analytically  !
 ! A20   A(5,4,6)              109.2019         calculate D2E/DX2 analytically  !
 ! A21   A(5,4,7)              107.9994         calculate D2E/DX2 analytically  !
 ! A22   A(6,4,7)              109.4968         calculate D2E/DX2 analytically  !
 ! A23   A(2,8,9)              109.6985         calculate D2E/DX2 analytically  !
 ! A24   A(2,8,10)             111.1736         calculate D2E/DX2 analytically  !
 ! A25   A(2,8,11)             109.7784         calculate D2E/DX2 analytically  !
 ! A26   A(9,8,10)             108.7142         calculate D2E/DX2 analytically  !
 ! A27   A(9,8,11)             108.67           calculate D2E/DX2 analytically  !
 ! A28   A(10,8,11)            108.7568         calculate D2E/DX2 analytically  !
 ! A29   A(2,12,13)            109.0343         calculate D2E/DX2 analytically  !
 ! A30   A(2,12,14)            111.653          calculate D2E/DX2 analytically  !
 ! A31   A(2,12,15)            109.4021         calculate D2E/DX2 analytically  !
 ! A32   A(13,12,14)           109.5072         calculate D2E/DX2 analytically  !
 ! A33   A(13,12,15)           107.9864         calculate D2E/DX2 analytically  !
 ! A34   A(14,12,15)           109.1834         calculate D2E/DX2 analytically  !
 ! A35   A(3,16,17)            109.046          calculate D2E/DX2 analytically  !
 ! A36   A(3,16,18)            111.7896         calculate D2E/DX2 analytically  !
 ! A37   A(3,16,19)            109.1517         calculate D2E/DX2 analytically  !
 ! A38   A(17,16,18)           109.5783         calculate D2E/DX2 analytically  !
 ! A39   A(17,16,19)           107.9013         calculate D2E/DX2 analytically  !
 ! A40   A(18,16,19)           109.2909         calculate D2E/DX2 analytically  !
 ! A41   A(3,20,21)            111.0386         calculate D2E/DX2 analytically  !
 ! A42   A(3,20,22)            110.2127         calculate D2E/DX2 analytically  !
 ! A43   A(3,20,23)            109.464          calculate D2E/DX2 analytically  !
 ! A44   A(21,20,22)           108.6959         calculate D2E/DX2 analytically  !
 ! A45   A(21,20,23)           108.8927         calculate D2E/DX2 analytically  !
 ! A46   A(22,20,23)           108.4844         calculate D2E/DX2 analytically  !
 ! A47   A(3,24,25)            109.5577         calculate D2E/DX2 analytically  !
 ! A48   A(3,24,26)            111.6943         calculate D2E/DX2 analytically  !
 ! A49   A(3,24,27)            109.0264         calculate D2E/DX2 analytically  !
 ! A50   A(25,24,26)           109.1735         calculate D2E/DX2 analytically  !
 ! A51   A(25,24,27)           108.0278         calculate D2E/DX2 analytically  !
 ! A52   A(26,24,27)           109.2867         calculate D2E/DX2 analytically  !
 ! A53   L(2,1,28,29,-1)       168.1871         calculate D2E/DX2 analytically  !
 ! A54   L(3,1,29,28,-1)       169.6546         calculate D2E/DX2 analytically  !
 ! A55   L(2,1,28,29,-2)       179.5482         calculate D2E/DX2 analytically  !
 ! A56   L(3,1,29,28,-2)       180.9187         calculate D2E/DX2 analytically  !
 ! D1    D(3,1,2,4)           -123.5123         calculate D2E/DX2 analytically  !
 ! D2    D(3,1,2,8)             -1.1089         calculate D2E/DX2 analytically  !
 ! D3    D(3,1,2,12)           120.3672         calculate D2E/DX2 analytically  !
 ! D4    D(29,1,2,4)            57.5204         calculate D2E/DX2 analytically  !
 ! D5    D(29,1,2,8)           179.9237         calculate D2E/DX2 analytically  !
 ! D6    D(29,1,2,12)          -58.6002         calculate D2E/DX2 analytically  !
 ! D7    D(2,1,3,16)           153.6181         calculate D2E/DX2 analytically  !
 ! D8    D(2,1,3,20)            32.6339         calculate D2E/DX2 analytically  !
 ! D9    D(2,1,3,24)           -89.413          calculate D2E/DX2 analytically  !
 ! D10   D(28,1,3,16)          -27.0421         calculate D2E/DX2 analytically  !
 ! D11   D(28,1,3,20)         -148.0263         calculate D2E/DX2 analytically  !
 ! D12   D(28,1,3,24)           89.9268         calculate D2E/DX2 analytically  !
 ! D13   D(1,2,4,5)             63.0441         calculate D2E/DX2 analytically  !
 ! D14   D(1,2,4,6)           -175.944          calculate D2E/DX2 analytically  !
 ! D15   D(1,2,4,7)            -54.8417         calculate D2E/DX2 analytically  !
 ! D16   D(8,2,4,5)            -70.3051         calculate D2E/DX2 analytically  !
 ! D17   D(8,2,4,6)             50.7068         calculate D2E/DX2 analytically  !
 ! D18   D(8,2,4,7)            171.8092         calculate D2E/DX2 analytically  !
 ! D19   D(12,2,4,5)          -175.1713         calculate D2E/DX2 analytically  !
 ! D20   D(12,2,4,6)           -54.1594         calculate D2E/DX2 analytically  !
 ! D21   D(12,2,4,7)            66.943          calculate D2E/DX2 analytically  !
 ! D22   D(1,2,8,9)             56.9813         calculate D2E/DX2 analytically  !
 ! D23   D(1,2,8,10)           177.2557         calculate D2E/DX2 analytically  !
 ! D24   D(1,2,8,11)           -62.3641         calculate D2E/DX2 analytically  !
 ! D25   D(4,2,8,9)           -175.3187         calculate D2E/DX2 analytically  !
 ! D26   D(4,2,8,10)           -55.0443         calculate D2E/DX2 analytically  !
 ! D27   D(4,2,8,11)            65.3359         calculate D2E/DX2 analytically  !
 ! D28   D(12,2,8,9)           -69.5213         calculate D2E/DX2 analytically  !
 ! D29   D(12,2,8,10)           50.7531         calculate D2E/DX2 analytically  !
 ! D30   D(12,2,8,11)          171.1334         calculate D2E/DX2 analytically  !
 ! D31   D(1,2,12,13)           54.7875         calculate D2E/DX2 analytically  !
 ! D32   D(1,2,12,14)          175.9202         calculate D2E/DX2 analytically  !
 ! D33   D(1,2,12,15)          -63.1059         calculate D2E/DX2 analytically  !
 ! D34   D(4,2,12,13)          -67.5441         calculate D2E/DX2 analytically  !
 ! D35   D(4,2,12,14)           53.5886         calculate D2E/DX2 analytically  !
 ! D36   D(4,2,12,15)          174.5626         calculate D2E/DX2 analytically  !
 ! D37   D(8,2,12,13)         -172.4662         calculate D2E/DX2 analytically  !
 ! D38   D(8,2,12,14)          -51.3335         calculate D2E/DX2 analytically  !
 ! D39   D(8,2,12,15)           69.6404         calculate D2E/DX2 analytically  !
 ! D40   D(1,3,16,17)           57.4426         calculate D2E/DX2 analytically  !
 ! D41   D(1,3,16,18)          178.7605         calculate D2E/DX2 analytically  !
 ! D42   D(1,3,16,19)          -60.2111         calculate D2E/DX2 analytically  !
 ! D43   D(20,3,16,17)        -171.168          calculate D2E/DX2 analytically  !
 ! D44   D(20,3,16,18)         -49.8501         calculate D2E/DX2 analytically  !
 ! D45   D(20,3,16,19)          71.1783         calculate D2E/DX2 analytically  !
 ! D46   D(24,3,16,17)         -65.897          calculate D2E/DX2 analytically  !
 ! D47   D(24,3,16,18)          55.4209         calculate D2E/DX2 analytically  !
 ! D48   D(24,3,16,19)         176.4493         calculate D2E/DX2 analytically  !
 ! D49   D(1,3,20,21)          172.884          calculate D2E/DX2 analytically  !
 ! D50   D(1,3,20,22)          -66.6124         calculate D2E/DX2 analytically  !
 ! D51   D(1,3,20,23)           52.6264         calculate D2E/DX2 analytically  !
 ! D52   D(16,3,20,21)          45.9744         calculate D2E/DX2 analytically  !
 ! D53   D(16,3,20,22)         166.4781         calculate D2E/DX2 analytically  !
 ! D54   D(16,3,20,23)         -74.2831         calculate D2E/DX2 analytically  !
 ! D55   D(24,3,20,21)         -59.6124         calculate D2E/DX2 analytically  !
 ! D56   D(24,3,20,22)          60.8913         calculate D2E/DX2 analytically  !
 ! D57   D(24,3,20,23)        -179.8699         calculate D2E/DX2 analytically  !
 ! D58   D(1,3,24,25)           62.9902         calculate D2E/DX2 analytically  !
 ! D59   D(1,3,24,26)         -175.916          calculate D2E/DX2 analytically  !
 ! D60   D(1,3,24,27)          -55.0384         calculate D2E/DX2 analytically  !
 ! D61   D(16,3,24,25)        -173.6123         calculate D2E/DX2 analytically  !
 ! D62   D(16,3,24,26)         -52.5186         calculate D2E/DX2 analytically  !
 ! D63   D(16,3,24,27)          68.3591         calculate D2E/DX2 analytically  !
 ! D64   D(20,3,24,25)         -68.9489         calculate D2E/DX2 analytically  !
 ! D65   D(20,3,24,26)          52.1448         calculate D2E/DX2 analytically  !
 ! D66   D(20,3,24,27)         173.0224         calculate D2E/DX2 analytically  !
 --------------------------------------------------------------------------------
 Trust Radius=3.00D-01 FncErr=1.00D-07 GrdErr=1.00D-06 EigMax=2.50D+02 EigMin=1.00D-04
 Number of steps in this run=    160 maximum allowed number of steps=    174.
 Search for a saddle point of order  1.
 GradGradGradGradGradGradGradGradGradGradGradGradGradGradGradGradGradGrad

 Leave Link  103 at Thu Oct 31 04:51:33 2019, MaxMem=   140000000 cpu:               0.5 elap:               0.0
 (Enter /usr/g16/l202.exe)
                          Input orientation:                          
 ---------------------------------------------------------------------
 Center     Atomic      Atomic             Coordinates (Angstroms)
 Number     Number       Type             X           Y           Z
 ---------------------------------------------------------------------
      1         78           0       -0.000993    0.870247    0.007971
      2         15           0        1.845437   -0.558753    0.005296
      3         15           0       -1.853074   -0.551588    0.006902
      4          6           0        2.994859   -0.270020    1.414019
      5          1           0        2.475525   -0.476682    2.355533
      6          1           0        3.885597   -0.905515    1.346540
      7          1           0        3.296081    0.781596    1.417895
      8          6           0        1.676547   -2.396324    0.033084
      9          1           0        1.072874   -2.724373   -0.819370
     10          1           0        2.656429   -2.884882   -0.021064
     11          1           0        1.178429   -2.708354    0.955664
     12          6           0        2.929855   -0.309767   -1.461712
     13          1           0        3.221637    0.743106   -1.515072
     14          1           0        3.827960   -0.936457   -1.411884
     15          1           0        2.371776   -0.552520   -2.371977
     16          6           0       -3.361340    0.190037    0.756361
     17          1           0       -3.609143    1.111735    0.222051
     18          1           0       -4.214598   -0.497253    0.718534
     19          1           0       -3.153123    0.451085    1.799029
     20          6           0       -1.792326   -2.187824    0.858814
     21          1           0       -2.779434   -2.664486    0.866309
     22          1           0       -1.086775   -2.851252    0.352382
     23          1           0       -1.457805   -2.048974    1.892127
     24          6           0       -2.432440   -1.015367   -1.679422
     25          1           0       -1.646717   -1.576933   -2.195398
     26          1           0       -3.343976   -1.623258   -1.641819
     27          1           0       -2.629194   -0.103870   -2.252313
     28          1           0       -1.053437    2.104286   -0.008617
     29          1           0        1.088999    2.074447   -0.020107
 ---------------------------------------------------------------------
                    Distance matrix (angstroms):
                    1          2          3          4          5
     1  Pt   0.000000
     2  P    2.334813   0.000000
     3  P    2.334913   3.698518   0.000000
     4  C    3.500330   1.840934   5.055859   0.000000
     5  H    3.668570   2.434617   4.925287   1.094927   0.000000
     6  H    4.477799   2.466056   5.903579   1.096276   1.786132
     7  H    3.586982   2.428238   5.502915   1.093913   1.770802
     8  C    3.672228   1.845525   3.982708   2.857638   3.117236
     9  H    3.841741   2.442711   3.736963   3.834827   4.135161
    10  H    4.600405   2.463591   5.077466   3.001916   3.388269
    11  H    3.885298   2.443130   3.839505   3.074895   2.936401
    12  C    3.484576   1.841214   5.009163   2.876740   3.847809
    13  H    3.566675   2.429050   5.453928   3.107640   4.126275
    14  H    4.465540   2.466061   5.868153   3.020583   4.029132
    15  H    3.649445   2.434851   4.848549   3.847311   4.729256
    16  C    3.509231   5.313691   1.840262   6.406671   6.088584
    17  H    3.622553   5.708761   2.428314   6.851487   6.640632
    18  H    4.486583   6.102173   2.467016   7.246489   6.887520
    19  H    3.649590   5.405817   2.430473   6.202089   5.731677
    20  C    3.644805   4.076234   1.845728   5.186845   4.835569
    21  H    4.577206   5.154114   2.461922   6.275023   5.883780
    22  H    3.891927   3.738166   2.448474   4.944650   4.726646
    23  H    3.767519   4.085621   2.439770   4.818660   4.261213
    24  C    3.509241   4.620282   1.842402   6.291303   6.376454
    25  H    3.681295   4.251457   2.438040   6.023300   6.238141
    26  H    4.484965   5.547627   2.467701   7.165907   7.152625
    27  H    3.600726   5.032498   2.430405   6.715621   6.886900
    28  H    1.621964   3.936425   2.773685   4.904072   4.970329
    29  H    1.624490   2.739815   3.943676   3.344480   3.751584
                    6          7          8          9         10
     6  H    0.000000
     7  H    1.788565   0.000000
     8  C    2.971124   3.826195   0.000000
     9  H    3.988837   4.715912   1.094858   0.000000
    10  H    2.701683   3.990341   1.096262   1.780647   0.000000
    11  H    3.275938   4.108267   1.093910   1.778242   1.780349
    12  C    3.025663   3.101182   2.856382   3.113086   2.963350
    13  H    3.368622   2.934164   3.826240   4.138187   3.964066
    14  H    2.759200   3.352947   2.974512   3.337396   2.665188
    15  H    4.030338   4.122782   3.109224   2.968953   3.323813
    16  C    7.353002   6.716310   5.709002   5.535248   6.802430
    17  H    7.842506   7.015779   6.346708   6.141788   7.435687
    18  H    8.134754   7.650808   6.227512   5.939913   7.311552
    19  H    7.182527   6.468905   5.878096   5.899034   6.942068
    20  C    5.841319   5.917931   3.571888   3.363563   4.588191
    21  H    6.909938   7.006541   4.541139   4.205399   5.512224
    22  H    5.431273   5.791574   2.818663   2.460322   3.761937
    23  H    5.491549   5.553058   3.660718   3.769976   4.613671
    24  C    7.006148   6.755620   4.660847   3.993447   5.669376
    25  H    6.603228   6.561234   4.084314   3.256723   4.995550
    26  H    7.855709   7.696462   5.348699   4.625737   6.342192
    27  H    7.485778   7.025906   5.386816   4.756645   6.375760
    28  H    5.940489   4.764741   5.264033   5.338021   6.217319
    29  H    4.309160   2.934370   4.509527   4.864952   5.201133
                   11         12         13         14         15
    11  H    0.000000
    12  C    3.829415   0.000000
    13  H    4.710819   1.093858   0.000000
    14  H    3.970506   1.096274   1.788633   0.000000
    15  H    4.140639   1.094972   1.770649   1.785961   0.000000
    16  C    5.389795   6.689453   6.985763   7.593175   6.573166
    17  H    6.168640   6.900306   7.057835   7.885134   6.728307
    18  H    5.833519   7.472070   7.862892   8.331526   7.275619
    19  H    5.427307   6.943627   7.190696   7.808377   6.994928
    20  C    3.017568   5.586675   6.274194   6.189475   5.518331
    21  H    3.959115   6.600028   7.300378   7.199577   6.440641
    22  H    2.348514   5.087573   5.913477   5.561807   4.966677
    23  H    2.874278   5.790046   6.426655   6.331942   5.923483
    24  C    4.779985   5.412899   5.923498   6.266611   4.875895
    25  H    4.380725   4.805103   5.435650   5.567422   4.150770
    26  H    5.326960   6.412383   6.980187   7.208414   5.860839
    27  H    5.618936   5.618760   5.957610   6.564629   5.022480
    28  H    5.391898   4.879114   4.732703   5.919739   4.937223
    29  H    4.882142   3.339379   2.924984   4.301685   3.752035
                   16         17         18         19         20
    16  C    0.000000
    17  H    1.093810   0.000000
    18  H    1.096288   1.789389   0.000000
    19  H    1.094832   1.769540   1.787049   0.000000
    20  C    2.850706   3.820128   2.957213   3.114420   0.000000
    21  H    2.915305   3.919608   2.603542   3.273590   1.096196
    22  H    3.819199   4.699425   3.931750   4.155480   1.092892
    23  H    3.150648   4.172228   3.374176   3.022096   1.094952
    24  C    2.872089   3.086226   3.032280   3.843109   2.868282
    25  H    3.843826   4.113892   4.031218   4.726263   3.118109
    26  H    3.006594   3.320318   2.756290   4.022283   2.996584
    27  H    3.110392   2.925829   3.390308   4.122602   3.836968
    28  H    3.094504   2.751363   4.158088   3.226351   4.440788
    29  H    4.894836   4.801874   5.940318   4.892868   5.219338
                   21         22         23         24         25
    21  H    0.000000
    22  H    1.778791   0.000000
    23  H    1.782656   1.775423   0.000000
    24  C    3.052989   3.051150   3.843725   0.000000
    25  H    3.440911   2.903206   4.119026   1.094965   0.000000
    26  H    2.773728   3.252655   4.028356   1.096286   1.785857
    27  H    4.037961   4.087982   4.725671   1.094414   1.771557
    28  H    5.146431   4.968781   4.585402   3.798088   4.322657
    29  H    6.181261   5.397708   5.210130   4.969991   5.054563
                   26         27         28         29
    26  H    0.000000
    27  H    1.786661   0.000000
    28  H    4.669957   3.520388   0.000000
    29  H    5.996185   4.853119   2.142675   0.000000
 Stoichiometry    C6H20P2Pt
 Framework group  C1[X(C6H20P2Pt)]
 Deg. of freedom    81
 Full point group                 C1      NOp   1
 Largest Abelian subgroup         C1      NOp   1
 Largest concise Abelian subgroup C1      NOp   1
                         Standard orientation:                         
 ---------------------------------------------------------------------
 Center     Atomic      Atomic             Coordinates (Angstroms)
 Number     Number       Type             X           Y           Z
 ---------------------------------------------------------------------
      1         78           0       -0.000993   -0.870247   -0.007971
      2         15           0        1.845437    0.558753   -0.005296
      3         15           0       -1.853074    0.551588   -0.006902
      4          6           0        2.994859    0.270020   -1.414019
      5          1           0        2.475525    0.476682   -2.355533
      6          1           0        3.885597    0.905515   -1.346540
      7          1           0        3.296081   -0.781596   -1.417895
      8          6           0        1.676547    2.396324   -0.033084
      9          1           0        1.072874    2.724373    0.819370
     10          1           0        2.656429    2.884882    0.021064
     11          1           0        1.178429    2.708354   -0.955664
     12          6           0        2.929855    0.309767    1.461712
     13          1           0        3.221637   -0.743106    1.515072
     14          1           0        3.827960    0.936457    1.411884
     15          1           0        2.371776    0.552520    2.371977
     16          6           0       -3.361340   -0.190037   -0.756361
     17          1           0       -3.609143   -1.111735   -0.222051
     18          1           0       -4.214598    0.497253   -0.718534
     19          1           0       -3.153123   -0.451085   -1.799029
     20          6           0       -1.792326    2.187824   -0.858814
     21          1           0       -2.779434    2.664486   -0.866309
     22          1           0       -1.086775    2.851252   -0.352382
     23          1           0       -1.457805    2.048974   -1.892127
     24          6           0       -2.432440    1.015367    1.679422
     25          1           0       -1.646717    1.576933    2.195398
     26          1           0       -3.343976    1.623258    1.641819
     27          1           0       -2.629194    0.103870    2.252313
     28          1           0       -1.053437   -2.104286    0.008617
     29          1           0        1.088999   -2.074447    0.020107
 ---------------------------------------------------------------------
 Rotational constants (GHZ):           1.0016988           0.5099826           0.4166472
 Leave Link  202 at Thu Oct 31 04:51:33 2019, MaxMem=   140000000 cpu:               0.3 elap:               0.0
 (Enter /usr/g16/l301.exe)
 General basis read from cards:  (5D, 7F)
 Centers:       1
 SDD
 ****
 Centers:       2      3      4      8     12     16     20     24      5      6
 Centers:       7      9     10     11     13     14     15     17     18     19
 Centers:      21     22     23     25     26     27     28     29
 6-31g*
 ****
 ======================================================================================================
                                       Pseudopotential Parameters
 ======================================================================================================
  Center     Atomic      Valence      Angular      Power
  Number     Number     Electrons     Momentum     of R      Exponent        Coefficient   SO-Coeffient
 ======================================================================================================
    1         78           18
                                      H and up 
                                                     2        1.0000000        0.00000000    0.00000000
                                      S - H
                                                     2       13.4286510      579.22386100    0.00000000
                                                     2        6.7143260       29.66949100    0.00000000
                                      P - H
                                                     2       10.3659440      280.86077400    0.00000000
                                                     2        5.1829720       26.74538200    0.00000000
                                      D - H
                                                     2        7.6004790      120.39644400    0.00000000
                                                     2        3.8002400       15.81092100    0.00000000
                                      F - H
                                                     2        3.3095690       24.31437600    0.00000000
                                      G - H
                                                     2        5.2772890      -24.21867500    0.00000000
    2         15
                                   No pseudopotential on this center.
    3         15
                                   No pseudopotential on this center.
    4          6
                                   No pseudopotential on this center.
    5          1
                                   No pseudopotential on this center.
    6          1
                                   No pseudopotential on this center.
    7          1
                                   No pseudopotential on this center.
    8          6
                                   No pseudopotential on this center.
    9          1
                                   No pseudopotential on this center.
   10          1
                                   No pseudopotential on this center.
   11          1
                                   No pseudopotential on this center.
   12          6
                                   No pseudopotential on this center.
   13          1
                                   No pseudopotential on this center.
   14          1
                                   No pseudopotential on this center.
   15          1
                                   No pseudopotential on this center.
   16          6
                                   No pseudopotential on this center.
   17          1
                                   No pseudopotential on this center.
   18          1
                                   No pseudopotential on this center.
   19          1
                                   No pseudopotential on this center.
   20          6
                                   No pseudopotential on this center.
   21          1
                                   No pseudopotential on this center.
   22          1
                                   No pseudopotential on this center.
   23          1
                                   No pseudopotential on this center.
   24          6
                                   No pseudopotential on this center.
   25          1
                                   No pseudopotential on this center.
   26          1
                                   No pseudopotential on this center.
   27          1
                                   No pseudopotential on this center.
   28          1
                                   No pseudopotential on this center.
   29          1
                                   No pseudopotential on this center.
 ======================================================================================================
 Ernie: Thresh=  0.10000D-02 Tol=  0.10000D-05 Strict=F.
 There are   207 symmetry adapted cartesian basis functions of A   symmetry.
 There are   196 symmetry adapted basis functions of A   symmetry.
   196 basis functions,   417 primitive gaussians,   207 cartesian basis functions
    52 alpha electrons       52 beta electrons
       nuclear repulsion energy       845.5023405635 Hartrees.
 IExCor=  402 DFT=T Ex+Corr=B3LYP ExCW=0 ScaHFX=  0.200000
 ScaDFX=  0.800000  0.720000  1.000000  0.810000 ScalE2=  1.000000  1.000000
 IRadAn=      5 IRanWt=     -1 IRanGd=            0 ICorTp=0 IEmpDi=141
 NAtoms=   29 NActive=   29 NUniq=   29 SFac= 1.00D+00 NAtFMM=   60 NAOKFM=F Big=F
 Integral buffers will be    131072 words long.
 Raffenetti 2 integral format.
 Two-electron integral symmetry is turned on.
 R6Disp:  Grimme-D3(BJ) Dispersion energy=       -0.0634742681 Hartrees.
 Nuclear repulsion after empirical dispersion term =      845.4388662954 Hartrees.
 Force inversion solution in PCM.
 ------------------------------------------------------------------------------
 Polarizable Continuum Model (PCM)
 =================================
 Model                : PCM.
 Atomic radii         : SMD-Coulomb.
 Polarization charges : Total charges.
 Charge compensation  : None.
 Solution method      : Matrix inversion.
 Cavity type          : VdW (van der Waals Surface) (Alpha=1.000).
 Cavity algorithm     : GePol (No added spheres)
                        Default sphere list used, NSphG=   29.
                        Lebedev-Laikov grids with approx.  5.0 points / Ang**2.
                        Smoothing algorithm: York/Karplus (Gamma=1.0000).
                        Polarization charges: spherical gaussians, with
                                              point-specific exponents (IZeta= 3).
                        Self-potential: point-specific (ISelfS= 7).
                        Self-field    : sphere-specific E.n sum rule (ISelfD= 2).
 1st derivatives      : Analytical E(r).r(x)/FMM algorithm (CHGder, D1EAlg=3).
                        Cavity 1st derivative terms included.
 2nd derivatives      : Analytical E(r).r(xy)/FMM algorithm (CHGder, D2EAlg=3).
                        Cavity 2nd derivative terms included.
 Solvent              : Benzene, Eps=   2.270600 Eps(inf)=   2.253301
 ------------------------------------------------------------------------------
 GePol: Number of generator spheres                  =      29
 GePol: Total number of spheres                      =      29
 GePol: Number of exposed spheres                    =      29 (100.00%)
 GePol: Number of points                             =    2156
 GePol: Average weight of points                     =       0.12
 GePol: Minimum weight of points                     =   0.22D-11
 GePol: Maximum weight of points                     =    0.22001
 GePol: Number of points with low weight             =     135
 GePol: Fraction of low-weight points (<1% of avg)   =       6.26%
 GePol: Cavity surface area                          =    250.342 Ang**2
 GePol: Cavity volume                                =    209.138 Ang**3
 ------------------------------------------------------------------------------
 Atomic radii for non-electrostatic terms: SMD-CDS.
 ------------------------------------------------------------------------------
 PCM non-electrostatic energy =         0.0000877385 Hartrees.
 Nuclear repulsion after PCM non-electrostatic terms =      845.4389540339 Hartrees.
 Leave Link  301 at Thu Oct 31 04:51:33 2019, MaxMem=   140000000 cpu:               3.3 elap:               0.1
 (Enter /usr/g16/l302.exe)
 NPDir=0 NMtPBC=     1 NCelOv=     1 NCel=       1 NClECP=     1 NCelD=      1
         NCelK=      1 NCelE2=     1 NClLst=     1 CellRange=     0.0.
 One-electron integrals computed using PRISM.
 One-electron integral symmetry used in STVInt
   1 Symmetry operations used in ECPInt.
 ECPInt:  NShTT=    3916 NPrTT=   20546 LenC2=    3802 LenP2D=   13588.
 LDataN:  DoStor=T MaxTD1= 7 Len=  274
 Number of processors reduced to  20 by ecpmxn.
 NBasis=   196 RedAO= T EigKep=  2.38D-03  NBF=   196
 NBsUse=   196 1.00D-06 EigRej= -1.00D+00 NBFU=   196
 Precomputing XC quadrature grid using
 IXCGrd= 4 IRadAn=           5 IRanWt=          -1 IRanGd=           0 AccXCQ= 0.00D+00.
 Defaulting to unpruned grid for atomic number  78.
 Generated NRdTot=       0 NPtTot=           0 NUsed=           0 NTot=          32
 NSgBfM=   206   206   206   206   206 MxSgAt=    29 MxSgA2=    29.
 Leave Link  302 at Thu Oct 31 04:51:34 2019, MaxMem=   140000000 cpu:              10.8 elap:               0.5
 (Enter /usr/g16/l303.exe)
 DipDrv:  MaxL=1.
 Leave Link  303 at Thu Oct 31 04:51:34 2019, MaxMem=   140000000 cpu:               1.0 elap:               0.1
 (Enter /usr/g16/l401.exe)
 ExpMin= 1.50D-02 ExpMax= 1.94D+04 ExpMxC= 2.91D+03 IAcc=3 IRadAn=         5 AccDes= 0.00D+00
 Harris functional with IExCor=  402 and IRadAn=       5 diagonalized for initial guess.
 HarFok:  IExCor=  402 AccDes= 0.00D+00 IRadAn=         5 IDoV= 1 UseB2=F ITyADJ=14
 ICtDFT=  3500011 ScaDFX=  1.000000  1.000000  1.000000  1.000000
 Defaulting to unpruned grid for atomic number  78.
 FoFCou: FMM=F IPFlag=           0 FMFlag=      100000 FMFlg1=           0
         NFxFlg=           0 DoJE=T BraDBF=F KetDBF=T FulRan=T
         wScrn=  0.000000 ICntrl=       500 IOpCl=  0 I1Cent=   200000004 NGrid=           0
         NMat0=    1 NMatS0=      1 NMatT0=    0 NMatD0=    1 NMtDS0=    0 NMtDT0=    0
 Petite list used in FoFCou.
 Harris En= -1042.71939327806    
 JPrj=0 DoOrth=F DoCkMO=F.
 Leave Link  401 at Thu Oct 31 04:51:35 2019, MaxMem=   140000000 cpu:              21.2 elap:               0.9
 (Enter /usr/g16/l502.exe)
 Integral symmetry usage will be decided dynamically.
 Closed shell SCF:
 Using DIIS extrapolation, IDIIS=  1040.
 NGot=   140000000 LenX=   139906737 LenY=   139863447
 Requested convergence on RMS density matrix=1.00D-08 within 128 cycles.
 Requested convergence on MAX density matrix=1.00D-06.
 Requested convergence on             energy=1.00D-06.
 No special actions if energy rises.
 Fock matrices will be formed incrementally for  20 cycles.

 Cycle   1  Pass 1  IDiag  1:
 FoFJK:  IHMeth= 1 ICntrl=       0 DoSepK=F KAlg= 0 I1Cent=           0 FoldK=F
 IRaf= 940000000 NMat=       1 IRICut=       1 DoRegI=T DoRafI=F ISym2E= 0 IDoP0=0 IntGTp=1.
 FoFCou: FMM=F IPFlag=           0 FMFlag=      100000 FMFlg1=           0
         NFxFlg=           0 DoJE=F BraDBF=F KetDBF=F FulRan=T
         wScrn=  0.000000 ICntrl=         0 IOpCl=  0 I1Cent=           0 NGrid=           0
         NMat0=    1 NMatS0=      1 NMatT0=    0 NMatD0=    1 NMtDS0=    0 NMtDT0=    0
 Symmetry not used in FoFCou.
 Defaulting to unpruned grid for atomic number  78.
 Defaulting to unpruned grid for atomic number  78.
 Defaulting to unpruned grid for atomic number  78.
 Defaulting to unpruned grid for atomic number  78.
 Defaulting to unpruned grid for atomic number  78.
 Defaulting to unpruned grid for atomic number  78.
 Defaulting to unpruned grid for atomic number  78.
 Defaulting to unpruned grid for atomic number  78.
 Defaulting to unpruned grid for atomic number  78.
 Defaulting to unpruned grid for atomic number  78.
 Defaulting to unpruned grid for atomic number  78.
 Defaulting to unpruned grid for atomic number  78.
 Defaulting to unpruned grid for atomic number  78.
 Defaulting to unpruned grid for atomic number  78.
 Defaulting to unpruned grid for atomic number  78.
 Defaulting to unpruned grid for atomic number  78.
 Defaulting to unpruned grid for atomic number  78.
 Defaulting to unpruned grid for atomic number  78.
 Defaulting to unpruned grid for atomic number  78.
 Defaulting to unpruned grid for atomic number  78.
 Defaulting to unpruned grid for atomic number  78.
 Defaulting to unpruned grid for atomic number  78.
 Defaulting to unpruned grid for atomic number  78.
 Defaulting to unpruned grid for atomic number  78.
 Inv3:  Mode=1 IEnd=    13945008.
 Iteration    1 A*A^-1 deviation from unit magnitude is 9.10D-15 for    251.
 Iteration    1 A*A^-1 deviation from orthogonality  is 3.84D-15 for   1215    152.
 Iteration    1 A^-1*A deviation from unit magnitude is 7.33D-15 for    152.
 Iteration    1 A^-1*A deviation from orthogonality  is 1.54D-15 for   2154   2152.
 E= -1042.16600643391    
 DIIS: error= 6.04D-02 at cycle   1 NSaved=   1.
 NSaved= 1 IEnMin= 1 EnMin= -1042.16600643391     IErMin= 1 ErrMin= 6.04D-02
 ErrMax= 6.04D-02  0.00D+00 EMaxC= 1.00D-01 BMatC= 8.46D-01 BMatP= 8.46D-01
 IDIUse=3 WtCom= 3.96D-01 WtEn= 6.04D-01
 Coeff-Com:  0.100D+01
 Coeff-En:   0.100D+01
 Coeff:      0.100D+01
 Gap=     0.411 Goal=   None    Shift=    0.000
 GapD=    0.411 DampG=2.000 DampE=0.250 DampFc=0.5000 IDamp=-1.
 Damping current iteration by 5.00D-01
 RMSDP=1.02D-02 MaxDP=4.18D-01              OVMax= 3.41D-01

 Cycle   2  Pass 1  IDiag  1:
 RMSU=  5.09D-03    CP:  9.97D-01
 E= -1042.40543169946     Delta-E=       -0.239425265549 Rises=F Damp=T
 DIIS: error= 1.93D-02 at cycle   2 NSaved=   2.
 NSaved= 2 IEnMin= 2 EnMin= -1042.40543169946     IErMin= 2 ErrMin= 1.93D-02
 ErrMax= 1.93D-02  0.00D+00 EMaxC= 1.00D-01 BMatC= 7.88D-02 BMatP= 8.46D-01
 IDIUse=3 WtCom= 8.07D-01 WtEn= 1.93D-01
 Coeff-Com:  0.199D+00 0.801D+00
 Coeff-En:   0.334D+00 0.666D+00
 Coeff:      0.225D+00 0.775D+00
 Gap=     0.341 Goal=   None    Shift=    0.000
 RMSDP=3.43D-03 MaxDP=2.54D-01 DE=-2.39D-01 OVMax= 2.66D-01

 Cycle   3  Pass 1  IDiag  1:
 RMSU=  2.67D-03    CP:  9.92D-01  5.78D-01
 E= -1042.89772232286     Delta-E=       -0.492290623393 Rises=F Damp=F
 DIIS: error= 1.26D-02 at cycle   3 NSaved=   3.
 NSaved= 3 IEnMin= 3 EnMin= -1042.89772232286     IErMin= 3 ErrMin= 1.26D-02
 ErrMax= 1.26D-02  0.00D+00 EMaxC= 1.00D-01 BMatC= 3.42D-02 BMatP= 7.88D-02
 IDIUse=3 WtCom= 8.74D-01 WtEn= 1.26D-01
 Coeff-Com:  0.818D-01 0.437D+00 0.482D+00
 Coeff-En:   0.000D+00 0.000D+00 0.100D+01
 Coeff:      0.715D-01 0.382D+00 0.547D+00
 Gap=     0.210 Goal=   None    Shift=    0.000
 RMSDP=1.33D-03 MaxDP=5.44D-02 DE=-4.92D-01 OVMax= 5.65D-02

 Cycle   4  Pass 1  IDiag  1:
 RMSU=  8.28D-04    CP:  9.96D-01  6.62D-01  6.50D-01
 E= -1042.92354765740     Delta-E=       -0.025825334540 Rises=F Damp=F
 DIIS: error= 5.70D-03 at cycle   4 NSaved=   4.
 NSaved= 4 IEnMin= 4 EnMin= -1042.92354765740     IErMin= 4 ErrMin= 5.70D-03
 ErrMax= 5.70D-03  0.00D+00 EMaxC= 1.00D-01 BMatC= 7.76D-03 BMatP= 3.42D-02
 IDIUse=3 WtCom= 9.43D-01 WtEn= 5.70D-02
 Coeff-Com:  0.126D-01 0.363D-01 0.317D+00 0.634D+00
 Coeff-En:   0.000D+00 0.000D+00 0.198D+00 0.802D+00
 Coeff:      0.119D-01 0.342D-01 0.310D+00 0.644D+00
 Gap=     0.198 Goal=   None    Shift=    0.000
 RMSDP=4.20D-04 MaxDP=2.24D-02 DE=-2.58D-02 OVMax= 2.04D-02

 Cycle   5  Pass 1  IDiag  1:
 RMSU=  2.83D-04    CP:  9.94D-01  6.43D-01  7.19D-01  7.35D-01
 E= -1042.93012662571     Delta-E=       -0.006578968314 Rises=F Damp=F
 DIIS: error= 7.46D-04 at cycle   5 NSaved=   5.
 NSaved= 5 IEnMin= 5 EnMin= -1042.93012662571     IErMin= 5 ErrMin= 7.46D-04
 ErrMax= 7.46D-04  0.00D+00 EMaxC= 1.00D-01 BMatC= 1.16D-04 BMatP= 7.76D-03
 IDIUse=3 WtCom= 9.93D-01 WtEn= 7.46D-03
 Coeff-Com:  0.884D-03-0.125D-01 0.838D-01 0.232D+00 0.696D+00
 Coeff-En:   0.000D+00 0.000D+00 0.000D+00 0.000D+00 0.100D+01
 Coeff:      0.878D-03-0.124D-01 0.831D-01 0.231D+00 0.698D+00
 Gap=     0.197 Goal=   None    Shift=    0.000
 RMSDP=9.95D-05 MaxDP=2.34D-03 DE=-6.58D-03 OVMax= 2.55D-03

 Cycle   6  Pass 1  IDiag  1:
 RMSU=  3.51D-05    CP:  9.94D-01  6.38D-01  7.34D-01  7.59D-01  7.25D-01
 E= -1042.93026622544     Delta-E=       -0.000139599727 Rises=F Damp=F
 DIIS: error= 9.46D-05 at cycle   6 NSaved=   6.
 NSaved= 6 IEnMin= 6 EnMin= -1042.93026622544     IErMin= 6 ErrMin= 9.46D-05
 ErrMax= 9.46D-05  0.00D+00 EMaxC= 1.00D-01 BMatC= 1.52D-06 BMatP= 1.16D-04
 IDIUse=1 WtCom= 1.00D+00 WtEn= 0.00D+00
 Coeff-Com:  0.291D-03-0.414D-02 0.165D-01 0.458D-01 0.169D+00 0.773D+00
 Coeff:      0.291D-03-0.414D-02 0.165D-01 0.458D-01 0.169D+00 0.773D+00
 Gap=     0.197 Goal=   None    Shift=    0.000
 RMSDP=1.36D-05 MaxDP=4.32D-04 DE=-1.40D-04 OVMax= 5.41D-04

 Cycle   7  Pass 1  IDiag  1:
 RMSU=  1.17D-05    CP:  9.94D-01  6.37D-01  7.36D-01  7.57D-01  7.34D-01
                    CP:  8.80D-01
 E= -1042.93026760007     Delta-E=       -0.000001374630 Rises=F Damp=F
 DIIS: error= 2.97D-05 at cycle   7 NSaved=   7.
 NSaved= 7 IEnMin= 7 EnMin= -1042.93026760007     IErMin= 7 ErrMin= 2.97D-05
 ErrMax= 2.97D-05  0.00D+00 EMaxC= 1.00D-01 BMatC= 3.61D-07 BMatP= 1.52D-06
 IDIUse=1 WtCom= 1.00D+00 WtEn= 0.00D+00
 Coeff-Com:  0.114D-03-0.989D-03 0.234D-02 0.605D-02 0.321D-01 0.389D+00
 Coeff-Com:  0.572D+00
 Coeff:      0.114D-03-0.989D-03 0.234D-02 0.605D-02 0.321D-01 0.389D+00
 Coeff:      0.572D+00
 Gap=     0.197 Goal=   None    Shift=    0.000
 RMSDP=4.55D-06 MaxDP=1.25D-04 DE=-1.37D-06 OVMax= 1.58D-04

 Cycle   8  Pass 1  IDiag  1:
 RMSU=  2.70D-06    CP:  9.94D-01  6.37D-01  7.36D-01  7.58D-01  7.34D-01
                    CP:  9.33D-01  7.50D-01
 E= -1042.93026802698     Delta-E=       -0.000000426909 Rises=F Damp=F
 DIIS: error= 6.39D-06 at cycle   8 NSaved=   8.
 NSaved= 8 IEnMin= 8 EnMin= -1042.93026802698     IErMin= 8 ErrMin= 6.39D-06
 ErrMax= 6.39D-06  0.00D+00 EMaxC= 1.00D-01 BMatC= 1.18D-08 BMatP= 3.61D-07
 IDIUse=1 WtCom= 1.00D+00 WtEn= 0.00D+00
 Coeff-Com:  0.275D-05 0.649D-04-0.727D-03-0.211D-02-0.452D-02 0.613D-01
 Coeff-Com:  0.192D+00 0.754D+00
 Coeff:      0.275D-05 0.649D-04-0.727D-03-0.211D-02-0.452D-02 0.613D-01
 Coeff:      0.192D+00 0.754D+00
 Gap=     0.197 Goal=   None    Shift=    0.000
 RMSDP=8.56D-07 MaxDP=2.17D-05 DE=-4.27D-07 OVMax= 3.01D-05

 Cycle   9  Pass 1  IDiag  1:
 RMSU=  5.08D-07    CP:  9.94D-01  6.37D-01  7.36D-01  7.59D-01  7.34D-01
                    CP:  9.45D-01  7.54D-01  8.36D-01
 E= -1042.93026803983     Delta-E=       -0.000000012851 Rises=F Damp=F
 DIIS: error= 1.88D-06 at cycle   9 NSaved=   9.
 NSaved= 9 IEnMin= 9 EnMin= -1042.93026803983     IErMin= 9 ErrMin= 1.88D-06
 ErrMax= 1.88D-06  0.00D+00 EMaxC= 1.00D-01 BMatC= 1.11D-09 BMatP= 1.18D-08
 IDIUse=1 WtCom= 1.00D+00 WtEn= 0.00D+00
 Coeff-Com: -0.231D-05 0.545D-04-0.424D-03-0.123D-02-0.309D-02 0.130D-01
 Coeff-Com:  0.669D-01 0.341D+00 0.584D+00
 Coeff:     -0.231D-05 0.545D-04-0.424D-03-0.123D-02-0.309D-02 0.130D-01
 Coeff:      0.669D-01 0.341D+00 0.584D+00
 Gap=     0.197 Goal=   None    Shift=    0.000
 RMSDP=2.65D-07 MaxDP=7.23D-06 DE=-1.29D-08 OVMax= 1.11D-05

 Cycle  10  Pass 1  IDiag  1:
 RMSU=  1.59D-07    CP:  9.94D-01  6.37D-01  7.36D-01  7.59D-01  7.34D-01
                    CP:  9.45D-01  7.66D-01  8.32D-01  7.27D-01
 E= -1042.93026804111     Delta-E=       -0.000000001286 Rises=F Damp=F
 DIIS: error= 4.80D-07 at cycle  10 NSaved=  10.
 NSaved=10 IEnMin=10 EnMin= -1042.93026804111     IErMin=10 ErrMin= 4.80D-07
 ErrMax= 4.80D-07  0.00D+00 EMaxC= 1.00D-01 BMatC= 6.47D-11 BMatP= 1.11D-09
 IDIUse=1 WtCom= 1.00D+00 WtEn= 0.00D+00
 Coeff-Com:  0.581D-06 0.171D-04-0.112D-03-0.350D-03-0.843D-03-0.239D-03
 Coeff-Com:  0.104D-01 0.682D-01 0.201D+00 0.722D+00
 Coeff:      0.581D-06 0.171D-04-0.112D-03-0.350D-03-0.843D-03-0.239D-03
 Coeff:      0.104D-01 0.682D-01 0.201D+00 0.722D+00
 Gap=     0.197 Goal=   None    Shift=    0.000
 RMSDP=6.98D-08 MaxDP=2.31D-06 DE=-1.29D-09 OVMax= 2.51D-06

 Cycle  11  Pass 1  IDiag  1:
 RMSU=  4.11D-08    CP:  9.94D-01  6.37D-01  7.36D-01  7.59D-01  7.34D-01
                    CP:  9.45D-01  7.67D-01  8.43D-01  7.68D-01  8.52D-01
 E= -1042.93026804121     Delta-E=       -0.000000000094 Rises=F Damp=F
 DIIS: error= 7.83D-08 at cycle  11 NSaved=  11.
 NSaved=11 IEnMin=11 EnMin= -1042.93026804121     IErMin=11 ErrMin= 7.83D-08
 ErrMax= 7.83D-08  0.00D+00 EMaxC= 1.00D-01 BMatC= 2.26D-12 BMatP= 6.47D-11
 IDIUse=1 WtCom= 1.00D+00 WtEn= 0.00D+00
 Coeff-Com:  0.319D-06 0.327D-06-0.702D-06-0.109D-04-0.580D-05-0.120D-02
 Coeff-Com: -0.226D-02-0.610D-02 0.101D-01 0.210D+00 0.789D+00
 Coeff:      0.319D-06 0.327D-06-0.702D-06-0.109D-04-0.580D-05-0.120D-02
 Coeff:     -0.226D-02-0.610D-02 0.101D-01 0.210D+00 0.789D+00
 Gap=     0.197 Goal=   None    Shift=    0.000
 RMSDP=1.44D-08 MaxDP=5.23D-07 DE=-9.41D-11 OVMax= 5.54D-07

 Cycle  12  Pass 1  IDiag  1:
 RMSU=  5.81D-09    CP:  9.94D-01  6.37D-01  7.36D-01  7.59D-01  7.34D-01
                    CP:  9.45D-01  7.67D-01  8.44D-01  7.76D-01  9.02D-01
                    CP:  8.24D-01
 E= -1042.93026804118     Delta-E=        0.000000000031 Rises=F Damp=F
 DIIS: error= 2.35D-08 at cycle  12 NSaved=  12.
 NSaved=12 IEnMin=11 EnMin= -1042.93026804121     IErMin=12 ErrMin= 2.35D-08
 ErrMax= 2.35D-08  0.00D+00 EMaxC= 1.00D-01 BMatC= 8.44D-14 BMatP= 2.26D-12
 IDIUse=1 WtCom= 1.00D+00 WtEn= 0.00D+00
 Coeff-Com: -0.255D-07-0.756D-07 0.188D-05 0.586D-05 0.114D-04-0.216D-03
 Coeff-Com: -0.606D-03-0.235D-02-0.219D-02 0.225D-01 0.153D+00 0.830D+00
 Coeff:     -0.255D-07-0.756D-07 0.188D-05 0.586D-05 0.114D-04-0.216D-03
 Coeff:     -0.606D-03-0.235D-02-0.219D-02 0.225D-01 0.153D+00 0.830D+00
 Gap=     0.197 Goal=   None    Shift=    0.000
 RMSDP=2.04D-09 MaxDP=9.13D-08 DE= 3.09D-11 OVMax= 7.82D-08

 Error on total polarization charges =  0.04763
 SCF Done:  E(RB3LYP) =  -1042.93026804     A.U. after   12 cycles
            NFock= 12  Conv=0.20D-08     -V/T= 2.0858
 KE= 9.605452623082D+02 PE=-4.118408361230D+03 EE= 1.269493876846D+03
 SMD-CDS (non-electrostatic) energy       (kcal/mol) =       0.06
 (included in total energy above)
 Leave Link  502 at Thu Oct 31 04:51:55 2019, MaxMem=   140000000 cpu:             454.6 elap:              20.2
 (Enter /usr/g16/l801.exe)
 DoSCS=F DFT=T ScalE2(SS,OS)=  1.000000  1.000000
 Range of M.O.s used for correlation:     1   196
 NBasis=   196 NAE=    52 NBE=    52 NFC=     0 NFV=     0
 NROrb=    196 NOA=    52 NOB=    52 NVA=   144 NVB=   144
 Leave Link  801 at Thu Oct 31 04:51:55 2019, MaxMem=   140000000 cpu:               1.3 elap:               0.1
 (Enter /usr/g16/l1101.exe)
 Using compressed storage, NAtomX=    29.
 Will process     30 centers per pass.
   1 Symmetry operations used in ECPInt.
 ECPInt:  NShTT=    3916 NPrTT=   20546 LenC2=    3802 LenP2D=   13588.
 LDataN:  DoStor=T MaxTD1= 8 Len=  415
 Number of processors reduced to   7 by ecpmxn.
 R6Disp: Adding Grimme-D3(BJ) dispersion energy 1st derivatives to the gradient.
 Leave Link 1101 at Thu Oct 31 04:51:56 2019, MaxMem=   140000000 cpu:              11.8 elap:               0.8
 (Enter /usr/g16/l1102.exe)
 Symmetrizing basis deriv contribution to polar:
 IMax=3 JMax=2 DiffMx= 0.00D+00
 Leave Link 1102 at Thu Oct 31 04:51:56 2019, MaxMem=   140000000 cpu:               1.7 elap:               0.1
 (Enter /usr/g16/l1110.exe)
 Forming Gx(P) for the SCF density, NAtomX=    29.
 Integral derivatives from FoFJK, PRISM(SPDF).
 Do as many integral derivatives as possible in FoFJK.
 G2DrvN: MDV=     139997776.
 G2DrvN: will do    30 centers at a time, making    1 passes.
 Calling FoFCou, ICntrl=  3107 FMM=F I1Cent=   0 AccDes= 0.00D+00.
 FoFJK:  IHMeth= 1 ICntrl=    3107 DoSepK=F KAlg= 0 I1Cent=           0 FoldK=F
 IRaf=         0 NMat=       1 IRICut=       1 DoRegI=T DoRafI=F ISym2E= 0 IDoP0=0 IntGTp=1.
 FoFCou: FMM=F IPFlag=           0 FMFlag=      100000 FMFlg1=           0
         NFxFlg=           0 DoJE=F BraDBF=F KetDBF=F FulRan=T
         wScrn=  0.000000 ICntrl=      3107 IOpCl=  0 I1Cent=           0 NGrid=           0
         NMat0=    1 NMatS0=      1 NMatT0=    0 NMatD0=    1 NMtDS0=    0 NMtDT0=    0
 Symmetry not used in FoFCou.
 Defaulting to unpruned grid for atomic number  78.
 Defaulting to unpruned grid for atomic number  78.
 Defaulting to unpruned grid for atomic number  78.
 Defaulting to unpruned grid for atomic number  78.
 Defaulting to unpruned grid for atomic number  78.
 Defaulting to unpruned grid for atomic number  78.
 Defaulting to unpruned grid for atomic number  78.
 Defaulting to unpruned grid for atomic number  78.
 Defaulting to unpruned grid for atomic number  78.
 Defaulting to unpruned grid for atomic number  78.
 Defaulting to unpruned grid for atomic number  78.
 Defaulting to unpruned grid for atomic number  78.
 Defaulting to unpruned grid for atomic number  78.
 Defaulting to unpruned grid for atomic number  78.
 Defaulting to unpruned grid for atomic number  78.
 Defaulting to unpruned grid for atomic number  78.
 Defaulting to unpruned grid for atomic number  78.
 Defaulting to unpruned grid for atomic number  78.
 Defaulting to unpruned grid for atomic number  78.
 Defaulting to unpruned grid for atomic number  78.
 Defaulting to unpruned grid for atomic number  78.
 Defaulting to unpruned grid for atomic number  78.
 Defaulting to unpruned grid for atomic number  78.
 Defaulting to unpruned grid for atomic number  78.
 NEqPCM:  Using equilibrium solvation (IEInf=0, Eps=   2.2706, EpsInf=   2.2533)
 G2PCM: DoFxE=T DoFxN=T DoGrad=T DoDP/DQ/DG/TGxP=FFFF NFrqRd=   0 IEInf=0 SqF1=F DoCFld=F IF1Alg=4.
 GePol: Maximum number of non-zero 1st derivatives   =     255
 CoulSu:  requested number of processors reduced to:  17 ShMem   1 Linda.
 CoulSu:  requested number of processors reduced to:  20 ShMem   1 Linda.
 End of G2Drv F.D. properties file   721 does not exist.
 End of G2Drv F.D. properties file   722 does not exist.
 End of G2Drv F.D. properties file   788 does not exist.
 Leave Link 1110 at Thu Oct 31 04:52:37 2019, MaxMem=   140000000 cpu:             988.4 elap:              41.4
 (Enter /usr/g16/l1002.exe)
 Minotr:  Closed shell wavefunction.
          IDoAtm=11111111111111111111111111111
 NEqPCM:  Using equilibrium solvation (IEInf=0, Eps=   2.2706, EpsInf=   2.2533)
          Direct CPHF calculation.
          Differentiating once with respect to electric field.
                with respect to dipole field.
          Differentiating once with respect to nuclear coordinates.
          Requested convergence is 1.0D-08 RMS, and 1.0D-07 maximum.
          Secondary convergence is 1.0D-12 RMS, and 1.0D-12 maximum.
          NewPWx=T KeepS1=F KeepF1=F KeepIn=T MapXYZ=F SortEE=F KeepMc=T.
 Defaulting to unpruned grid for atomic number  78.
         8993 words used for storage of precomputed grid.
 Two-electron integrals replicated using symmetry.
          MDV=     140000000 using IRadAn=       1.
          Solving linear equations simultaneously, MaxMat=     384.
 FoF2E skips out because all densities are zero.
 CalDSu exits because no D1Ps are significant.
 FoFJK:  IHMeth= 1 ICntrl=       0 DoSepK=F KAlg= 0 I1Cent=           0 FoldK=F
 IRaf= 920000000 NMat=      48 IRICut=     120 DoRegI=T DoRafI=T ISym2E= 2 IDoP0=3 IntGTp=3.
 Defaulting to unpruned grid for atomic number  78.
 Defaulting to unpruned grid for atomic number  78.
 Defaulting to unpruned grid for atomic number  78.
 Defaulting to unpruned grid for atomic number  78.
 Defaulting to unpruned grid for atomic number  78.
 Defaulting to unpruned grid for atomic number  78.
 Defaulting to unpruned grid for atomic number  78.
 Defaulting to unpruned grid for atomic number  78.
 Defaulting to unpruned grid for atomic number  78.
 Defaulting to unpruned grid for atomic number  78.
 Defaulting to unpruned grid for atomic number  78.
 Defaulting to unpruned grid for atomic number  78.
 Defaulting to unpruned grid for atomic number  78.
 Defaulting to unpruned grid for atomic number  78.
 Defaulting to unpruned grid for atomic number  78.
 Defaulting to unpruned grid for atomic number  78.
 Defaulting to unpruned grid for atomic number  78.
 Defaulting to unpruned grid for atomic number  78.
 Defaulting to unpruned grid for atomic number  78.
 Defaulting to unpruned grid for atomic number  78.
 Defaulting to unpruned grid for atomic number  78.
 Defaulting to unpruned grid for atomic number  78.
 Defaulting to unpruned grid for atomic number  78.
 Defaulting to unpruned grid for atomic number  78.
          There are    90 degrees of freedom in the 1st order CPHF.  IDoFFX=6 NUNeed=     3.
     87 vectors produced by pass  0 Test12= 8.32D-15 1.11D-09 XBig12= 1.60D+02 6.34D+00.
 AX will form    48 AO Fock derivatives at one time.
     87 vectors produced by pass  1 Test12= 8.32D-15 1.11D-09 XBig12= 9.94D+00 7.17D-01.
     87 vectors produced by pass  2 Test12= 8.32D-15 1.11D-09 XBig12= 1.86D-01 8.81D-02.
     87 vectors produced by pass  3 Test12= 8.32D-15 1.11D-09 XBig12= 3.96D-04 2.51D-03.
     87 vectors produced by pass  4 Test12= 8.32D-15 1.11D-09 XBig12= 6.14D-07 1.49D-04.
     45 vectors produced by pass  5 Test12= 8.32D-15 1.11D-09 XBig12= 6.39D-10 4.04D-06.
      4 vectors produced by pass  6 Test12= 8.32D-15 1.11D-09 XBig12= 4.52D-13 9.57D-08.
      3 vectors produced by pass  7 Test12= 8.32D-15 1.11D-09 XBig12= 3.69D-16 1.62D-09.
 InvSVY:  IOpt=1 It=  1 EMax= 2.84D-14
 Solved reduced A of dimension   487 with    90 vectors.
 FullF1:  Do perturbations      1 to       3.
 Isotropic polarizability for W=    0.000000      181.54 Bohr**3.
 End of Minotr F.D. properties file   721 does not exist.
 End of Minotr F.D. properties file   722 does not exist.
 End of Minotr F.D. properties file   788 does not exist.
 Leave Link 1002 at Thu Oct 31 04:53:48 2019, MaxMem=   140000000 cpu:            1682.8 elap:              70.2
 (Enter /usr/g16/l601.exe)
 Copying SCF densities to generalized density rwf, IOpCl= 0 IROHF=0.

 **********************************************************************

            Population analysis using the SCF density.

 **********************************************************************

 Orbital symmetries:
       Occupied  (A) (A) (A) (A) (A) (A) (A) (A) (A) (A) (A) (A)
                 (A) (A) (A) (A) (A) (A) (A) (A) (A) (A) (A) (A)
                 (A) (A) (A) (A) (A) (A) (A) (A) (A) (A) (A) (A)
                 (A) (A) (A) (A) (A) (A) (A) (A) (A) (A) (A) (A)
                 (A) (A) (A) (A)
       Virtual   (A) (A) (A) (A) (A) (A) (A) (A) (A) (A) (A) (A)
                 (A) (A) (A) (A) (A) (A) (A) (A) (A) (A) (A) (A)
                 (A) (A) (A) (A) (A) (A) (A) (A) (A) (A) (A) (A)
                 (A) (A) (A) (A) (A) (A) (A) (A) (A) (A) (A) (A)
                 (A) (A) (A) (A) (A) (A) (A) (A) (A) (A) (A) (A)
                 (A) (A) (A) (A) (A) (A) (A) (A) (A) (A) (A) (A)
                 (A) (A) (A) (A) (A) (A) (A) (A) (A) (A) (A) (A)
                 (A) (A) (A) (A) (A) (A) (A) (A) (A) (A) (A) (A)
                 (A) (A) (A) (A) (A) (A) (A) (A) (A) (A) (A) (A)
                 (A) (A) (A) (A) (A) (A) (A) (A) (A) (A) (A) (A)
                 (A) (A) (A) (A) (A) (A) (A) (A) (A) (A) (A) (A)
                 (A) (A) (A) (A) (A) (A) (A) (A) (A) (A) (A) (A)
 The electronic state is 1-A.
 Alpha  occ. eigenvalues --  -77.09032 -77.09015 -10.17749 -10.17629 -10.17465
 Alpha  occ. eigenvalues --  -10.17204 -10.17197 -10.17012  -6.56861  -6.56853
 Alpha  occ. eigenvalues --   -4.73052  -4.73043  -4.73034  -4.73027  -4.72715
 Alpha  occ. eigenvalues --   -4.72705  -3.89204  -2.14586  -2.14207  -2.11127
 Alpha  occ. eigenvalues --   -0.76968  -0.76642  -0.69669  -0.69237  -0.69075
 Alpha  occ. eigenvalues --   -0.68989  -0.55082  -0.54254  -0.45158  -0.43890
 Alpha  occ. eigenvalues --   -0.43131  -0.42892  -0.42763  -0.42579  -0.40796
 Alpha  occ. eigenvalues --   -0.40272  -0.40208  -0.39794  -0.38763  -0.38671
 Alpha  occ. eigenvalues --   -0.36694  -0.36193  -0.34241  -0.33740  -0.33706
 Alpha  occ. eigenvalues --   -0.33129  -0.27204  -0.24417  -0.23777  -0.23494
 Alpha  occ. eigenvalues --   -0.23214  -0.20677
 Alpha virt. eigenvalues --   -0.00955   0.00240   0.02250   0.04703   0.05758
 Alpha virt. eigenvalues --    0.07644   0.08159   0.08650   0.09032   0.09859
 Alpha virt. eigenvalues --    0.09988   0.11197   0.11946   0.12296   0.12862
 Alpha virt. eigenvalues --    0.13024   0.14394   0.15404   0.15635   0.16341
 Alpha virt. eigenvalues --    0.16708   0.17754   0.18069   0.18600   0.18944
 Alpha virt. eigenvalues --    0.19150   0.19803   0.21304   0.21530   0.21667
 Alpha virt. eigenvalues --    0.22600   0.22911   0.24045   0.26186   0.26939
 Alpha virt. eigenvalues --    0.28997   0.31509   0.32589   0.36669   0.38949
 Alpha virt. eigenvalues --    0.41778   0.41873   0.43290   0.43936   0.44392
 Alpha virt. eigenvalues --    0.46701   0.48561   0.49536   0.55654   0.58887
 Alpha virt. eigenvalues --    0.59520   0.62160   0.62797   0.64250   0.64918
 Alpha virt. eigenvalues --    0.65620   0.66477   0.67528   0.68082   0.68549
 Alpha virt. eigenvalues --    0.70832   0.72056   0.72943   0.75646   0.76111
 Alpha virt. eigenvalues --    0.78322   0.80780   0.81130   0.81925   0.82581
 Alpha virt. eigenvalues --    0.82765   0.83767   0.84815   0.84955   0.87081
 Alpha virt. eigenvalues --    0.88542   0.89790   0.90382   0.91236   0.91935
 Alpha virt. eigenvalues --    0.92342   0.93250   0.93376   0.94570   0.95064
 Alpha virt. eigenvalues --    0.95571   0.96189   0.96678   0.97053   0.98730
 Alpha virt. eigenvalues --    1.00285   1.01395   1.03636   1.05230   1.06188
 Alpha virt. eigenvalues --    1.09142   1.10018   1.10930   1.17106   1.32461
 Alpha virt. eigenvalues --    1.34270   1.36576   1.37423   1.38636   1.39019
 Alpha virt. eigenvalues --    1.42511   1.45899   1.50330   1.59934   1.65254
 Alpha virt. eigenvalues --    1.65491   1.70235   1.70365   1.70885   1.71479
 Alpha virt. eigenvalues --    1.79373   1.80194   1.82092   1.83335   1.91105
 Alpha virt. eigenvalues --    1.92934   2.10912   2.11310   2.22324   2.22754
 Alpha virt. eigenvalues --    2.23088   2.23454   2.23979   2.25219   2.25754
 Alpha virt. eigenvalues --    2.25966   2.26697   2.26854   2.27127   2.27381
 Alpha virt. eigenvalues --    2.28128   2.28828   2.29589   2.32816   2.59435
 Alpha virt. eigenvalues --   45.82055  45.89615  45.92859 114.24346
          Condensed to atoms (all electrons):
               1          2          3          4          5          6
     1  Pt  17.820733   0.203177   0.197206  -0.011360   0.002896   0.005973
     2  P    0.203177  13.391781   0.006378   0.326358  -0.026949  -0.019046
     3  P    0.197206   0.006378  13.389787   0.000276  -0.000000  -0.000010
     4  C   -0.011360   0.326358   0.000276   5.332839   0.366660   0.348241
     5  H    0.002896  -0.026949  -0.000000   0.366660   0.500408  -0.027179
     6  H    0.005973  -0.019046  -0.000010   0.348241  -0.027179   0.546720
     7  H    0.004891  -0.025124   0.000003   0.367931  -0.021820  -0.025589
     8  C   -0.007292   0.315845  -0.004193  -0.038058  -0.001293  -0.004142
     9  H    0.001224  -0.026514  -0.000436   0.002259   0.000002  -0.000035
    10  H    0.005119  -0.016608   0.000180  -0.004076  -0.000261   0.002945
    11  H    0.002805  -0.026688  -0.001689  -0.001583   0.000986  -0.000313
    12  C   -0.011606   0.326202   0.000096  -0.034263   0.002125  -0.003882
    13  H    0.004651  -0.024948   0.000014  -0.001549   0.000006  -0.000255
    14  H    0.006373  -0.019087  -0.000010  -0.003931  -0.000045   0.002702
    15  H    0.002918  -0.026822  -0.000043   0.002121  -0.000042  -0.000046
    16  C   -0.013233   0.000429   0.333597  -0.000000  -0.000000   0.000000
    17  H    0.005244  -0.000002  -0.025324  -0.000000   0.000000   0.000000
    18  H    0.005977  -0.000020  -0.018360   0.000000   0.000000  -0.000000
    19  H    0.003546   0.000037  -0.027293  -0.000000   0.000000   0.000000
    20  C   -0.005408  -0.004407   0.315699  -0.000013  -0.000001  -0.000000
    21  H    0.005078   0.000183  -0.017544  -0.000000  -0.000000   0.000000
    22  H    0.000393  -0.001389  -0.024354   0.000010  -0.000003  -0.000000
    23  H    0.004200  -0.000598  -0.028797   0.000001  -0.000014  -0.000000
    24  C   -0.007814  -0.000544   0.323329   0.000000  -0.000000  -0.000000
    25  H    0.002435  -0.000095  -0.026222  -0.000000   0.000000  -0.000000
    26  H    0.006043   0.000022  -0.019134   0.000000  -0.000000   0.000000
    27  H    0.004221   0.000005  -0.025974  -0.000000   0.000000   0.000000
    28  H    0.338511  -0.019392   0.006034   0.000103   0.000005  -0.000001
    29  H    0.333978   0.011412  -0.019236  -0.002928  -0.000018   0.000082
               7          8          9         10         11         12
     1  Pt   0.004891  -0.007292   0.001224   0.005119   0.002805  -0.011606
     2  P   -0.025124   0.315845  -0.026514  -0.016608  -0.026688   0.326202
     3  P    0.000003  -0.004193  -0.000436   0.000180  -0.001689   0.000096
     4  C    0.367931  -0.038058   0.002259  -0.004076  -0.001583  -0.034263
     5  H   -0.021820  -0.001293   0.000002  -0.000261   0.000986   0.002125
     6  H   -0.025589  -0.004142  -0.000035   0.002945  -0.000313  -0.003882
     7  H    0.480116   0.002146  -0.000042  -0.000033   0.000010  -0.001578
     8  C    0.002146   5.349783   0.366397   0.350809   0.367346  -0.038493
     9  H   -0.000042   0.366397   0.517024  -0.027257  -0.024916  -0.001356
    10  H   -0.000033   0.350809  -0.027257   0.537053  -0.026300  -0.004401
    11  H    0.000010   0.367346  -0.024916  -0.026300   0.511489   0.002212
    12  C   -0.001578  -0.038493  -0.001356  -0.004401   0.002212   5.334008
    13  H    0.000701   0.002157   0.000003  -0.000020  -0.000044   0.367863
    14  H   -0.000263  -0.004165  -0.000286   0.003158  -0.000033   0.348140
    15  H    0.000009  -0.001121   0.000936  -0.000303  -0.000004   0.366389
    16  C    0.000000  -0.000003   0.000000   0.000000   0.000001  -0.000000
    17  H    0.000000   0.000000   0.000000  -0.000000  -0.000000   0.000000
    18  H    0.000000   0.000000  -0.000000  -0.000000  -0.000000   0.000000
    19  H    0.000000   0.000000   0.000000   0.000000  -0.000000  -0.000000
    20  C    0.000000  -0.001545  -0.000985   0.000069  -0.000177   0.000003
    21  H   -0.000000   0.000041  -0.000016  -0.000000  -0.000001   0.000000
    22  H   -0.000000   0.000916   0.001910  -0.000006   0.001183   0.000004
    23  H    0.000000  -0.000201  -0.000029  -0.000008   0.000485  -0.000000
    24  C    0.000000  -0.000054   0.000058  -0.000001   0.000013   0.000001
    25  H    0.000000   0.000006   0.000209  -0.000003  -0.000016  -0.000009
    26  H   -0.000000  -0.000002  -0.000009   0.000000  -0.000001   0.000000
    27  H    0.000000   0.000003  -0.000003  -0.000000  -0.000000  -0.000000
    28  H    0.000005   0.000037   0.000002  -0.000001   0.000001   0.000110
    29  H    0.000246   0.000302   0.000003  -0.000003   0.000003  -0.003051
              13         14         15         16         17         18
     1  Pt   0.004651   0.006373   0.002918  -0.013233   0.005244   0.005977
     2  P   -0.024948  -0.019087  -0.026822   0.000429  -0.000002  -0.000020
     3  P    0.000014  -0.000010  -0.000043   0.333597  -0.025324  -0.018360
     4  C   -0.001549  -0.003931   0.002121  -0.000000  -0.000000   0.000000
     5  H    0.000006  -0.000045  -0.000042  -0.000000   0.000000   0.000000
     6  H   -0.000255   0.002702  -0.000046   0.000000   0.000000  -0.000000
     7  H    0.000701  -0.000263   0.000009   0.000000   0.000000   0.000000
     8  C    0.002157  -0.004165  -0.001121  -0.000003   0.000000   0.000000
     9  H    0.000003  -0.000286   0.000936   0.000000   0.000000  -0.000000
    10  H   -0.000020   0.003158  -0.000303   0.000000  -0.000000  -0.000000
    11  H   -0.000044  -0.000033  -0.000004   0.000001  -0.000000  -0.000000
    12  C    0.367863   0.348140   0.366389  -0.000000   0.000000   0.000000
    13  H    0.479797  -0.025640  -0.021607  -0.000000   0.000000   0.000000
    14  H   -0.025640   0.546400  -0.027347   0.000000  -0.000000  -0.000000
    15  H   -0.021607  -0.027347   0.501016  -0.000000   0.000000   0.000000
    16  C   -0.000000   0.000000  -0.000000   5.330513   0.367595   0.345310
    17  H    0.000000  -0.000000   0.000000   0.367595   0.483931  -0.025547
    18  H    0.000000  -0.000000   0.000000   0.345310  -0.025547   0.552215
    19  H    0.000000   0.000000   0.000000   0.368225  -0.022215  -0.026948
    20  C    0.000000  -0.000000   0.000001  -0.039253   0.002194  -0.004286
    21  H   -0.000000   0.000000  -0.000000  -0.004811  -0.000004   0.003397
    22  H   -0.000000  -0.000000  -0.000003   0.002258  -0.000048  -0.000020
    23  H    0.000000  -0.000000   0.000000  -0.000864  -0.000008  -0.000292
    24  C   -0.000000   0.000000  -0.000002  -0.035728  -0.001635  -0.003839
    25  H    0.000000  -0.000000  -0.000026   0.002166   0.000018  -0.000052
    26  H   -0.000000  -0.000000  -0.000000  -0.003825  -0.000264   0.002651
    27  H    0.000000   0.000000   0.000000  -0.001280   0.000797  -0.000267
    28  H    0.000006  -0.000001   0.000006  -0.004978   0.000011   0.000209
    29  H    0.000230   0.000085  -0.000016   0.000091   0.000003  -0.000001
              19         20         21         22         23         24
     1  Pt   0.003546  -0.005408   0.005078   0.000393   0.004200  -0.007814
     2  P    0.000037  -0.004407   0.000183  -0.001389  -0.000598  -0.000544
     3  P   -0.027293   0.315699  -0.017544  -0.024354  -0.028797   0.323329
     4  C   -0.000000  -0.000013  -0.000000   0.000010   0.000001   0.000000
     5  H    0.000000  -0.000001  -0.000000  -0.000003  -0.000014  -0.000000
     6  H    0.000000  -0.000000   0.000000  -0.000000  -0.000000  -0.000000
     7  H    0.000000   0.000000  -0.000000  -0.000000   0.000000   0.000000
     8  C    0.000000  -0.001545   0.000041   0.000916  -0.000201  -0.000054
     9  H    0.000000  -0.000985  -0.000016   0.001910  -0.000029   0.000058
    10  H    0.000000   0.000069  -0.000000  -0.000006  -0.000008  -0.000001
    11  H   -0.000000  -0.000177  -0.000001   0.001183   0.000485   0.000013
    12  C   -0.000000   0.000003   0.000000   0.000004  -0.000000   0.000001
    13  H    0.000000   0.000000  -0.000000  -0.000000   0.000000  -0.000000
    14  H    0.000000  -0.000000   0.000000  -0.000000  -0.000000   0.000000
    15  H    0.000000   0.000001  -0.000000  -0.000003   0.000000  -0.000002
    16  C    0.368225  -0.039253  -0.004811   0.002258  -0.000864  -0.035728
    17  H   -0.022215   0.002194  -0.000004  -0.000048  -0.000008  -0.001635
    18  H   -0.026948  -0.004286   0.003397  -0.000020  -0.000292  -0.003839
    19  H    0.494649  -0.001176  -0.000294  -0.000001   0.000734   0.002114
    20  C   -0.001176   5.349035   0.351137   0.364008   0.368806  -0.036942
    21  H   -0.000294   0.351137   0.537812  -0.025895  -0.026946  -0.003538
    22  H   -0.000001   0.364008  -0.025895   0.519707  -0.023707  -0.001870
    23  H    0.000734   0.368806  -0.026946  -0.023707   0.502478   0.002190
    24  C    0.002114  -0.036942  -0.003538  -0.001870   0.002190   5.333595
    25  H   -0.000041  -0.001294  -0.000254   0.001190  -0.000004   0.365157
    26  H   -0.000043  -0.003851   0.002638  -0.000246  -0.000044   0.349534
    27  H   -0.000004   0.002111  -0.000050   0.000014  -0.000041   0.368379
    28  H   -0.000278   0.000284  -0.000003  -0.000001   0.000009  -0.000472
    29  H    0.000006   0.000044  -0.000001   0.000001   0.000003   0.000092
              25         26         27         28         29
     1  Pt   0.002435   0.006043   0.004221   0.338511   0.333978
     2  P   -0.000095   0.000022   0.000005  -0.019392   0.011412
     3  P   -0.026222  -0.019134  -0.025974   0.006034  -0.019236
     4  C   -0.000000   0.000000  -0.000000   0.000103  -0.002928
     5  H    0.000000  -0.000000   0.000000   0.000005  -0.000018
     6  H   -0.000000   0.000000   0.000000  -0.000001   0.000082
     7  H    0.000000  -0.000000   0.000000   0.000005   0.000246
     8  C    0.000006  -0.000002   0.000003   0.000037   0.000302
     9  H    0.000209  -0.000009  -0.000003   0.000002   0.000003
    10  H   -0.000003   0.000000  -0.000000  -0.000001  -0.000003
    11  H   -0.000016  -0.000001  -0.000000   0.000001   0.000003
    12  C   -0.000009   0.000000  -0.000000   0.000110  -0.003051
    13  H    0.000000  -0.000000   0.000000   0.000006   0.000230
    14  H   -0.000000  -0.000000   0.000000  -0.000001   0.000085
    15  H   -0.000026  -0.000000   0.000000   0.000006  -0.000016
[...]
 00004271,-0.07326596,-0.01206817,-0.07930921,-0.00763674,-0.00235782,-
 0.02849835,0.00729474,0.00127494,0.02115310,0.07477756,-0.00015137,0.0
 0058391,-0.00137164,-0.00023312,0.00016919,0.00000685,0.00698073,0.004
 26765,0.02249113,0.00002937,-0.00002752,-0.00000184,-0.00004342,0.0000
 0291,-0.00000576,0.00002619,-0.00000178,-0.00000226,-0.00000785,-0.000
 00390,0.00000087,0.00002329,-0.00002970,-0.00021081,0.00001454,0.00000
 436,0.00007075,-0.00000386,-0.00004102,0.00008551,0.00006517,-0.000049
 91,0.00004299,0.00003186,-0.00006815,0.00001193,-0.00001035,-0.0000012
 7,0.00000985,0.00002353,0.00000494,-0.00002024,0.00000399,-0.00000100,
 -0.00000170,-0.00035118,0.00094936,-0.00090692,-0.00039838,0.00004717,
 -0.00004344,0.00000713,-0.00006340,0.00002162,0.00045618,-0.00045137,-
 0.00022958,-0.00941147,-0.04635038,-0.02928017,-0.00308692,-0.00206742
 ,-0.01348121,-0.00771836,-0.00218349,-0.01902649,0.01262437,0.05076267
 ,0.00012244,-0.00033382,0.00105409,0.00011634,0.00021928,-0.00011510,-
 0.00306755,-0.00338718,-0.01006901,0.00001347,-0.00002972,-0.00001644,
 0.00006548,0.00001777,0.00004834,-0.00000292,0.00000304,0.00000909,-0.
 00001500,-0.00000886,0.00000615,0.00001982,0.00007837,-0.00029529,-0.0
 0004706,0.00002586,0.00014357,-0.00001541,-0.00001768,0.00011123,0.000
 06789,-0.00020446,0.00012372,-0.00003058,-0.00003988,-0.00001513,-0.00
 001299,-0.00000901,0.00002268,-0.00000632,-0.00000400,0.00000601,-0.00
 000469,0.00000019,0.00001076,0.00000298,0.00000502,0.00033551,0.000038
 95,0.00011833,0.00011127,0.00004883,0.00001825,-0.00003169,-0.00022812
 ,0.00014880,0.00023536,-0.07932728,-0.03651119,-0.29137807,0.00080185,
 0.00017225,0.00256232,-0.00473534,-0.00081719,-0.01261182,0.08617109,0
 .03772572,0.31078970,-0.00135375,-0.00080901,-0.01107402,0.00200867,-0
 .00168495,0.00005227,-0.06220890,-0.00996395,-0.04481998,-0.00014797,0
 .00019134,-0.00001890,0.00001641,-0.00000324,0.00003639,-0.00009529,0.
 00002118,-0.00004757,0.00007212,0.00002090,0.00005863,-0.00045947,0.00
 013744,-0.00007840,0.00003130,0.00004572,0.00006399,0.00001695,0.00022
 500,0.00006641,0.00002158,-0.00007547,0.00001617,-0.00035864,0.0003354
 9,-0.00008162,0.00013426,0.00004828,-0.00006142,-0.00012876,0.00005462
 ,0.00013688,0.00001159,-0.00003019,0.00003147,0.00624913,0.00524647,0.
 02089772,0.00095520,-0.00066592,-0.00082805,0.00135522,-0.00027709,-0.
 00001837,-0.00525235,0.00259080,0.00259326,-0.00004681,-0.00152241,-0.
 00246549,0.00043019,0.00035286,0.00080475,-0.00005137,-0.00040903,0.00
 011560,0.00031373,0.00045153,0.00007571,0.53701286,-0.00288727,0.00103
 929,-0.00752204,0.00098478,-0.00147008,0.00024629,-0.00899936,-0.05809
 776,-0.03397975,-0.00015036,0.00022209,0.00000818,-0.00000614,-0.00002
 863,-0.00001001,-0.00008892,0.00000222,-0.00005704,0.00006569,0.000015
 07,0.00003642,-0.00024904,0.00012539,0.00001999,-0.00006842,-0.0000224
 2,0.00009920,0.00004774,0.00017197,-0.00001170,-0.00008924,0.00003046,
 -0.00012443,-0.00023870,0.00030996,-0.00002085,0.00008558,0.00003348,-
 0.00007707,-0.00010525,0.00003219,0.00009543,0.00003947,-0.00001637,-0
 .00002478,-0.00403140,-0.00187470,-0.01198391,-0.00095860,0.00040518,0
 .00049375,-0.00017848,0.00060261,0.00095779,0.00282592,-0.00107460,-0.
 00097209,0.00724785,0.00594999,0.02313539,0.00011579,0.00121229,-0.000
 40999,-0.00022140,0.00154959,-0.00095817,0.00001192,-0.00622290,0.0033
 2906,-0.01129541,0.54462942,-0.00011122,-0.00080385,0.00180407,-0.0002
 5339,0.00075231,0.00003533,-0.02478943,-0.02025844,-0.12905984,0.00003
 871,-0.00011057,0.00000828,0.00000187,0.00001296,0.00000159,0.00002980
 ,0.00000186,0.00001659,-0.00003003,-0.00001929,-0.00002891,0.00010285,
 -0.00003449,0.00007292,0.00006920,-0.00006690,-0.00008812,-0.00004008,
 -0.00008328,-0.00002024,0.00002792,-0.00002803,0.00004291,0.00005863,-
 0.00012109,0.00000362,-0.00004486,-0.00002639,0.00003272,0.00002885,-0
 .00001963,-0.00002880,0.00000868,0.00001431,-0.00001739,-0.00344872,-0
 .00359832,-0.01011285,-0.00049020,0.00013625,0.00059801,-0.00104299,0.
 00076712,0.00059289,0.00173942,-0.00098237,-0.00037611,-0.00488220,-0.
 00282079,-0.01163393,0.00027711,-0.00126852,0.00078999,-0.00005537,-0.
 00070020,0.00076265,-0.00012957,0.00231657,-0.00074816,-0.04553543,-0.
 03612818,0.41522490,-0.00007267,-0.00014954,0.00012553,-0.00007222,0.0
 0004779,-0.00001210,0.00638344,-0.00547195,-0.00416315,0.00002371,-0.0
 0000817,-0.00000555,0.00000010,0.00000104,0.00000045,0.00000963,-0.000
 00100,0.00000768,-0.00000073,-0.00000030,0.00000153,0.00000501,-0.0000
 5151,-0.00000730,-0.00030802,0.00017562,-0.00016208,0.00001825,0.00000
 091,0.00003266,0.00001626,0.00000243,0.00002601,0.00001229,0.00000638,
 -0.00001321,0.00000396,0.00000260,0.00000710,0.00001230,-0.00000330,0.
 00000916,0.00001191,0.00000026,0.00002813,-0.00059511,-0.00025901,-0.0
 0222089,-0.00018148,-0.00000180,0.00004806,0.00021256,0.00006482,-0.00
 024375,0.00087409,-0.00022033,-0.00041395,0.00003253,-0.00003835,0.000
 69261,-0.00002334,0.00004257,-0.00002621,0.00010979,0.00006036,-0.0001
 0529,0.00000578,-0.00025407,0.00009914,-0.18694497,0.09944220,0.091639
 14,0.20196785,-0.00032471,0.00020760,0.00032064,-0.00003847,0.00005325
 ,-0.00008687,0.00461843,-0.00388997,-0.00055412,0.00000842,-0.00003620
 ,0.00000859,0.00000610,0.00000472,0.00000808,0.00001291,0.00000448,0.0
 0000581,-0.00000245,-0.00000047,-0.00000162,-0.00004078,-0.00003756,0.
 00001574,0.00010820,0.00010360,0.00005554,-0.00000102,-0.00000084,-0.0
 0000683,0.00001181,-0.00000317,0.00002450,-0.00004458,-0.00001070,-0.0
 0004025,0.00000218,0.00000084,0.00000648,0.00001310,-0.00000031,0.0000
 3014,-0.00005751,0.00002976,0.00005932,-0.00096612,-0.00005236,-0.0013
 4669,-0.00024380,0.00023371,0.00022636,0.00010655,0.00003801,-0.000046
 10,0.00057555,0.00013376,-0.00015208,-0.00036604,0.00009688,0.00009089
 ,-0.00001732,-0.00001399,0.00002415,0.00008738,0.00012395,0.00025903,-
 0.00004701,0.00002348,-0.00006820,0.10138659,-0.11908978,-0.06543404,-
 0.11039649,0.12414377,-0.00053782,0.00092094,0.00104404,-0.00023812,-0
 .00033773,0.00000661,0.01841006,-0.01188194,-0.00997274,0.00002816,0.0
 0006514,-0.00001823,-0.00000055,-0.00000950,-0.00000320,0.00000168,0.0
 0000029,0.00000212,0.00001792,0.00001099,0.00002122,-0.00000223,-0.000
 03979,-0.00014466,-0.00029714,0.00024800,0.00002468,0.00004870,0.00002
 956,0.00005616,0.00001152,0.00001288,0.00000750,-0.00000412,0.00006514
 ,-0.00000924,0.00001967,0.00000925,-0.00000947,0.00000011,-0.00000274,
 0.00000760,-0.00006232,-0.00000354,0.00004678,-0.00299828,-0.00119536,
 -0.00607906,-0.00024683,0.00002017,0.00028667,-0.00036534,0.00032210,0
 .00026946,0.00189955,-0.00093740,-0.00058688,0.00023959,0.00026918,0.0
 0141909,-0.00002816,-0.00007855,-0.00003148,-0.00027922,0.00075436,-0.
 00056462,-0.00030378,-0.00016872,0.00030976,0.09834502,-0.06820082,-0.
 10473815,-0.09985370,0.07093912,0.10991718,0.00005795,-0.00030699,-0.0
 0160952,0.00053470,-0.00034124,0.00004160,-0.00641324,-0.00355914,-0.0
 0000449,-0.00006504,0.00006683,0.00000638,0.00000217,-0.00000405,0.000
 00222,-0.00003668,0.00000395,-0.00002264,0.00001766,0.00000218,0.00000
 987,-0.00009170,0.00005977,0.00000893,0.00000747,-0.00004714,0.0000223
 6,-0.00000291,0.00005702,-0.00000335,-0.00001136,-0.00001102,-0.000025
 59,-0.00005862,0.00006437,-0.00000293,0.00001946,0.00000366,-0.0000169
 6,-0.00003663,0.00000941,0.00001752,0.00002504,-0.00000415,-0.00001813
 ,0.00077734,0.00075051,0.00037499,-0.00001730,0.00003054,-0.00001097,0
 .00047006,-0.00024079,-0.00017710,0.00003733,0.00015171,0.00003550,0.0
 0043265,0.00032211,0.00056079,0.00011231,0.00043806,-0.00045084,-0.000
 11167,0.00003412,-0.00006743,0.00025220,0.00006887,0.00013663,-0.23397
 703,-0.12341577,0.01221004,-0.01732055,-0.01322140,-0.00020966,0.24885
 682,-0.00078588,0.00052934,-0.00121793,0.00025538,-0.00037158,0.000044
 88,-0.00427555,-0.00402577,0.00013514,-0.00004105,0.00003871,0.0000042
 4,0.00000594,-0.00000204,0.00000764,-0.00002434,0.00000713,-0.00001571
 ,0.00001468,0.00000317,0.00000948,-0.00006983,0.00000147,-0.00001577,-
 0.00000647,0.00002714,-0.00000657,-0.00000520,0.00002907,0.00000114,0.
 00001468,-0.00000046,0.00000948,-0.00009026,0.00007726,-0.00002232,0.0
 0002176,0.00000543,-0.00001020,-0.00002964,0.00000854,0.00003629,-0.00
 000304,-0.00000527,0.00000664,0.00005281,0.00004478,0.00053999,-0.0000
 1433,-0.00008512,-0.00005750,0.00038570,-0.00002125,-0.00044304,0.0001
 6617,0.00018724,0.00014004,0.00086130,0.00033648,0.00023197,-0.0000693
 3,0.00038556,-0.00000825,0.00006275,-0.00000804,0.00000163,0.00005769,
 -0.00007772,-0.00000750,-0.12369086,-0.13092788,0.00830975,0.01482121,
 0.01096903,0.00038661,0.13504329,0.13595945,-0.00036309,0.00043724,-0.
 00363545,0.00078808,-0.00076323,-0.00000063,-0.02148130,-0.01443513,-0
 .00359113,-0.00007832,0.00008906,0.00000265,0.00000690,-0.00000427,0.0
 0001113,-0.00004258,0.00001060,-0.00002704,0.00003421,0.00001041,0.000
 02659,-0.00021162,0.00006379,-0.00001913,-0.00000188,0.00002451,0.0000
 2508,0.00000734,0.00010419,0.00001263,0.00000060,-0.00002242,-0.000011
 06,-0.00016355,0.00014421,-0.00003896,0.00005382,0.00002252,-0.0000342
 9,-0.00005124,0.00002367,0.00006975,-0.00001494,0.00000045,0.00002223,
 -0.00011579,0.00071536,0.00196694,0.00008696,-0.00000030,-0.00005330,0
 .00080333,-0.00001780,-0.00033985,-0.00021121,0.00048493,0.00031737,0.
 00056356,-0.00017470,0.00202682,0.00031682,0.00071491,-0.00045654,0.00
 001077,0.00012053,-0.00006361,0.00037000,-0.00037821,0.00037581,0.0041
 3563,0.00301428,-0.04250396,0.01218922,0.01002516,-0.00079209,-0.01164
 413,-0.00769519,0.04601827,0.00007844,-0.00038520,0.00027646,-0.000009
 07,0.00028502,-0.00003662,-0.00237206,0.00741367,-0.00249971,0.0000114
 4,-0.00006213,0.00000591,0.00000182,0.00000782,0.00000040,0.00001751,0
 .00000044,0.00000994,-0.00001691,-0.00000397,-0.00001358,0.00003415,-0
 .00001507,0.00004741,0.00004544,-0.00003458,-0.00003653,-0.00002031,-0
 .00003215,-0.00001445,0.00000945,-0.00000977,0.00001510,0.00002065,-0.
 00006566,0.00000060,-0.00002120,-0.00000397,0.00000514,0.00002048,-0.0
 0000146,-0.00000008,-0.00001264,0.00002718,0.00001070,-0.00004542,-0.0
 0028143,0.00032547,0.00016479,0.00005557,0.00022947,-0.00001466,-0.000
 05380,0.00001397,-0.00009406,0.00000309,-0.00004308,-0.00044753,-0.000
 90202,-0.00171703,0.00012825,0.00014880,-0.00018331,0.00006406,-0.0003
 5584,0.00020122,0.00040041,0.00063462,-0.00032430,-0.05616241,0.042404
 89,-0.02563568,-0.00425056,0.01885354,-0.01375229,0.00682329,-0.022749
 50,0.01555478,0.05568993,-0.00008642,-0.00010839,0.00011469,-0.0000063
 4,-0.00002766,-0.00001457,-0.00161462,0.00641071,-0.00410355,0.0000116
 3,0.00000990,-0.00000437,0.00000036,-0.00000135,-0.00000006,0.00000060
 ,-0.00000114,0.00000448,-0.00000193,0.00000081,0.00000202,0.00000038,-
 0.00000597,-0.00003668,-0.00002073,0.00001510,0.00001512,0.00000858,-0
 .00000107,0.00001397,0.00000528,-0.00000085,0.00000538,0.00001400,0.00
 000627,0.00000484,-0.00000038,-0.00000042,0.00000123,0.00000077,-0.000
 00301,-0.00000839,0.00000087,-0.00001083,0.00000107,-0.00004150,0.0001
 9380,0.00064438,0.00009001,-0.00002265,-0.00027058,0.00002656,-0.00003
 327,-0.00001504,-0.00021262,0.00009685,0.00011418,-0.00038581,-0.00033
 471,-0.00204915,0.00009865,0.00005660,-0.00016147,-0.00012661,-0.00005
 246,-0.00000452,-0.00000159,0.00076626,-0.00044391,0.04076949,-0.23686
 415,0.11970994,0.00207826,-0.01306910,0.00875130,0.00418022,-0.0130270
 2,0.00810324,-0.04487716,0.25594641,0.00087774,-0.00048865,0.00104096,
 -0.00002481,0.00023497,-0.00007854,-0.00376953,0.02088576,-0.01157612,
 0.00003697,-0.00005296,-0.00001774,0.00000029,0.00001038,0.00000306,0.
 00002188,0.00000221,0.00001719,-0.00001626,-0.00000051,-0.00000219,0.0
 0003612,-0.00002604,-0.00003425,-0.00000299,0.00000893,-0.00002248,-0.
 00001293,-0.00003483,0.00001821,0.00003010,-0.00001855,0.00004216,0.00
 006600,-0.00008265,0.00002009,-0.00001294,-0.00000101,0.00001051,0.000
 02548,0.00000234,-0.00003180,-0.00000960,0.00000093,0.00000169,0.00031
 111,0.00013929,0.00156100,0.00055389,-0.00056315,-0.00056070,-0.000038
 56,-0.00001621,-0.00006774,-0.00031390,-0.00016768,0.00028245,-0.00221
 043,-0.00260398,-0.00588268,0.00012277,-0.00041498,0.00027561,-0.00006
 241,-0.00026288,0.00032956,-0.00002790,0.00203218,-0.00075653,-0.02563
 867,0.12681452,-0.12014697,0.00243313,-0.01433805,0.00981128,0.0003228
 8,-0.00061944,-0.00056034,0.02749089,-0.13026381,0.12644646,-0.0679193
 8,0.05483049,-0.00039726,-0.00268794,0.01306325,-0.00012172,-0.0007088
 2,-0.00623599,0.00004105,-0.00067383,0.00030417,0.00039100,0.00003609,
 0.00002768,-0.00000397,-0.00025348,-0.00014191,-0.00026728,-0.00017103
 ,-0.00010049,-0.00015291,-0.00464161,0.00143993,0.00013493,0.00006247,
 -0.00025441,0.00006724,0.00006352,0.00175269,-0.00004307,0.00003962,-0
 .00021084,-0.00007420,-0.00070682,0.00029725,-0.00037932,-0.00016117,-
 0.00009758,0.00016271,-0.00024473,-0.00012901,0.00028863,0.00004041,0.
 00002805,-0.00000070,0.00038351,0.00088940,0.00005469,0.00007520,-0.00
 064531,0.00030790,0.00059034,-0.00061684,-0.00003332,-0.00001409,0.000
 16450,-0.00004984,-0.00039599,-0.00031610,-0.00014827,0.00010723,-0.00
 015575,0.00007686,-0.00006358,-0.00011668,-0.00002899,-0.00005417,0.00
 005997,0.00001391,0.00037225,0.00043496,-0.00014637,-0.00000647,-0.000
 03284,0.00002510,0.00001987,0.00015941,0.00018175,0.00002360,0.0000513
 1,0.00000846,0.07974698,0.05011946,-0.09508428,0.00077226,0.01102024,-
 0.00573462,0.00041394,0.00212043,-0.00549059,0.00024895,0.00162231,-0.
 00143759,-0.00057187,-0.00006622,-0.00003953,0.00008025,0.00048333,0.0
 0021176,0.00068439,-0.00004136,0.00010322,-0.00005387,0.00185715,-0.00
 044289,-0.00006644,-0.00007195,-0.00004402,-0.00008414,-0.00018427,-0.
 00074186,0.00001634,-0.00003296,-0.00003252,0.00007750,0.00145407,-0.0
 0126627,0.00048642,-0.00003680,0.00010249,0.00004689,0.00039990,0.0001
 6778,-0.00064883,-0.00005429,-0.00003760,-0.00009979,0.00114235,0.0004
 2583,-0.00004318,-0.00056010,0.00027051,-0.00009947,0.00039074,0.00025
 888,-0.00025817,-0.00004308,-0.00008177,0.00007620,-0.00039135,-0.0000
 9805,0.00006428,-0.00004262,-0.00008906,0.00004655,0.00003211,0.000172
 09,-0.00002293,0.00003159,0.00003366,-0.00006039,-0.00010070,0.0003176
 1,0.00006847,0.00004807,0.00011867,0.00014612,-0.00001714,0.00007165,0
 .00003982,-0.00000251,-0.00002508,-0.00016878,-0.06682348,0.10126903,-
 0.00024535,0.00037957,-0.02293269,-0.00014515,0.00043012,0.01362794,0.
 00013405,-0.00023501,-0.00014185,0.00271694,-0.00185864,-0.00073443,-0
 .00022163,-0.00010029,-0.00029475,0.00078820,0.00026599,0.00077367,-0.
 00001702,0.00002340,-0.00008631,-0.00002538,0.00002493,-0.00050440,-0.
 00006964,-0.00024571,-0.00004741,-0.00001269,-0.00000249,-0.00025722,0
 .00005309,0.00026257,-0.00004768,-0.00279181,0.00186212,-0.00068117,0.
 00001180,-0.00002633,-0.00009069,-0.00075548,-0.00024062,0.00083631,0.
 00020833,0.00009640,-0.00029421,0.00027845,0.00051608,0.00010391,-0.00
 000192,0.00001097,0.00002223,0.00015210,-0.00005048,0.00001705,-0.0001
 4212,0.00003829,0.00013359,-0.00020112,0.00000446,-0.00004014,0.000012
 42,-0.00008768,0.00001710,0.00000094,-0.00000171,0.00001272,0.00003009
 ,0.00001039,0.00000034,-0.00016787,0.00001306,0.00015518,0.00000395,0.
 00001311,-0.00000479,0.00002659,-0.00008175,0.00000353,0.00012050,-0.0
 0000292,0.00010839,0.00023756,-0.00089641,0.01111244,-0.06949368,-0.05
 397628,0.00145711,-0.00074269,0.00513908,-0.00004138,-0.00345863,-0.01
 304960,0.00057843,0.00065542,-0.00091315,-0.00031678,-0.00004517,0.000
 05293,-0.00007775,0.00037066,0.00021767,0.00035816,0.00013420,0.000376
 70,0.00002498,-0.00046456,0.00025021,0.00000466,-0.00005085,0.00005606
 ,0.00008735,0.00013624,0.00020483,-0.00000915,-0.00006146,0.00004472,-
 0.00007542,0.00067427,-0.00089764,0.00032342,0.00012753,0.00036523,-0.
 00004034,0.00035268,0.00019611,-0.00038564,-0.00004460,0.00006453,0.00
 007920,-0.00017332,-0.00027990,-0.00023094,-0.00018318,0.00012240,0.00
 000543,-0.00020374,0.00015646,0.00009063,-0.00004498,0.00001194,0.0000
 8887,-0.00420838,-0.00135572,-0.00042324,-0.00002912,-0.00142532,0.000
 78856,0.00004797,0.00017922,-0.00015581,0.00006048,0.00016902,0.000023
 05,-0.00181374,-0.00072302,0.00040331,0.00007669,0.00000979,0.00013250
 ,-0.00030359,-0.00006748,-0.00072412,-0.00006686,0.00003877,-0.0001967
 8,-0.00285800,-0.00225292,0.00002216,0.08161040,-0.05072811,-0.0922324
 1,0.00140912,-0.00233961,-0.00599934,0.00001516,-0.01129726,-0.0047039
 8,0.00071312,-0.00059892,0.00046250,-0.00029118,-0.00006233,0.00005366
 ,-0.00011681,-0.00014246,0.00021486,-0.00022005,0.00034071,0.00014378,
 0.00029462,0.00041324,-0.00012662,-0.00001769,-0.00000598,0.00012060,0
 .00006354,0.00002998,-0.00011408,0.00000180,-0.00002485,0.00010569,-0.
 00005906,-0.00054921,0.00042239,0.00033002,0.00031415,0.00013903,-0.00
 030888,-0.00012605,0.00021872,0.00020612,-0.00005879,0.00006707,0.0001
 2323,-0.00151212,-0.00189279,-0.00044713,0.00007655,0.00008137,-0.0000
 4623,-0.00071662,0.00044390,0.00036366,0.00008854,0.00001736,0.0000669
 5,-0.00156392,-0.00051582,-0.00035410,0.00013551,-0.00059273,0.0003154
 5,0.00003598,-0.00010654,-0.00001379,0.00003637,0.00002537,0.00008106,
 -0.00134947,-0.00095955,0.00041486,0.00006132,-0.00008107,-0.00009508,
 -0.00011780,-0.00012930,-0.00065763,0.00000161,0.00008642,-0.00000733,
 0.00237417,0.00712256,-0.00012142,0.06728534,0.09772893,0.00135555,0.0
 0150430,-0.02270943,0.00010425,-0.00002533,-0.00080442,0.00024172,0.00
 045087,0.01339959,-0.00048879,0.00050354,0.00028622,0.00007548,-0.0000
 7592,0.00004077,-0.00005098,0.00008672,-0.00015733,0.00010969,0.000159
 54,0.00002970,-0.00002449,0.00000155,0.00004751,0.00001920,-0.00003093
 ,0.00000264,-0.00000110,0.00001203,-0.00004367,-0.00002261,0.00001759,
 -0.00000941,0.00055428,-0.00052034,0.00026470,-0.00011651,-0.00018905,
 0.00004705,0.00004608,-0.00011171,-0.00016356,-0.00007225,0.00007825,0
 .00003502,-0.00133865,-0.00102401,-0.00061346,-0.00009447,0.00006090,0
 .00001321,-0.00052502,0.00029274,0.00006321,0.00024361,-0.00017798,-0.
 00014532,-0.00184718,-0.00103584,-0.00056775,0.00002550,-0.00073813,0.
 00012516,0.00004953,-0.00011410,0.00001535,-0.00003349,0.00030263,-0.0
 0021849,0.00340589,0.00221749,-0.00063821,-0.00011632,-0.00003782,-0.0
 0027555,0.00048745,0.00033625,0.00124857,-0.00005131,-0.00010682,-0.00
 023056,-0.00014457,-0.00019409,-0.00076664,-0.00179050,-0.00164232,0.0
 1172510\\0.00000187,0.00000074,-0.00000170,-0.00000018,-0.00000016,0.0
 0000097,-0.00000012,0.00000032,0.00000050,0.00000028,-0.00000044,-0.00
 000118,0.00000074,0.00000115,-0.00000074,0.00000027,-0.00000003,-0.000
 00084,0.00000088,0.00000054,-0.00000206,-0.00000081,-0.00000039,-0.000
 00020,-0.00000049,-0.00000121,0.00000121,-0.00000062,-0.00000091,0.000
 00130,0.00000086,0.00000061,0.00000172,-0.00000026,-0.00000225,-0.0000
 0088,0.00000002,-0.00000196,-0.00000199,-0.00000059,-0.00000215,-0.000
 00077,-0.00000068,-0.00000261,-0.00000100,0.00000051,0.00000213,-0.000
 00046,0.00000074,0.00000109,-0.00000047,0.00000031,0.00000189,0.000000
 82,0.00000077,0.00000235,-0.00000030,-0.00000059,0.00000118,0.00000142
 ,-0.00000033,0.00000150,0.00000219,-0.00000107,0.00000039,0.00000195,0
 .00000009,0.00000202,0.00000191,0.00000022,-0.00000045,0.00000046,-0.0
 0000146,-0.00000106,0.00000092,-0.00000107,-0.00000055,0.00000152,-0.0
 0000029,-0.00000125,0.00000034,0.00000025,-0.00000015,-0.00000133,0.00
 000074,-0.00000035,-0.00000333\\\@


 THERE IS NOTHING NOBLE IN BEING SUPERIOR TO SOME OTHER MAN.
 TRUE NOBILITY IS BEING SUPERIOR TO YOUR FORMER SELF.

                                                   -- HINDU PROVERB
 Job cpu time:       0 days  1 hours 15 minutes 28.0 seconds.
 Elapsed time:       0 days  0 hours  3 minutes 11.3 seconds.
 File lengths (MBytes):  RWF=    233 Int=      0 D2E=      0 Chk=     11 Scr=      1
 Normal termination of Gaussian 16 at Thu Oct 31 04:54:45 2019.
