Title Card Required                                                     
Freq      RM062X                                                      GenECP              
Number of atoms                            I               29
Info1-9                                    I   N=           9
          17          14        1002           0           1         100
           6          18        -502
Full Title                                 C   N=           2
Title Card Required     
Route                                      C   N=           8
#p opt=(calcfc,ts,noeigen) freq M062X/genecp geom=allcheck s
crf=(smd,solvent=benzene)           
Charge                                     I                0
Multiplicity                               I                1
Number of electrons                        I              104
Number of alpha electrons                  I               52
Number of beta electrons                   I               52
Number of basis functions                  I              196
Number of independent functions            I              196
Number of point charges in /Mol/           I                0
Number of translation vectors              I                0
Atomic numbers                             I   N=          29
          78          15          15           6           1           1
           1           6           1           1           1           6
           1           1           1           6           1           1
           1           6           1           1           1           6
           1           1           1           1           1
Nuclear charges                            R   N=          29
  1.80000000E+01  1.50000000E+01  1.50000000E+01  6.00000000E+00  1.00000000E+00
  1.00000000E+00  1.00000000E+00  6.00000000E+00  1.00000000E+00  1.00000000E+00
  1.00000000E+00  6.00000000E+00  1.00000000E+00  1.00000000E+00  1.00000000E+00
  6.00000000E+00  1.00000000E+00  1.00000000E+00  1.00000000E+00  6.00000000E+00
  1.00000000E+00  1.00000000E+00  1.00000000E+00  6.00000000E+00  1.00000000E+00
  1.00000000E+00  1.00000000E+00  1.00000000E+00  1.00000000E+00
Current cartesian coordinates              R   N=          87
  1.31120434E-03 -1.33470904E+00 -4.95892324E-03  3.73384694E+00  7.45964212E-01
  5.87565102E-03 -3.72470691E+00  7.56035685E-01 -1.51683123E-02  4.07771653E+00
  3.13556213E+00  2.51011662E+00  3.96565164E+00  2.21468472E+00  4.35826748E+00
  5.87924296E+00  4.14656885E+00  2.36314416E+00  2.52005084E+00  4.48928423E+00
  2.37548503E+00  6.80194051E+00 -8.85282915E-01  2.80128188E-01  6.99388886E+00
 -2.23274780E+00 -1.27717620E+00  8.39640318E+00  4.36620065E-01  2.38883350E-01
  6.84869459E+00 -1.95058360E+00  2.05241505E+00  4.29346236E+00  2.66506924E+00
 -2.83916818E+00  2.71498490E+00  3.97569264E+00 -3.09676741E+00  6.06160429E+00
  3.73480251E+00 -2.70363254E+00  4.37360826E+00  1.42916654E+00 -4.49499742E+00
 -4.76433454E+00  1.86614620E+00  3.11158993E+00 -3.27372029E+00  3.02513173E+00
  3.95443120E+00 -6.50678502E+00  2.97784455E+00  2.98246559E+00 -5.08591342E+00
  2.39860971E-01  4.34697051E+00 -6.65588185E+00 -7.20075464E-01 -1.18440159E+00
 -8.27535230E+00  5.66398576E-01 -1.06883102E+00 -6.38994396E+00 -1.29833884E+00
 -3.15240903E+00 -7.04978753E+00 -2.41699507E+00 -6.99426385E-02 -3.77063880E+00
  3.73027448E+00 -1.81927385E+00 -3.29335442E+00  3.34363630E+00 -3.79414289E+00
 -5.62224299E+00  4.65490314E+00 -1.73655572E+00 -2.33836465E+00  5.00869054E+00
 -1.04971700E+00 -8.22842669E-01 -4.75251820E+00 -4.85850670E-02  7.71218112E-01
 -4.76495742E+00 -7.06625192E-03
Number of symbols in /Mol/                 I                0
Force Field                                I                0
Atom Types                                 C   N=          29
                                                            
                                                            
                                                            
                                                            
                                                            
                                                
Int Atom Types                             I   N=          29
           0           0           0           0           0           0
           0           0           0           0           0           0
           0           0           0           0           0           0
           0           0           0           0           0           0
           0           0           0           0           0
MM charges                                 R   N=          29
  0.00000000E+00  0.00000000E+00  0.00000000E+00  0.00000000E+00  0.00000000E+00
  0.00000000E+00  0.00000000E+00  0.00000000E+00  0.00000000E+00  0.00000000E+00
  0.00000000E+00  0.00000000E+00  0.00000000E+00  0.00000000E+00  0.00000000E+00
  0.00000000E+00  0.00000000E+00  0.00000000E+00  0.00000000E+00  0.00000000E+00
  0.00000000E+00  0.00000000E+00  0.00000000E+00  0.00000000E+00  0.00000000E+00
  0.00000000E+00  0.00000000E+00  0.00000000E+00  0.00000000E+00
Integer atomic weights                     I   N=          29
         195          31          31          12           1           1
           1          12           1           1           1          12
           1           1           1          12           1           1
           1          12           1           1           1          12
           1           1           1           1           1
Real atomic weights                        R   N=          29
  1.94964800E+02  3.09737634E+01  3.09737634E+01  1.20000000E+01  1.00782504E+00
  1.00782504E+00  1.00782504E+00  1.20000000E+01  1.00782504E+00  1.00782504E+00
  1.00782504E+00  1.20000000E+01  1.00782504E+00  1.00782504E+00  1.00782504E+00
  1.20000000E+01  1.00782504E+00  1.00782504E+00  1.00782504E+00  1.20000000E+01
  1.00782504E+00  1.00782504E+00  1.00782504E+00  1.20000000E+01  1.00782504E+00
  1.00782504E+00  1.00782504E+00  1.00782504E+00  1.00782504E+00
Atom fragment info                         I   N=          29
           0           0           0           0           0           0
           0           0           0           0           0           0
           0           0           0           0           0           0
           0           0           0           0           0           0
           0           0           0           0           0
Atom residue num                           I   N=          29
           0           0           0           0           0           0
           0           0           0           0           0           0
           0           0           0           0           0           0
           0           0           0           0           0           0
           0           0           0           0           0
Nuclear spins                              I   N=          29
           1           1           1           0           1           1
           1           0           1           1           1           0
           1           1           1           0           1           1
           1           0           1           1           1           0
           1           1           1           1           1
Nuclear ZEff                               R   N=          29
 -1.17624000E+03 -1.29400000E+01 -1.29400000E+01 -3.60000000E+00 -1.00000000E+00
 -1.00000000E+00 -1.00000000E+00 -3.60000000E+00 -1.00000000E+00 -1.00000000E+00
 -1.00000000E+00 -3.60000000E+00 -1.00000000E+00 -1.00000000E+00 -1.00000000E+00
 -3.60000000E+00 -1.00000000E+00 -1.00000000E+00 -1.00000000E+00 -3.60000000E+00
 -1.00000000E+00 -1.00000000E+00 -1.00000000E+00 -3.60000000E+00 -1.00000000E+00
 -1.00000000E+00 -1.00000000E+00 -1.00000000E+00 -1.00000000E+00
Nuclear ZNuc                               R   N=          29
  7.80000000E+01  1.50000000E+01  1.50000000E+01  6.00000000E+00  1.00000000E+00
  1.00000000E+00  1.00000000E+00  6.00000000E+00  1.00000000E+00  1.00000000E+00
  1.00000000E+00  6.00000000E+00  1.00000000E+00  1.00000000E+00  1.00000000E+00
  6.00000000E+00  1.00000000E+00  1.00000000E+00  1.00000000E+00  6.00000000E+00
  1.00000000E+00  1.00000000E+00  1.00000000E+00  6.00000000E+00  1.00000000E+00
  1.00000000E+00  1.00000000E+00  1.00000000E+00  1.00000000E+00
Nuclear QMom                               R   N=          29
  0.00000000E+00  0.00000000E+00  0.00000000E+00  0.00000000E+00  0.00000000E+00
  0.00000000E+00  0.00000000E+00  0.00000000E+00  0.00000000E+00  0.00000000E+00
  0.00000000E+00  0.00000000E+00  0.00000000E+00  0.00000000E+00  0.00000000E+00
  0.00000000E+00  0.00000000E+00  0.00000000E+00  0.00000000E+00  0.00000000E+00
  0.00000000E+00  0.00000000E+00  0.00000000E+00  0.00000000E+00  0.00000000E+00
  0.00000000E+00  0.00000000E+00  0.00000000E+00  0.00000000E+00
Nuclear GFac                               R   N=          29
  6.09500000E-01  1.13160000E+00  1.13160000E+00  0.00000000E+00  2.79284600E+00
  2.79284600E+00  2.79284600E+00  0.00000000E+00  2.79284600E+00  2.79284600E+00
  2.79284600E+00  0.00000000E+00  2.79284600E+00  2.79284600E+00  2.79284600E+00
  0.00000000E+00  2.79284600E+00  2.79284600E+00  2.79284600E+00  0.00000000E+00
  2.79284600E+00  2.79284600E+00  2.79284600E+00  0.00000000E+00  2.79284600E+00
  2.79284600E+00  2.79284600E+00  2.79284600E+00  2.79284600E+00
MicOpt                                     I   N=          29
          -1          -1          -1          -1          -1          -1
          -1          -1          -1          -1          -1          -1
          -1          -1          -1          -1          -1          -1
          -1          -1          -1          -1          -1          -1
          -1          -1          -1          -1          -1
Number of residues                         I                0
Number of secondary structures             I                0
Redundant internal dimensions              I   N=           4
         154          29          53          72
Redundant internal coordinate indices      I   N=         616
           1           2           0           0           1           3
           0           0           1          28           0           0
           1          29           0           0           2           4
           0           0           2           8           0           0
           2          12           0           0           3          16
           0           0           3          20           0           0
           3          24           0           0           4           5
           0           0           4           6           0           0
           4           7           0           0           8           9
           0           0           8          10           0           0
           8          11           0           0          12          13
           0           0          12          14           0           0
          12          15           0           0          16          17
           0           0          16          18           0           0
          16          19           0           0          20          21
           0           0          20          22           0           0
          20          23           0           0          24          25
           0           0          24          26           0           0
          24          27           0           0          28          29
           0           0           2           1           3           0
           2           1          28           0           2           1
          29           0           3           1          28           0
           3           1          29           0           1           2
           4           0           1           2           8           0
           1           2          12           0           4           2
           8           0           4           2          12           0
           8           2          12           0           1           3
          16           0           1           3          20           0
           1           3          24           0          16           3
          20           0          16           3          24           0
          20           3          24           0           2           4
           5           0           2           4           6           0
           2           4           7           0           5           4
           6           0           5           4           7           0
           6           4           7           0           2           8
           9           0           2           8          10           0
           2           8          11           0           9           8
          10           0           9           8          11           0
          10           8          11           0           2          12
          13           0           2          12          14           0
           2          12          15           0          13          12
          14           0          13          12          15           0
          14          12          15           0           3          16
          17           0           3          16          18           0
           3          16          19           0          17          16
          18           0          17          16          19           0
          18          16          19           0           3          20
          21           0           3          20          22           0
           3          20          23           0          21          20
          22           0          21          20          23           0
          22          20          23           0           3          24
          25           0           3          24          26           0
           3          24          27           0          25          24
          26           0          25          24          27           0
          26          24          27           0           3           1
           2           4           3           1           2           8
           3           1           2          12          28           1
           2           4          28           1           2           8
          28           1           2          12          29           1
           2           4          29           1           2           8
          29           1           2          12           2           1
           3          16           2           1           3          20
           2           1           3          24          28           1
           3          16          28           1           3          20
          28           1           3          24          29           1
           3          16          29           1           3          20
          29           1           3          24           1           2
           4           5           1           2           4           6
           1           2           4           7           8           2
           4           5           8           2           4           6
           8           2           4           7          12           2
           4           5          12           2           4           6
          12           2           4           7           1           2
           8           9           1           2           8          10
           1           2           8          11           4           2
           8           9           4           2           8          10
           4           2           8          11          12           2
           8           9          12           2           8          10
          12           2           8          11           1           2
          12          13           1           2          12          14
           1           2          12          15           4           2
          12          13           4           2          12          14
           4           2          12          15           8           2
          12          13           8           2          12          14
           8           2          12          15           1           3
          16          17           1           3          16          18
           1           3          16          19          20           3
          16          17          20           3          16          18
          20           3          16          19          24           3
          16          17          24           3          16          18
          24           3          16          19           1           3
          20          21           1           3          20          22
           1           3          20          23          16           3
          20          21          16           3          20          22
          16           3          20          23          24           3
          20          21          24           3          20          22
          24           3          20          23           1           3
          24          25           1           3          24          26
           1           3          24          27          16           3
          24          25          16           3          24          26
          16           3          24          27          20           3
          24          25          20           3          24          26
          20           3          24          27
Redundant internal coordinates             R   N=         154
  4.27330569E+00  4.27253189E+00  3.51604214E+00  3.51558887E+00  3.47845474E+00
  3.48559605E+00  3.47712638E+00  3.47703725E+00  3.48393414E+00  3.47893704E+00
  2.06790603E+00  2.07104634E+00  2.06809371E+00  2.06826081E+00  2.07157907E+00
  2.06834529E+00  2.06777227E+00  2.07099616E+00  2.06776433E+00  2.06774266E+00
  2.07091284E+00  2.06745781E+00  2.07148655E+00  2.06837250E+00  2.06802238E+00
  2.06818693E+00  2.07128427E+00  2.06832653E+00  1.59464990E+00  2.12171611E+00
  2.31592226E+00  1.85854855E+00  1.84546583E+00  2.30291996E+00  2.00717326E+00
  2.14261709E+00  1.99021777E+00  1.74958628E+00  1.76602723E+00  1.75281192E+00
  1.99855931E+00  2.12608959E+00  2.01651693E+00  1.75738722E+00  1.76138603E+00
  1.74881293E+00  1.90937230E+00  1.95008030E+00  1.90535152E+00  1.90493089E+00
  1.88478906E+00  1.90817296E+00  1.90428859E+00  1.95766542E+00  1.90536088E+00
  1.90636466E+00  1.88338874E+00  1.90532276E+00  1.90593557E+00  1.94866847E+00
  1.90876101E+00  1.90974646E+00  1.88459111E+00  1.90503042E+00  1.90705646E+00
  1.94646356E+00  1.90996833E+00  1.90824124E+00  1.88542854E+00  1.90566962E+00
  1.95616448E+00  1.90667744E+00  1.90398219E+00  1.90416494E+00  1.90775409E+00
  1.88371439E+00  1.90954719E+00  1.95275143E+00  1.90321958E+00  1.90486056E+00
  1.88706499E+00  1.90525533E+00  9.17277360E-01  3.05077428E+00 -1.11168803E+00
 -2.24010488E+00 -1.06607958E-01  2.01411503E+00 -2.22543683E+00 -9.19399041E-02
  2.02878309E+00 -1.42357318E+00  2.73869871E+00  6.12390040E-01  1.73007662E+00
 -3.90836798E-01 -2.51714546E+00  1.71946540E+00 -4.01448015E-01 -2.52775668E+00
  1.08083695E+00 -3.09095660E+00 -9.78207085E-01 -1.25293360E+00  8.58458163E-01
  2.97120768E+00 -3.04887084E+00 -9.37479084E-01  1.17527043E+00  1.02096239E+00
  3.13563269E+00 -1.03346109E+00 -3.01365526E+00 -8.98984972E-01  1.21510656E+00
 -1.20696874E+00  9.07701547E-01  3.02179308E+00  9.63190765E-01  3.07739703E+00
 -1.09559953E+00 -1.20187465E+00  9.12331617E-01  3.02252037E+00 -2.99522778E+00
 -8.81021519E-01  1.22916723E+00  9.60523672E-01  3.07217160E+00 -1.10063857E+00
 -3.00994559E+00 -8.98297662E-01  1.21207747E+00 -1.21738403E+00  8.94263894E-01
  3.00463903E+00 -3.13175198E+00 -1.01919743E+00  1.03619821E+00  9.19597224E-01
  3.03215177E+00 -1.19563789E+00 -8.83119078E-01  1.22943547E+00 -2.99835420E+00
  1.03602962E+00 -3.13399300E+00 -1.02462245E+00 -3.08147496E+00 -9.68312274E-01
  1.14105828E+00 -1.28201394E+00  8.31148749E-01  2.94051930E+00
ZRed-IntVec                                I   N=         154
           0           0           0           0           0           0
           0           0           0           0           0           0
           0           0           0           0           0           0
           0           0           0           0           0           0
           0           0           0           0           0           0
           0           0           0           0           0           0
           0           0           0           0           0           0
           0           0           0           0           0           0
           0           0           0           0           0           0
           0           0           0           0           0           0
           0           0           0           0           0           0
           0           0           0           0           0           0
           0           0           0           0           0           0
           0           0           0           0           0           0
           0           0           0           0           0           0
           0           0           0           0           0           0
           0           0           0           0           0           0
           0           0           0           0           0           0
           0           0           0           0           0           0
           0           0           0           0           0           0
           0           0           0           0           0           0
           0           0           0           0           0           0
           0           0           0           0           0           0
           0           0           0           0           0           0
           0           0           0           0           0           0
           0           0           0           0
ZRed-FPVec                                 R   N=         154
  0.00000000E+00  0.00000000E+00  0.00000000E+00  0.00000000E+00  0.00000000E+00
  0.00000000E+00  0.00000000E+00  0.00000000E+00  0.00000000E+00  0.00000000E+00
  0.00000000E+00  0.00000000E+00  0.00000000E+00  0.00000000E+00  0.00000000E+00
  0.00000000E+00  0.00000000E+00  0.00000000E+00  0.00000000E+00  0.00000000E+00
  0.00000000E+00  0.00000000E+00  0.00000000E+00  0.00000000E+00  0.00000000E+00
  0.00000000E+00  0.00000000E+00  0.00000000E+00  0.00000000E+00  0.00000000E+00
  0.00000000E+00  0.00000000E+00  0.00000000E+00  0.00000000E+00  0.00000000E+00
  0.00000000E+00  0.00000000E+00  0.00000000E+00  0.00000000E+00  0.00000000E+00
  0.00000000E+00  0.00000000E+00  0.00000000E+00  0.00000000E+00  0.00000000E+00
  0.00000000E+00  0.00000000E+00  0.00000000E+00  0.00000000E+00  0.00000000E+00
  0.00000000E+00  0.00000000E+00  0.00000000E+00  0.00000000E+00  0.00000000E+00
  0.00000000E+00  0.00000000E+00  0.00000000E+00  0.00000000E+00  0.00000000E+00
  0.00000000E+00  0.00000000E+00  0.00000000E+00  0.00000000E+00  0.00000000E+00
  0.00000000E+00  0.00000000E+00  0.00000000E+00  0.00000000E+00  0.00000000E+00
  0.00000000E+00  0.00000000E+00  0.00000000E+00  0.00000000E+00  0.00000000E+00
  0.00000000E+00  0.00000000E+00  0.00000000E+00  0.00000000E+00  0.00000000E+00
  0.00000000E+00  0.00000000E+00  0.00000000E+00  0.00000000E+00  0.00000000E+00
  0.00000000E+00  0.00000000E+00  0.00000000E+00  0.00000000E+00  0.00000000E+00
  0.00000000E+00  0.00000000E+00  0.00000000E+00  0.00000000E+00  0.00000000E+00
  0.00000000E+00  0.00000000E+00  0.00000000E+00  0.00000000E+00  0.00000000E+00
  0.00000000E+00  0.00000000E+00  0.00000000E+00  0.00000000E+00  0.00000000E+00
  0.00000000E+00  0.00000000E+00  0.00000000E+00  0.00000000E+00  0.00000000E+00
  0.00000000E+00  0.00000000E+00  0.00000000E+00  0.00000000E+00  0.00000000E+00
  0.00000000E+00  0.00000000E+00  0.00000000E+00  0.00000000E+00  0.00000000E+00
  0.00000000E+00  0.00000000E+00  0.00000000E+00  0.00000000E+00  0.00000000E+00
  0.00000000E+00  0.00000000E+00  0.00000000E+00  0.00000000E+00  0.00000000E+00
  0.00000000E+00  0.00000000E+00  0.00000000E+00  0.00000000E+00  0.00000000E+00
  0.00000000E+00  0.00000000E+00  0.00000000E+00  0.00000000E+00  0.00000000E+00
  0.00000000E+00  0.00000000E+00  0.00000000E+00  0.00000000E+00  0.00000000E+00
  0.00000000E+00  0.00000000E+00  0.00000000E+00  0.00000000E+00  0.00000000E+00
  0.00000000E+00  0.00000000E+00  0.00000000E+00  0.00000000E+00
ZRed-Constraint1                           R   N=         154
  4.27330569E+00  4.27253189E+00  3.51604214E+00  3.51558887E+00  3.47845474E+00
  3.48559605E+00  3.47712638E+00  3.47703725E+00  3.48393414E+00  3.47893704E+00
  2.06790603E+00  2.07104634E+00  2.06809371E+00  2.06826081E+00  2.07157907E+00
  2.06834529E+00  2.06777227E+00  2.07099616E+00  2.06776433E+00  2.06774266E+00
  2.07091284E+00  2.06745781E+00  2.07148655E+00  2.06837250E+00  2.06802238E+00
  2.06818693E+00  2.07128427E+00  2.06832653E+00  1.59464990E+00  2.12171611E+00
  2.31592226E+00  1.85854855E+00  1.84546583E+00  2.30291996E+00  2.00717326E+00
  2.14261709E+00  1.99021777E+00  1.74958628E+00  1.76602723E+00  1.75281192E+00
  1.99855931E+00  2.12608959E+00  2.01651693E+00  1.75738722E+00  1.76138603E+00
  1.74881293E+00  1.90937230E+00  1.95008030E+00  1.90535152E+00  1.90493089E+00
  1.88478906E+00  1.90817296E+00  1.90428859E+00  1.95766542E+00  1.90536088E+00
  1.90636466E+00  1.88338874E+00  1.90532276E+00  1.90593557E+00  1.94866847E+00
  1.90876101E+00  1.90974646E+00  1.88459111E+00  1.90503042E+00  1.90705646E+00
  1.94646356E+00  1.90996833E+00  1.90824124E+00  1.88542854E+00  1.90566962E+00
  1.95616448E+00  1.90667744E+00  1.90398219E+00  1.90416494E+00  1.90775409E+00
  1.88371439E+00  1.90954719E+00  1.95275143E+00  1.90321958E+00  1.90486056E+00
  1.88706499E+00  1.90525533E+00  9.17277360E-01  3.05077428E+00 -1.11168803E+00
 -2.24010488E+00 -1.06607958E-01  2.01411503E+00 -2.22543683E+00 -9.19399041E-02
  2.02878309E+00 -1.42357318E+00  2.73869871E+00  6.12390040E-01  1.73007662E+00
 -3.90836798E-01 -2.51714546E+00  1.71946540E+00 -4.01448015E-01 -2.52775668E+00
  1.08083695E+00 -3.09095660E+00 -9.78207085E-01 -1.25293360E+00  8.58458163E-01
  2.97120768E+00 -3.04887084E+00 -9.37479084E-01  1.17527043E+00  1.02096239E+00
  3.13563269E+00 -1.03346109E+00 -3.01365526E+00 -8.98984972E-01  1.21510656E+00
 -1.20696874E+00  9.07701547E-01  3.02179308E+00  9.63190765E-01  3.07739703E+00
 -1.09559953E+00 -1.20187465E+00  9.12331617E-01  3.02252037E+00 -2.99522778E+00
 -8.81021519E-01  1.22916723E+00  9.60523672E-01  3.07217160E+00 -1.10063857E+00
 -3.00994559E+00 -8.98297662E-01  1.21207747E+00 -1.21738403E+00  8.94263894E-01
  3.00463903E+00 -3.13175198E+00 -1.01919743E+00  1.03619821E+00  9.19597224E-01
  3.03215177E+00 -1.19563789E+00 -8.83119078E-01  1.22943547E+00 -2.99835420E+00
  1.03602962E+00 -3.13399300E+00 -1.02462245E+00 -3.08147496E+00 -9.68312274E-01
  1.14105828E+00 -1.28201394E+00  8.31148749E-01  2.94051930E+00
ZRed-Constraint2                           R   N=         154
  4.27330569E+00  4.27253189E+00  3.51604214E+00  3.51558887E+00  3.47845474E+00
  3.48559605E+00  3.47712638E+00  3.47703725E+00  3.48393414E+00  3.47893704E+00
  2.06790603E+00  2.07104634E+00  2.06809371E+00  2.06826081E+00  2.07157907E+00
  2.06834529E+00  2.06777227E+00  2.07099616E+00  2.06776433E+00  2.06774266E+00
  2.07091284E+00  2.06745781E+00  2.07148655E+00  2.06837250E+00  2.06802238E+00
  2.06818693E+00  2.07128427E+00  2.06832653E+00  1.59464990E+00  2.12171611E+00
  2.31592226E+00  1.85854855E+00  1.84546583E+00  2.30291996E+00  2.00717326E+00
  2.14261709E+00  1.99021777E+00  1.74958628E+00  1.76602723E+00  1.75281192E+00
  1.99855931E+00  2.12608959E+00  2.01651693E+00  1.75738722E+00  1.76138603E+00
  1.74881293E+00  1.90937230E+00  1.95008030E+00  1.90535152E+00  1.90493089E+00
  1.88478906E+00  1.90817296E+00  1.90428859E+00  1.95766542E+00  1.90536088E+00
  1.90636466E+00  1.88338874E+00  1.90532276E+00  1.90593557E+00  1.94866847E+00
  1.90876101E+00  1.90974646E+00  1.88459111E+00  1.90503042E+00  1.90705646E+00
  1.94646356E+00  1.90996833E+00  1.90824124E+00  1.88542854E+00  1.90566962E+00
  1.95616448E+00  1.90667744E+00  1.90398219E+00  1.90416494E+00  1.90775409E+00
  1.88371439E+00  1.90954719E+00  1.95275143E+00  1.90321958E+00  1.90486056E+00
  1.88706499E+00  1.90525533E+00  9.17277360E-01  3.05077428E+00 -1.11168803E+00
 -2.24010488E+00 -1.06607958E-01  2.01411503E+00 -2.22543683E+00 -9.19399041E-02
  2.02878309E+00 -1.42357318E+00  2.73869871E+00  6.12390040E-01  1.73007662E+00
 -3.90836798E-01 -2.51714546E+00  1.71946540E+00 -4.01448015E-01 -2.52775668E+00
  1.08083695E+00 -3.09095660E+00 -9.78207085E-01 -1.25293360E+00  8.58458163E-01
  2.97120768E+00 -3.04887084E+00 -9.37479084E-01  1.17527043E+00  1.02096239E+00
  3.13563269E+00 -1.03346109E+00 -3.01365526E+00 -8.98984972E-01  1.21510656E+00
 -1.20696874E+00  9.07701547E-01  3.02179308E+00  9.63190765E-01  3.07739703E+00
 -1.09559953E+00 -1.20187465E+00  9.12331617E-01  3.02252037E+00 -2.99522778E+00
 -8.81021519E-01  1.22916723E+00  9.60523672E-01  3.07217160E+00 -1.10063857E+00
 -3.00994559E+00 -8.98297662E-01  1.21207747E+00 -1.21738403E+00  8.94263894E-01
  3.00463903E+00 -3.13175198E+00 -1.01919743E+00  1.03619821E+00  9.19597224E-01
  3.03215177E+00 -1.19563789E+00 -8.83119078E-01  1.22943547E+00 -2.99835420E+00
  1.03602962E+00 -3.13399300E+00 -1.02462245E+00 -3.08147496E+00 -9.68312274E-01
  1.14105828E+00 -1.28201394E+00  8.31148749E-01  2.94051930E+00
SymInf integers                            I   N=          26
           1           1           1           1           1           0