 Entering Gaussian System, Link 0=g16
 Input=Pt_tst.gjf
 Output=Pt_tst.log
 Initial command:
 /usr/g16/l1.exe "/scratch/wsr/gaussian/Gau-426390.inp" -scrdir="/scratch/wsr/gaussian/"
 Entering Link 1 = /usr/g16/l1.exe PID=    426391.
  
 Copyright (c) 1988,1990,1992,1993,1995,1998,2003,2009,2016,
            Gaussian, Inc.  All Rights Reserved.
  
 This is part of the Gaussian(R) 16 program.  It is based on
 the Gaussian(R) 09 system (copyright 2009, Gaussian, Inc.),
 the Gaussian(R) 03 system (copyright 2003, Gaussian, Inc.),
 the Gaussian(R) 98 system (copyright 1998, Gaussian, Inc.),
 the Gaussian(R) 94 system (copyright 1995, Gaussian, Inc.),
 the Gaussian 92(TM) system (copyright 1992, Gaussian, Inc.),
 the Gaussian 90(TM) system (copyright 1990, Gaussian, Inc.),
 the Gaussian 88(TM) system (copyright 1988, Gaussian, Inc.),
 the Gaussian 86(TM) system (copyright 1986, Carnegie Mellon
 University), and the Gaussian 82(TM) system (copyright 1983,
 Carnegie Mellon University). Gaussian is a federally registered
 trademark of Gaussian, Inc.
  
 This software contains proprietary and confidential information,
 including trade secrets, belonging to Gaussian, Inc.
  
 This software is provided under written license and may be
 used, copied, transmitted, or stored only in accord with that
 written license.
  
 The following legend is applicable only to US Government
 contracts under FAR:
  
                    RESTRICTED RIGHTS LEGEND
  
 Use, reproduction and disclosure by the US Government is
 subject to restrictions as set forth in subparagraphs (a)
 and (c) of the Commercial Computer Software - Restricted
 Rights clause in FAR 52.227-19.
  
 Gaussian, Inc.
 340 Quinnipiac St., Bldg. 40, Wallingford CT 06492
  
  
 ---------------------------------------------------------------
 Warning -- This program may not be used in any manner that
 competes with the business of Gaussian, Inc. or will provide
 assistance to any competitor of Gaussian, Inc.  The licensee
 of this program is prohibited from giving any competitor of
 Gaussian, Inc. access to this program.  By using this program,
 the user acknowledges that Gaussian, Inc. is engaged in the
 business of creating and licensing software in the field of
 computational chemistry and represents and warrants to the
 licensee that it is not a competitor of Gaussian, Inc. and that
 it will not use this program in any manner prohibited above.
 ---------------------------------------------------------------
  

 Cite this work as:
 Gaussian 16, Revision A.03,
 M. J. Frisch, G. W. Trucks, H. B. Schlegel, G. E. Scuseria, 
 M. A. Robb, J. R. Cheeseman, G. Scalmani, V. Barone, 
 G. A. Petersson, H. Nakatsuji, X. Li, M. Caricato, A. V. Marenich, 
 J. Bloino, B. G. Janesko, R. Gomperts, B. Mennucci, H. P. Hratchian, 
 J. V. Ortiz, A. F. Izmaylov, J. L. Sonnenberg, D. Williams-Young, 
 F. Ding, F. Lipparini, F. Egidi, J. Goings, B. Peng, A. Petrone, 
 T. Henderson, D. Ranasinghe, V. G. Zakrzewski, J. Gao, N. Rega, 
 G. Zheng, W. Liang, M. Hada, M. Ehara, K. Toyota, R. Fukuda, 
 J. Hasegawa, M. Ishida, T. Nakajima, Y. Honda, O. Kitao, H. Nakai, 
 T. Vreven, K. Throssell, J. A. Montgomery, Jr., J. E. Peralta, 
 F. Ogliaro, M. J. Bearpark, J. J. Heyd, E. N. Brothers, K. N. Kudin, 
 V. N. Staroverov, T. A. Keith, R. Kobayashi, J. Normand, 
 K. Raghavachari, A. P. Rendell, J. C. Burant, S. S. Iyengar, 
 J. Tomasi, M. Cossi, J. M. Millam, M. Klene, C. Adamo, R. Cammi, 
 J. W. Ochterski, R. L. Martin, K. Morokuma, O. Farkas, 
 J. B. Foresman, and D. J. Fox, Gaussian, Inc., Wallingford CT, 2016.
 
 ******************************************
 Gaussian 16:  ES64L-G16RevA.03 25-Dec-2016
                12-Nov-2019 
 ******************************************
 %oldchk=Pt_tst.chk
 %chk=Pt_tst_low.chk
 %nprocshared=24
 Will use up to   24 processors via shared memory.
 %mem=10gb
 Copying data from "Pt_tst.chk" to current chk file "Pt_tst_low.chk"
 IOpt=  2 FromEx=T IUOpen= 4 IOptOp= 5 NList=   0 IFRang= 0 IUIn= 4 IUOut= 2.
 ----------------------------------------------------------------------
 #p opt=(calcfc,ts,noeigen) geom=check scrf=(smd,solvent=benzene) em=gd
 3bj pbe1pbe/genecp
 ----------------------------------------------------------------------
 1/5=1,10=4,11=1,18=20,26=3,29=2,38=1/1,3;
 2/9=110,12=2,40=1/2;
 3/5=7,11=2,14=-4,16=1,17=8,25=1,30=1,70=32201,71=2,72=12,74=-13,124=41,140=1/1,2,3;
 4//1;
 5/5=2,38=5,53=12/2;
 8/6=4,10=90,11=11/1;
 11/6=1,8=1,9=11,15=111,16=1/1,2,10;
 10/6=1,13=1/2;
 6/7=2,8=2,9=2,10=2,28=1/1;
 7/10=1,18=20,25=1/1,2,3,16;
 1/5=1,10=4,11=1,18=20,26=3/3(2);
 2/9=110/2;
 99//99;
 2/9=110/2;
 3/5=7,6=1,11=2,14=-2,16=1,17=8,25=1,30=1,70=32205,71=1,72=12,74=-13,82=7,124=41/1,2,3;
 4/5=5,16=3,69=1/1;
 5/5=2,38=5,53=12/2;
 7//1,2,3,16;
 1/5=1,11=1,18=20,26=3/3(-5);
 2/9=110/2;
 6/7=2,8=2,9=2,10=2,19=2,28=1/1;
 99/9=1/99;
 Leave Link    1 at Tue Nov 12 08:35:52 2019, MaxMem=  1342177280 cpu:               2.5 elap:               0.1
 (Enter /usr/g16/l101.exe)
 -----
 title
 -----
 Structure from the checkpoint file:  "Pt_tst_low.chk"
 Charge =  0 Multiplicity = 1
 Redundant internal coordinates found in file.  (old form).
 Pt,0,-0.0004446731,-0.0400490217,0.0109761166
 P,0,-2.2851274136,-0.0435673094,0.0005218889
 P,0,2.2847722866,-0.0447642982,-0.0040870365
 C,0,-3.1371793369,-0.9119830844,1.3644320914
 H,0,-2.8678747476,-0.4388615846,2.3099319873
 H,0,-4.2246983575,-0.9000664429,1.2394641699
 H,0,-2.7915677186,-1.9476508205,1.3967937822
 C,0,-3.0265161297,1.6175222318,0.0582082791
 H,0,-2.7110353092,2.1906064623,-0.8151934509
 H,0,-4.1176904459,1.5490603276,0.0639915629
 H,0,-2.696333341,2.1367478026,0.9591851634
 C,0,-3.1178856962,-0.7955422888,-1.4426698711
 H,0,-2.7923642311,-1.8337547899,-1.5392707746
 H,0,-4.2080031768,-0.7679965584,-1.3449813516
 H,0,-2.8130427146,-0.2637894619,-2.3452879792
 C,0,3.1686494339,-0.5918027465,1.502070472
 H,0,2.8590616124,-1.6110998131,1.7434526378
 H,0,4.2559097735,-0.5656780177,1.3736174275
 H,0,2.8795364133,0.0504292426,2.3355725803
 C,0,3.0344139903,1.5860837289,-0.3039383923
 H,0,4.1237383155,1.5044978782,-0.3501454276
 H,0,2.6621810848,1.9945278187,-1.2443440852
 H,0,2.7645065135,2.2647247895,0.5069862701
 C,0,3.0783946875,-1.1074009753,-1.2585180303
 H,0,2.7993867452,-0.7558234133,-2.2527005323
 H,0,4.1680054873,-1.1075498673,-1.1559600023
 H,0,2.709079704,-2.129160268,-1.1457956778
 H,0,0.2974051326,3.4021438195,-0.0195169341
 H,0,-0.2554510295,2.8962295076,-0.0359665376
 Recover connectivity data from disk.
 ITRead=  0  0  0  0  0  0  0  0  0  0  0  0  0  0  0  0  0  0  0  0
 ITRead=  0  0  0  0  0  0  0  0  0
 MicOpt= -1 -1 -1 -1 -1 -1 -1 -1 -1 -1 -1 -1 -1 -1 -1 -1 -1 -1 -1 -1
 MicOpt= -1 -1 -1 -1 -1 -1 -1 -1 -1
 NAtoms=     29 NQM=       29 NQMF=       0 NMMI=      0 NMMIF=      0
                NMic=       0 NMicF=      0.
                    Isotopes and Nuclear Properties:
 (Nuclear quadrupole moments (NQMom) in fm**2, nuclear magnetic moments (NMagM)
  in nuclear magnetons)

  Atom         1           2           3           4           5           6           7           8           9          10
 IAtWgt=         195          31          31          12           1           1           1          12           1           1
 AtmWgt= 194.9648000  30.9737634  30.9737634  12.0000000   1.0078250   1.0078250   1.0078250  12.0000000   1.0078250   1.0078250
 NucSpn=           1           1           1           0           1           1           1           0           1           1
 AtZEff=1176.2400000  12.9400000  12.9400000   3.6000000   1.0000000   1.0000000   1.0000000   3.6000000   1.0000000   1.0000000
 NQMom=    0.0000000   0.0000000   0.0000000   0.0000000   0.0000000   0.0000000   0.0000000   0.0000000   0.0000000   0.0000000
 NMagM=    0.6095000   1.1316000   1.1316000   0.0000000   2.7928460   2.7928460   2.7928460   0.0000000   2.7928460   2.7928460
 AtZNuc=  78.0000000  15.0000000  15.0000000   6.0000000   1.0000000   1.0000000   1.0000000   6.0000000   1.0000000   1.0000000

  Atom        11          12          13          14          15          16          17          18          19          20
 IAtWgt=           1          12           1           1           1          12           1           1           1          12
 AtmWgt=   1.0078250  12.0000000   1.0078250   1.0078250   1.0078250  12.0000000   1.0078250   1.0078250   1.0078250  12.0000000
 NucSpn=           1           0           1           1           1           0           1           1           1           0
 AtZEff=   1.0000000   3.6000000   1.0000000   1.0000000   1.0000000   3.6000000   1.0000000   1.0000000   1.0000000   3.6000000
 NQMom=    0.0000000   0.0000000   0.0000000   0.0000000   0.0000000   0.0000000   0.0000000   0.0000000   0.0000000   0.0000000
 NMagM=    2.7928460   0.0000000   2.7928460   2.7928460   2.7928460   0.0000000   2.7928460   2.7928460   2.7928460   0.0000000
 AtZNuc=   1.0000000   6.0000000   1.0000000   1.0000000   1.0000000   6.0000000   1.0000000   1.0000000   1.0000000   6.0000000

  Atom        21          22          23          24          25          26          27          28          29
 IAtWgt=           1           1           1          12           1           1           1           1           1
 AtmWgt=   1.0078250   1.0078250   1.0078250  12.0000000   1.0078250   1.0078250   1.0078250   1.0078250   1.0078250
 NucSpn=           1           1           1           0           1           1           1           1           1
 AtZEff=   1.0000000   1.0000000   1.0000000   3.6000000   1.0000000   1.0000000   1.0000000   1.0000000   1.0000000
 NQMom=    0.0000000   0.0000000   0.0000000   0.0000000   0.0000000   0.0000000   0.0000000   0.0000000   0.0000000
 NMagM=    2.7928460   2.7928460   2.7928460   0.0000000   2.7928460   2.7928460   2.7928460   2.7928460   2.7928460
 AtZNuc=   1.0000000   1.0000000   1.0000000   6.0000000   1.0000000   1.0000000   1.0000000   1.0000000   1.0000000
 Leave Link  101 at Tue Nov 12 08:35:52 2019, MaxMem=  1342177280 cpu:               6.1 elap:               0.3
 (Enter /usr/g16/l103.exe)

 GradGradGradGradGradGradGradGradGradGradGradGradGradGradGradGradGradGrad
 Berny optimization.
 Initialization pass.
                           ----------------------------
                           !    Initial Parameters    !
                           ! (Angstroms and Degrees)  !
 --------------------------                            --------------------------
 ! Name  Definition              Value          Derivative Info.                !
 --------------------------------------------------------------------------------
 ! R1    R(1,2)                  2.2847         calculate D2E/DX2 analytically  !
 ! R2    R(1,3)                  2.2853         calculate D2E/DX2 analytically  !
 ! R3    R(1,28)                 3.4552         calculate D2E/DX2 analytically  !
 ! R4    R(1,29)                 2.9477         calculate D2E/DX2 analytically  !
 ! R5    R(2,4)                  1.8277         calculate D2E/DX2 analytically  !
 ! R6    R(2,8)                  1.8199         calculate D2E/DX2 analytically  !
 ! R7    R(2,12)                 1.828          calculate D2E/DX2 analytically  !
 ! R8    R(3,16)                 1.83           calculate D2E/DX2 analytically  !
 ! R9    R(3,20)                 1.8198         calculate D2E/DX2 analytically  !
 ! R10   R(3,24)                 1.8255         calculate D2E/DX2 analytically  !
 ! R11   R(4,5)                  1.091          calculate D2E/DX2 analytically  !
 ! R12   R(4,6)                  1.0947         calculate D2E/DX2 analytically  !
 ! R13   R(4,7)                  1.0923         calculate D2E/DX2 analytically  !
 ! R14   R(8,9)                  1.0912         calculate D2E/DX2 analytically  !
 ! R15   R(8,10)                 1.0933         calculate D2E/DX2 analytically  !
 ! R16   R(8,11)                 1.091          calculate D2E/DX2 analytically  !
 ! R17   R(12,13)                1.0923         calculate D2E/DX2 analytically  !
 ! R18   R(12,14)                1.0948         calculate D2E/DX2 analytically  !
 ! R19   R(12,15)                1.0911         calculate D2E/DX2 analytically  !
 ! R20   R(16,17)                1.0923         calculate D2E/DX2 analytically  !
 ! R21   R(16,18)                1.0951         calculate D2E/DX2 analytically  !
 ! R22   R(16,19)                1.0912         calculate D2E/DX2 analytically  !
 ! R23   R(20,21)                1.0934         calculate D2E/DX2 analytically  !
 ! R24   R(20,22)                1.0908         calculate D2E/DX2 analytically  !
 ! R25   R(20,23)                1.0913         calculate D2E/DX2 analytically  !
 ! R26   R(24,25)                1.0908         calculate D2E/DX2 analytically  !
 ! R27   R(24,26)                1.0944         calculate D2E/DX2 analytically  !
 ! R28   R(24,27)                1.0923         calculate D2E/DX2 analytically  !
 ! R29   R(28,29)                0.7496         calculate D2E/DX2 analytically  !
 ! A1    A(2,1,3)              179.3277         calculate D2E/DX2 analytically  !
 ! A2    A(2,1,28)              95.0311         calculate D2E/DX2 analytically  !
 ! A3    A(2,1,29)              85.1212         calculate D2E/DX2 analytically  !
 ! A4    A(3,1,28)              85.1697         calculate D2E/DX2 analytically  !
 ! A5    A(3,1,29)              95.0749         calculate D2E/DX2 analytically  !
 ! A6    A(1,2,4)              117.6136         calculate D2E/DX2 analytically  !
 ! A7    A(1,2,8)              113.9421         calculate D2E/DX2 analytically  !
 ! A8    A(1,2,12)             117.3733         calculate D2E/DX2 analytically  !
 ! A9    A(4,2,8)              102.7153         calculate D2E/DX2 analytically  !
 ! A10   A(4,2,12)             100.4467         calculate D2E/DX2 analytically  !
 ! A11   A(8,2,12)             102.4095         calculate D2E/DX2 analytically  !
 ! A12   A(1,3,16)             118.5657         calculate D2E/DX2 analytically  !
 ! A13   A(1,3,20)             114.2785         calculate D2E/DX2 analytically  !
 ! A14   A(1,3,24)             116.1326         calculate D2E/DX2 analytically  !
 ! A15   A(16,3,20)            101.8027         calculate D2E/DX2 analytically  !
 ! A16   A(16,3,24)            100.4614         calculate D2E/DX2 analytically  !
 ! A17   A(20,3,24)            103.2589         calculate D2E/DX2 analytically  !
 ! A18   A(2,4,5)              109.0016         calculate D2E/DX2 analytically  !
 ! A19   A(2,4,6)              111.8859         calculate D2E/DX2 analytically  !
 ! A20   A(2,4,7)              108.9727         calculate D2E/DX2 analytically  !
 ! A21   A(5,4,6)              109.8412         calculate D2E/DX2 analytically  !
 ! A22   A(5,4,7)              107.9021         calculate D2E/DX2 analytically  !
 ! A23   A(6,4,7)              109.149          calculate D2E/DX2 analytically  !
 ! A24   A(2,8,9)              109.6449         calculate D2E/DX2 analytically  !
 ! A25   A(2,8,10)             110.4616         calculate D2E/DX2 analytically  !
 ! A26   A(2,8,11)             109.7095         calculate D2E/DX2 analytically  !
 ! A27   A(9,8,10)             109.0051         calculate D2E/DX2 analytically  !
 ! A28   A(9,8,11)             108.8765         calculate D2E/DX2 analytically  !
 ! A29   A(10,8,11)            109.1149         calculate D2E/DX2 analytically  !
 ! A30   A(2,12,13)            108.9678         calculate D2E/DX2 analytically  !
 ! A31   A(2,12,14)            111.8879         calculate D2E/DX2 analytically  !
 ! A32   A(2,12,15)            108.9872         calculate D2E/DX2 analytically  !
 ! A33   A(13,12,14)           109.1794         calculate D2E/DX2 analytically  !
 ! A34   A(13,12,15)           107.8666         calculate D2E/DX2 analytically  !
 ! A35   A(14,12,15)           109.8618         calculate D2E/DX2 analytically  !
 ! A36   A(3,16,17)            108.9011         calculate D2E/DX2 analytically  !
 ! A37   A(3,16,18)            112.0766         calculate D2E/DX2 analytically  !
 ! A38   A(3,16,19)            108.9505         calculate D2E/DX2 analytically  !
 ! A39   A(17,16,18)           109.2431         calculate D2E/DX2 analytically  !
 ! A40   A(17,16,19)           107.7778         calculate D2E/DX2 analytically  !
 ! A41   A(18,16,19)           109.791          calculate D2E/DX2 analytically  !
 ! A42   A(3,20,21)            110.519          calculate D2E/DX2 analytically  !
 ! A43   A(3,20,22)            109.6983         calculate D2E/DX2 analytically  !
 ! A44   A(3,20,23)            109.4492         calculate D2E/DX2 analytically  !
 ! A45   A(21,20,22)           109.3605         calculate D2E/DX2 analytically  !
 ! A46   A(21,20,23)           108.918          calculate D2E/DX2 analytically  !
 ! A47   A(22,20,23)           108.8674         calculate D2E/DX2 analytically  !
 ! A48   A(3,24,25)            109.1156         calculate D2E/DX2 analytically  !
 ! A49   A(3,24,26)            111.6234         calculate D2E/DX2 analytically  !
 ! A50   A(3,24,27)            109.0629         calculate D2E/DX2 analytically  !
 ! A51   A(25,24,26)           109.8835         calculate D2E/DX2 analytically  !
 ! A52   A(25,24,27)           108.0034         calculate D2E/DX2 analytically  !
 ! A53   A(26,24,27)           109.0762         calculate D2E/DX2 analytically  !
 ! D1    D(3,1,2,4)            129.7445         calculate D2E/DX2 analytically  !
 ! D2    D(3,1,2,8)           -109.9873         calculate D2E/DX2 analytically  !
 ! D3    D(3,1,2,12)             9.6607         calculate D2E/DX2 analytically  !
 ! D4    D(28,1,2,4)          -122.9029         calculate D2E/DX2 analytically  !
 ! D5    D(28,1,2,8)            -2.6347         calculate D2E/DX2 analytically  !
 ! D6    D(28,1,2,12)          117.0134         calculate D2E/DX2 analytically  !
 ! D7    D(29,1,2,4)          -123.2656         calculate D2E/DX2 analytically  !
 ! D8    D(29,1,2,8)            -2.9974         calculate D2E/DX2 analytically  !
 ! D9    D(29,1,2,12)          116.6506         calculate D2E/DX2 analytically  !
 ! D10   D(2,1,3,16)          -142.2871         calculate D2E/DX2 analytically  !
 ! D11   D(2,1,3,20)            97.6423         calculate D2E/DX2 analytically  !
 ! D12   D(2,1,3,24)           -22.46           calculate D2E/DX2 analytically  !
 ! D13   D(28,1,3,16)          110.3049         calculate D2E/DX2 analytically  !
 ! D14   D(28,1,3,20)           -9.7657         calculate D2E/DX2 analytically  !
 ! D15   D(28,1,3,24)         -129.868          calculate D2E/DX2 analytically  !
 ! D16   D(29,1,3,16)          110.779          calculate D2E/DX2 analytically  !
 ! D17   D(29,1,3,20)           -9.2916         calculate D2E/DX2 analytically  !
 ! D18   D(29,1,3,24)         -129.3939         calculate D2E/DX2 analytically  !
 ! D19   D(1,2,4,5)             61.2964         calculate D2E/DX2 analytically  !
 ! D20   D(1,2,4,6)           -177.0225         calculate D2E/DX2 analytically  !
 ! D21   D(1,2,4,7)            -56.2309         calculate D2E/DX2 analytically  !
 ! D22   D(8,2,4,5)            -64.6851         calculate D2E/DX2 analytically  !
 ! D23   D(8,2,4,6)             56.9959         calculate D2E/DX2 analytically  !
 ! D24   D(8,2,4,7)            177.7876         calculate D2E/DX2 analytically  !
 ! D25   D(12,2,4,5)          -170.0887         calculate D2E/DX2 analytically  !
 ! D26   D(12,2,4,6)           -48.4077         calculate D2E/DX2 analytically  !
 ! D27   D(12,2,4,7)            72.384          calculate D2E/DX2 analytically  !
 ! D28   D(1,2,8,9)             60.5901         calculate D2E/DX2 analytically  !
 ! D29   D(1,2,8,10)          -179.2605         calculate D2E/DX2 analytically  !
 ! D30   D(1,2,8,11)           -58.9336         calculate D2E/DX2 analytically  !
 ! D31   D(4,2,8,9)           -171.0878         calculate D2E/DX2 analytically  !
 ! D32   D(4,2,8,10)           -50.9384         calculate D2E/DX2 analytically  !
 ! D33   D(4,2,8,11)            69.3885         calculate D2E/DX2 analytically  !
 ! D34   D(12,2,8,9)           -67.2027         calculate D2E/DX2 analytically  !
 ! D35   D(12,2,8,10)           52.9467         calculate D2E/DX2 analytically  !
 ! D36   D(12,2,8,11)          173.2736         calculate D2E/DX2 analytically  !
 ! D37   D(1,2,12,13)           57.9557         calculate D2E/DX2 analytically  !
 ! D38   D(1,2,12,14)          178.7835         calculate D2E/DX2 analytically  !
 ! D39   D(1,2,12,15)          -59.5182         calculate D2E/DX2 analytically  !
 ! D40   D(4,2,12,13)          -70.8153         calculate D2E/DX2 analytically  !
 ! D41   D(4,2,12,14)           50.0125         calculate D2E/DX2 analytically  !
 ! D42   D(4,2,12,15)          171.7108         calculate D2E/DX2 analytically  !
 ! D43   D(8,2,12,13)         -176.4642         calculate D2E/DX2 analytically  !
 ! D44   D(8,2,12,14)          -55.6364         calculate D2E/DX2 analytically  !
 ! D45   D(8,2,12,15)           66.0619         calculate D2E/DX2 analytically  !
 ! D46   D(1,3,16,17)           58.2002         calculate D2E/DX2 analytically  !
 ! D47   D(1,3,16,18)          179.1838         calculate D2E/DX2 analytically  !
 ! D48   D(1,3,16,19)          -59.1089         calculate D2E/DX2 analytically  !
 ! D49   D(20,3,16,17)        -175.498          calculate D2E/DX2 analytically  !
 ! D50   D(20,3,16,18)         -54.5143         calculate D2E/DX2 analytically  !
 ! D51   D(20,3,16,19)          67.193          calculate D2E/DX2 analytically  !
 ! D52   D(24,3,16,17)         -69.4257         calculate D2E/DX2 analytically  !
 ! D53   D(24,3,16,18)          51.5579         calculate D2E/DX2 analytically  !
 ! D54   D(24,3,16,19)         173.2652         calculate D2E/DX2 analytically  !
 ! D55   D(1,3,20,21)         -177.0607         calculate D2E/DX2 analytically  !
 ! D56   D(1,3,20,22)          -56.3994         calculate D2E/DX2 analytically  !
 ! D57   D(1,3,20,23)           62.9866         calculate D2E/DX2 analytically  !
 ! D58   D(16,3,20,21)          53.8786         calculate D2E/DX2 analytically  !
 ! D59   D(16,3,20,22)         174.5399         calculate D2E/DX2 analytically  !
 ! D60   D(16,3,20,23)         -66.0741         calculate D2E/DX2 analytically  !
 ! D61   D(24,3,20,21)         -49.9969         calculate D2E/DX2 analytically  !
 ! D62   D(24,3,20,22)          70.6644         calculate D2E/DX2 analytically  !
 ! D63   D(24,3,20,23)        -169.9497         calculate D2E/DX2 analytically  !
 ! D64   D(1,3,24,25)           62.2727         calculate D2E/DX2 analytically  !
 ! D65   D(1,3,24,26)         -176.0864         calculate D2E/DX2 analytically  !
 ! D66   D(1,3,24,27)          -55.4929         calculate D2E/DX2 analytically  !
 ! D67   D(16,3,24,25)        -168.5146         calculate D2E/DX2 analytically  !
 ! D68   D(16,3,24,26)         -46.8737         calculate D2E/DX2 analytically  !
 ! D69   D(16,3,24,27)          73.7198         calculate D2E/DX2 analytically  !
 ! D70   D(20,3,24,25)         -63.6104         calculate D2E/DX2 analytically  !
 ! D71   D(20,3,24,26)          58.0305         calculate D2E/DX2 analytically  !
 ! D72   D(20,3,24,27)         178.624          calculate D2E/DX2 analytically  !
 --------------------------------------------------------------------------------
 Trust Radius=3.00D-01 FncErr=1.00D-07 GrdErr=1.00D-06 EigMax=2.50D+02 EigMin=1.00D-04
 Number of steps in this run=    164 maximum allowed number of steps=    174.
 Search for a saddle point of order  1.
 GradGradGradGradGradGradGradGradGradGradGradGradGradGradGradGradGradGrad

 Leave Link  103 at Tue Nov 12 08:35:52 2019, MaxMem=  1342177280 cpu:               0.3 elap:               0.0
 (Enter /usr/g16/l202.exe)
                          Input orientation:                          
 ---------------------------------------------------------------------
 Center     Atomic      Atomic             Coordinates (Angstroms)
 Number     Number       Type             X           Y           Z
 ---------------------------------------------------------------------
      1         78           0       -0.000445   -0.040049    0.010976
      2         15           0       -2.285127   -0.043567    0.000522
      3         15           0        2.284772   -0.044764   -0.004087
      4          6           0       -3.137179   -0.911983    1.364432
      5          1           0       -2.867875   -0.438862    2.309932
      6          1           0       -4.224698   -0.900066    1.239464
      7          1           0       -2.791568   -1.947651    1.396794
      8          6           0       -3.026516    1.617522    0.058208
      9          1           0       -2.711035    2.190606   -0.815193
     10          1           0       -4.117690    1.549060    0.063992
     11          1           0       -2.696333    2.136748    0.959185
     12          6           0       -3.117886   -0.795542   -1.442670
     13          1           0       -2.792364   -1.833755   -1.539271
     14          1           0       -4.208003   -0.767997   -1.344981
     15          1           0       -2.813043   -0.263789   -2.345288
     16          6           0        3.168649   -0.591803    1.502070
     17          1           0        2.859062   -1.611100    1.743453
     18          1           0        4.255910   -0.565678    1.373617
     19          1           0        2.879536    0.050429    2.335573
     20          6           0        3.034414    1.586084   -0.303938
     21          1           0        4.123738    1.504498   -0.350145
     22          1           0        2.662181    1.994528   -1.244344
     23          1           0        2.764507    2.264725    0.506986
     24          6           0        3.078395   -1.107401   -1.258518
     25          1           0        2.799387   -0.755823   -2.252701
     26          1           0        4.168005   -1.107550   -1.155960
     27          1           0        2.709080   -2.129160   -1.145796
     28          1           0        0.297405    3.402144   -0.019517
     29          1           0       -0.255451    2.896230   -0.035967
 ---------------------------------------------------------------------
                    Distance matrix (angstroms):
                    1          2          3          4          5
     1  Pt   0.000000
     2  P    2.284709   0.000000
     3  P    2.285271   4.569902   0.000000
     4  C    3.525793   1.827673   5.658840   0.000000
     5  H    3.696810   2.414379   5.662135   1.091027   0.000000
     6  H    4.482536   2.455708   6.682153   1.094740   1.788737
     7  H    3.653738   2.414869   5.599346   1.092292   1.765245
     8  C    3.450635   1.819946   5.565686   2.849011   3.053546
     9  H    3.606339   2.416262   5.532890   3.815551   4.087188
    10  H    4.413592   2.428740   6.598215   2.951149   3.249326
    11  H    3.592403   2.417002   5.522527   3.106981   2.913367
    12  C    3.521689   1.828047   5.641090   2.809582   3.777797
    13  H    3.662712   2.415165   5.597731   3.065950   4.094849
    14  H    4.480187   2.456141   6.669123   2.916902   3.906746
    15  H    3.675969   2.414543   5.613992   3.779847   4.658834
    16  C    3.545554   5.683211   1.830027   6.315452   6.092262
    17  H    3.694110   5.653109   2.416011   6.048746   5.873061
    18  H    4.499959   6.703966   2.460651   7.401201   7.186172
    19  H    3.702192   5.668778   2.415950   6.170107   5.768258
    20  C    3.457433   5.571892   1.819763   6.863845   6.765333
    21  H    4.418701   6.602502   2.429355   7.842199   7.728862
    22  H    3.578395   5.493577   2.416482   6.991860   7.009692
    23  H    3.633588   5.575260   2.413520   6.756965   6.502593
    24  C    3.497157   5.611087   1.825549   6.749179   6.966986
    25  H    3.670916   5.606835   2.413855   6.953478   7.282577
    26  H    4.458394   6.641719   2.450080   7.730223   7.871668
    27  H    3.611652   5.532255   2.414175   6.477770   6.775071
    28  H    3.455190   4.306135   3.978824   5.685365   5.495330
    29  H    2.947705   3.572579   3.886283   4.976742   4.842606
                    6          7          8          9         10
     6  H    0.000000
     7  H    1.782147   0.000000
     8  C    3.028078   3.815425   0.000000
     9  H    4.008123   4.693032   1.091231   0.000000
    10  H    2.718714   3.970133   1.093335   1.778546   0.000000
    11  H    3.411260   4.108879   1.091043   1.775257   1.779608
    12  C    2.903412   3.081622   2.843214   3.078366   2.960878
    13  H    3.262625   2.938273   3.810260   4.089790   3.971194
    14  H    2.587872   3.303817   3.009245   3.357815   2.713322
    15  H    3.904877   4.103538   3.059689   2.894072   3.285294
    16  C    7.404430   6.113395   6.733939   6.905230   7.729302
    17  H    7.137172   5.671248   6.921277   7.212879   7.841063
    18  H    8.488258   7.181736   7.715594   7.805531   8.735240
    19  H    7.250865   6.085643   6.521014   6.764775   7.507807
    20  C    7.826733   7.022950   6.071821   5.799743   7.161658
    21  H    8.832054   7.924051   7.162797   6.884849   8.251948
    22  H    7.872553   7.229091   5.848081   5.393892   6.919309
    23  H    7.707231   7.028928   5.844332   5.633401   6.933474
    24  C    7.721274   6.497165   6.813876   6.677641   7.783923
    25  H    7.845622   6.782185   6.701807   6.411913   7.650197
    26  H    8.730326   7.460428   7.788541   7.636436   8.786274
    27  H    7.434878   6.062576   6.955883   6.938828   7.848419
    28  H    6.367375   6.337822   3.773509   3.339407   4.788942
    29  H    5.638573   5.652244   3.053320   2.671141   4.091668
                   11         12         13         14         15
    11  H    0.000000
    12  C    3.813783   0.000000
    13  H    4.692163   1.092328   0.000000
    14  H    4.003982   1.094832   1.782589   0.000000
    15  H    4.086042   1.091059   1.764903   1.789065   0.000000
    16  C    6.491359   6.945036   6.806312   7.908967   7.119719
    17  H    6.747136   6.822053   6.539454   7.758392   7.120801
    18  H    7.470512   7.896656   7.731177   8.892105   7.993215
    19  H    6.110441   7.138617   7.122852   8.028046   7.376628
    20  C    5.894080   6.694747   6.868237   7.686226   6.463891
    21  H    6.973340   7.676256   7.771128   8.693207   7.431444
    22  H    5.795640   6.421292   6.670442   7.405478   6.024131
    23  H    5.481025   6.911507   7.201633   7.825795   6.755583
    24  C    6.984998   6.206856   5.922181   7.294811   6.049941
    25  H    6.991861   5.972591   5.739216   7.065948   5.634717
    26  H    7.881526   7.298203   7.008641   8.385019   7.131723
    27  H    7.200514   5.984998   5.523402   7.052551   5.950817
    28  H    3.394342   5.595547   6.266655   6.280576   5.340708
    29  H    2.743182   4.878681   5.573922   5.546417   4.675464
                   16         17         18         19         20
    16  C    0.000000
    17  H    1.092280   0.000000
    18  H    1.095134   1.783499   0.000000
    19  H    1.091226   1.764002   1.788673   0.000000
    20  C    2.832468   3.800597   2.989369   3.057653   0.000000
    21  H    2.955905   3.960998   2.697120   3.297792   1.093352
    22  H    3.806364   4.686816   3.993538   4.079530   1.090755
    23  H    3.051766   4.069374   3.314591   2.874033   1.091331
    24  C    2.809775   3.051827   2.933964   3.781217   2.857974
    25  H    3.776448   4.087089   3.912518   4.659261   3.055723
    26  H    2.886145   3.220790   2.588458   3.897675   3.044114
    27  H    3.096105   2.939156   3.344339   4.110911   3.823298
    28  H    5.148872   5.899386   5.775309   4.842297   3.296997
    29  H    5.124099   5.760429   5.858678   4.852929   3.551268
                   21         22         23         24         25
    21  H    0.000000
    22  H    1.782097   0.000000
    23  H    1.777676   1.775003   0.000000
    24  C    2.956332   3.129760   3.819262   0.000000
    25  H    3.237696   2.932582   4.091552   1.090803   0.000000
    26  H    2.733878   3.449377   4.013407   1.094427   1.788762
    27  H    3.979672   4.125132   4.694783   1.092287   1.766196
    28  H    4.283830   3.012267   2.767222   5.441050   5.341883
    29  H    4.605749   3.284177   3.132689   5.351469   5.251993
                   26         27         28         29
    26  H    0.000000
    27  H    1.781083   0.000000
    28  H    6.050652   6.138404   0.000000
    29  H    6.070552   5.939251   0.749580   0.000000
 Stoichiometry    C6H20P2Pt
 Framework group  C1[X(C6H20P2Pt)]
 Deg. of freedom    81
 Full point group                 C1      NOp   1
 RotChk:  IX=3 Diff= 9.09D-02
 Largest Abelian subgroup         C1      NOp   1
 Largest concise Abelian subgroup C1      NOp   1
                         Standard orientation:                         
 ---------------------------------------------------------------------
 Center     Atomic      Atomic             Coordinates (Angstroms)
 Number     Number       Type             X           Y           Z
 ---------------------------------------------------------------------
      1         78           0        0.000445    0.040049    0.010976
      2         15           0        2.285127    0.043567    0.000522
      3         15           0       -2.284772    0.044764   -0.004087
      4          6           0        3.137179    0.911983    1.364432
      5          1           0        2.867875    0.438862    2.309932
      6          1           0        4.224698    0.900066    1.239464
      7          1           0        2.791568    1.947651    1.396794
      8          6           0        3.026516   -1.617522    0.058208
      9          1           0        2.711035   -2.190606   -0.815193
     10          1           0        4.117690   -1.549060    0.063992
     11          1           0        2.696333   -2.136748    0.959185
     12          6           0        3.117886    0.795542   -1.442670
     13          1           0        2.792364    1.833755   -1.539271
     14          1           0        4.208003    0.767997   -1.344981
     15          1           0        2.813043    0.263789   -2.345288
     16          6           0       -3.168649    0.591803    1.502070
     17          1           0       -2.859062    1.611100    1.743453
     18          1           0       -4.255910    0.565678    1.373617
     19          1           0       -2.879536   -0.050429    2.335573
     20          6           0       -3.034414   -1.586084   -0.303938
     21          1           0       -4.123738   -1.504498   -0.350145
     22          1           0       -2.662181   -1.994528   -1.244344
     23          1           0       -2.764507   -2.264725    0.506986
     24          6           0       -3.078395    1.107401   -1.258518
     25          1           0       -2.799387    0.755823   -2.252701
     26          1           0       -4.168005    1.107550   -1.155960
     27          1           0       -2.709080    2.129160   -1.145796
     28          1           0       -0.297405   -3.402144   -0.019517
     29          1           0        0.255451   -2.896230   -0.035967
 ---------------------------------------------------------------------
 Rotational constants (GHZ):           1.7130811           0.3751255           0.3682919
 Leave Link  202 at Tue Nov 12 08:35:52 2019, MaxMem=  1342177280 cpu:               0.2 elap:               0.0
 (Enter /usr/g16/l301.exe)
 General basis read from cards:  (5D, 7F)
 Centers:       1      2      3
 def2tzvp
 ****
 Centers:       4      8     12     16     20     24      5      6      7      9
 Centers:      10     11     13     14     15     17     18     19     21     22
 Centers:      23     25     26     27     28     29
 def2svp
 ****
 ======================================================================================================
                                       Pseudopotential Parameters
 ======================================================================================================
  Center     Atomic      Valence      Angular      Power
  Number     Number     Electrons     Momentum     of R      Exponent        Coefficient   SO-Coeffient
 ======================================================================================================
    1         78           18
                                      H and up 
                                                     2        1.0000000        0.00000000    0.00000000
                                      S - H
                                                     2       13.4286510      579.22386100    0.00000000
                                                     2        6.7143260       29.66949100    0.00000000
                                      P - H
                                                     2       10.3659440      280.86077400    0.00000000
                                                     2        5.1829720       26.74538200    0.00000000
                                      D - H
                                                     2        7.6004790      120.39644400    0.00000000
                                                     2        3.8002400       15.81092100    0.00000000
                                      F - H
                                                     2        3.3095690       24.31437600    0.00000000
                                      G - H
                                                     2        5.2772890      -24.21867500    0.00000000
    2         15
                                   No pseudopotential on this center.
    3         15
                                   No pseudopotential on this center.
    4          6
                                   No pseudopotential on this center.
    5          1
                                   No pseudopotential on this center.
    6          1
                                   No pseudopotential on this center.
    7          1
                                   No pseudopotential on this center.
    8          6
                                   No pseudopotential on this center.
    9          1
                                   No pseudopotential on this center.
   10          1
                                   No pseudopotential on this center.
   11          1
                                   No pseudopotential on this center.
   12          6
                                   No pseudopotential on this center.
   13          1
                                   No pseudopotential on this center.
   14          1
                                   No pseudopotential on this center.
   15          1
                                   No pseudopotential on this center.
   16          6
                                   No pseudopotential on this center.
   17          1
                                   No pseudopotential on this center.
   18          1
                                   No pseudopotential on this center.
   19          1
                                   No pseudopotential on this center.
   20          6
                                   No pseudopotential on this center.
   21          1
                                   No pseudopotential on this center.
   22          1
                                   No pseudopotential on this center.
   23          1
                                   No pseudopotential on this center.
   24          6
                                   No pseudopotential on this center.
   25          1
                                   No pseudopotential on this center.
   26          1
                                   No pseudopotential on this center.
   27          1
                                   No pseudopotential on this center.
   28          1
                                   No pseudopotential on this center.
   29          1
                                   No pseudopotential on this center.
 ======================================================================================================
 Ernie: Thresh=  0.10000D-02 Tol=  0.10000D-05 Strict=F.
 There are   320 symmetry adapted cartesian basis functions of A   symmetry.
 There are   298 symmetry adapted basis functions of A   symmetry.
   298 basis functions,   503 primitive gaussians,   320 cartesian basis functions
    52 alpha electrons       52 beta electrons
       nuclear repulsion energy       809.8203139279 Hartrees.
 IExCor= 1009 DFT=T Ex+Corr=PBE1PBE ExCW=0 ScaHFX=  0.250000
 ScaDFX=  0.750000  0.750000  1.000000  1.000000 ScalE2=  1.000000  1.000000
 IRadAn=      5 IRanWt=     -1 IRanGd=            0 ICorTp=0 IEmpDi=141
 NAtoms=   29 NActive=   29 NUniq=   29 SFac= 1.00D+00 NAtFMM=   60 NAOKFM=F Big=F
 Integral buffers will be    131072 words long.
 Raffenetti 2 integral format.
 Two-electron integral symmetry is turned on.
 R6Disp:  Grimme-D3(BJ) Dispersion energy=       -0.0300130760 Hartrees.
 Nuclear repulsion after empirical dispersion term =      809.7903008519 Hartrees.
 Force inversion solution in PCM.
 ------------------------------------------------------------------------------
 Polarizable Continuum Model (PCM)
 =================================
 Model                : PCM.
 Atomic radii         : SMD-Coulomb.
 Polarization charges : Total charges.
 Charge compensation  : None.
 Solution method      : Matrix inversion.
 Cavity type          : VdW (van der Waals Surface) (Alpha=1.000).
 Cavity algorithm     : GePol (No added spheres)
                        Default sphere list used, NSphG=   29.
                        Lebedev-Laikov grids with approx.  5.0 points / Ang**2.
                        Smoothing algorithm: York/Karplus (Gamma=1.0000).
                        Polarization charges: spherical gaussians, with
                                              point-specific exponents (IZeta= 3).
                        Self-potential: point-specific (ISelfS= 7).
                        Self-field    : sphere-specific E.n sum rule (ISelfD= 2).
 1st derivatives      : Analytical E(r).r(x)/FMM algorithm (CHGder, D1EAlg=3).
                        Cavity 1st derivative terms included.
 2nd derivatives      : Analytical E(r).r(xy)/FMM algorithm (CHGder, D2EAlg=3).
                        Cavity 2nd derivative terms included.
 Solvent              : Benzene, Eps=   2.270600 Eps(inf)=   2.253301
 ------------------------------------------------------------------------------
 GePol: Number of generator spheres                  =      29
 GePol: Total number of spheres                      =      29
 GePol: Number of exposed spheres                    =      29 (100.00%)
 GePol: Number of points                             =    2188
 GePol: Average weight of points                     =       0.12
 GePol: Minimum weight of points                     =   0.39D-07
 GePol: Maximum weight of points                     =    0.22001
 GePol: Number of points with low weight             =     115
 GePol: Fraction of low-weight points (<1% of avg)   =       5.26%
 GePol: Cavity surface area                          =    264.324 Ang**2
 GePol: Cavity volume                                =    209.877 Ang**3
 ------------------------------------------------------------------------------
 Atomic radii for non-electrostatic terms: SMD-CDS.
 ------------------------------------------------------------------------------
 PCM non-electrostatic energy =         0.0002419221 Hartrees.
 Nuclear repulsion after PCM non-electrostatic terms =      809.7905427740 Hartrees.
 Leave Link  301 at Tue Nov 12 08:35:52 2019, MaxMem=  1342177280 cpu:               2.5 elap:               0.1
 (Enter /usr/g16/l302.exe)
 NPDir=0 NMtPBC=     1 NCelOv=     1 NCel=       1 NClECP=     1 NCelD=      1
         NCelK=      1 NCelE2=     1 NClLst=     1 CellRange=     0.0.
 One-electron integrals computed using PRISM.
 One-electron integral symmetry used in STVInt
   1 Symmetry operations used in ECPInt.
 ECPInt:  NShTT=    9316 NPrTT=   31101 LenC2=    8746 LenP2D=   21673.
 LDataN:  DoStor=T MaxTD1= 8 Len=  415
 NBasis=   298 RedAO= T EigKep=  1.30D-03  NBF=   298
 NBsUse=   298 1.00D-06 EigRej= -1.00D+00 NBFU=   298
 Precomputing XC quadrature grid using
 IXCGrd= 4 IRadAn=           5 IRanWt=          -1 IRanGd=           0 AccXCQ= 0.00D+00.
 Defaulting to unpruned grid for atomic number  78.
 Generated NRdTot=       0 NPtTot=           0 NUsed=           0 NTot=          32
 NSgBfM=   320   320   320   320   320 MxSgAt=    29 MxSgA2=    29.
 Leave Link  302 at Tue Nov 12 08:35:53 2019, MaxMem=  1342177280 cpu:              13.5 elap:               0.6
 (Enter /usr/g16/l303.exe)
 DipDrv:  MaxL=1.
 Leave Link  303 at Tue Nov 12 08:35:53 2019, MaxMem=  1342177280 cpu:               1.2 elap:               0.1
 (Enter /usr/g16/l401.exe)
 ExpMin= 4.92D-02 ExpMax= 5.24D+04 ExpMxC= 1.79D+03 IAcc=3 IRadAn=         5 AccDes= 0.00D+00
 Harris functional with IExCor= 1009 and IRadAn=       5 diagonalized for initial guess.
 HarFok:  IExCor= 1009 AccDes= 0.00D+00 IRadAn=         5 IDoV= 1 UseB2=F ITyADJ=14
 ICtDFT=  3500011 ScaDFX=  1.000000  1.000000  1.000000  1.000000
 Defaulting to unpruned grid for atomic number  78.
 FoFCou: FMM=F IPFlag=           0 FMFlag=      100000 FMFlg1=           0
         NFxFlg=           0 DoJE=T BraDBF=F KetDBF=T FulRan=T
         wScrn=  0.000000 ICntrl=       500 IOpCl=  0 I1Cent=   200000004 NGrid=           0
         NMat0=    1 NMatS0=      1 NMatT0=    0 NMatD0=    1 NMtDS0=    0 NMtDT0=    0
 Petite list used in FoFCou.
 Harris En= -1042.18623190743    
 JPrj=0 DoOrth=F DoCkMO=F.
 Leave Link  401 at Tue Nov 12 08:35:54 2019, MaxMem=  1342177280 cpu:              27.9 elap:               1.2
 (Enter /usr/g16/l502.exe)
 Integral symmetry usage will be decided dynamically.
 Closed shell SCF:
 Using DIIS extrapolation, IDIIS=  1040.
 NGot=  1342177280 LenX=  1341961375 LenY=  1341858534
 Requested convergence on RMS density matrix=1.00D-08 within 128 cycles.
 Requested convergence on MAX density matrix=1.00D-06.
 Requested convergence on             energy=1.00D-06.
 No special actions if energy rises.
 Fock matrices will be formed incrementally for  20 cycles.

 Cycle   1  Pass 1  IDiag  1:
 FoFJK:  IHMeth= 1 ICntrl=       0 DoSepK=F KAlg= 0 I1Cent=           0 FoldK=F
 IRaf= 880000000 NMat=       1 IRICut=       1 DoRegI=T DoRafI=F ISym2E= 0 IDoP0=0 IntGTp=1.
 FoFCou: FMM=F IPFlag=           0 FMFlag=      100000 FMFlg1=           0
         NFxFlg=           0 DoJE=F BraDBF=F KetDBF=F FulRan=T
         wScrn=  0.000000 ICntrl=         0 IOpCl=  0 I1Cent=           0 NGrid=           0
         NMat0=    1 NMatS0=      1 NMatT0=    0 NMatD0=    1 NMtDS0=    0 NMtDT0=    0
 Symmetry not used in FoFCou.
 Defaulting to unpruned grid for atomic number  78.
 Defaulting to unpruned grid for atomic number  78.
 Defaulting to unpruned grid for atomic number  78.
 Defaulting to unpruned grid for atomic number  78.
 Defaulting to unpruned grid for atomic number  78.
 Defaulting to unpruned grid for atomic number  78.
 Defaulting to unpruned grid for atomic number  78.
 Defaulting to unpruned grid for atomic number  78.
 Defaulting to unpruned grid for atomic number  78.
 Defaulting to unpruned grid for atomic number  78.
 Defaulting to unpruned grid for atomic number  78.
 Defaulting to unpruned grid for atomic number  78.
 Defaulting to unpruned grid for atomic number  78.
 Defaulting to unpruned grid for atomic number  78.
 Defaulting to unpruned grid for atomic number  78.
 Defaulting to unpruned grid for atomic number  78.
 Defaulting to unpruned grid for atomic number  78.
 Defaulting to unpruned grid for atomic number  78.
 Defaulting to unpruned grid for atomic number  78.
 Defaulting to unpruned grid for atomic number  78.
 Defaulting to unpruned grid for atomic number  78.
 Defaulting to unpruned grid for atomic number  78.
 Defaulting to unpruned grid for atomic number  78.
 Defaulting to unpruned grid for atomic number  78.
 Inv3:  Mode=1 IEnd=    14362032.
 Iteration    1 A*A^-1 deviation from unit magnitude is 8.10D-15 for    160.
 Iteration    1 A*A^-1 deviation from orthogonality  is 4.38D-15 for   1250    183.
 Iteration    1 A^-1*A deviation from unit magnitude is 8.10D-15 for    157.
 Iteration    1 A^-1*A deviation from orthogonality  is 1.67D-12 for   1564   1423.
 E= -1041.58268217043    
 DIIS: error= 4.34D-02 at cycle   1 NSaved=   1.
 NSaved= 1 IEnMin= 1 EnMin= -1041.58268217043     IErMin= 1 ErrMin= 4.34D-02
 ErrMax= 4.34D-02  0.00D+00 EMaxC= 1.00D-01 BMatC= 6.53D-01 BMatP= 6.53D-01
 IDIUse=3 WtCom= 5.66D-01 WtEn= 4.34D-01
 Coeff-Com:  0.100D+01
 Coeff-En:   0.100D+01
 Coeff:      0.100D+01
 Gap=     0.368 Goal=   None    Shift=    0.000
 GapD=    0.368 DampG=1.000 DampE=0.250 DampFc=0.2500 IDamp=-1.
 Damping current iteration by 2.50D-01
 RMSDP=5.02D-03 MaxDP=2.33D-01              OVMax= 2.23D-01

 Cycle   2  Pass 1  IDiag  1:
 RMSU=  1.25D-03    CP:  9.92D-01
 E= -1041.79458868792     Delta-E=       -0.211906517485 Rises=F Damp=T
 DIIS: error= 1.95D-02 at cycle   2 NSaved=   2.
 NSaved= 2 IEnMin= 2 EnMin= -1041.79458868792     IErMin= 2 ErrMin= 1.95D-02
 ErrMax= 1.95D-02  0.00D+00 EMaxC= 1.00D-01 BMatC= 1.36D-01 BMatP= 6.53D-01
 IDIUse=3 WtCom= 8.05D-01 WtEn= 1.95D-01
 Coeff-Com: -0.709D+00 0.171D+01
 Coeff-En:   0.000D+00 0.100D+01
 Coeff:     -0.571D+00 0.157D+01
 Gap=     0.321 Goal=   None    Shift=    0.000
 RMSDP=1.92D-03 MaxDP=1.83D-01 DE=-2.12D-01 OVMax= 2.07D-01

 Cycle   3  Pass 1  IDiag  1:
 RMSU=  1.68D-03    CP:  9.70D-01  1.68D+00
 E= -1042.11435303809     Delta-E=       -0.319764350169 Rises=F Damp=F
 DIIS: error= 1.26D-02 at cycle   3 NSaved=   3.
 NSaved= 3 IEnMin= 3 EnMin= -1042.11435303809     IErMin= 3 ErrMin= 1.26D-02
 ErrMax= 1.26D-02  0.00D+00 EMaxC= 1.00D-01 BMatC= 3.15D-02 BMatP= 1.36D-01
 IDIUse=3 WtCom= 8.74D-01 WtEn= 1.26D-01
 Coeff-Com: -0.377D+00 0.890D+00 0.486D+00
 Coeff-En:   0.000D+00 0.000D+00 0.100D+01
 Coeff:     -0.329D+00 0.779D+00 0.551D+00
 Gap=     0.203 Goal=   None    Shift=    0.000
 RMSDP=8.71D-04 MaxDP=9.23D-02 DE=-3.20D-01 OVMax= 5.16D-02

 Cycle   4  Pass 1  IDiag  1:
 RMSU=  6.34D-04    CP:  9.75D-01  1.75D+00  6.52D-01
 E= -1042.13761673957     Delta-E=       -0.023263701485 Rises=F Damp=F
 DIIS: error= 6.06D-03 at cycle   4 NSaved=   4.
 NSaved= 4 IEnMin= 4 EnMin= -1042.13761673957     IErMin= 4 ErrMin= 6.06D-03
 ErrMax= 6.06D-03  0.00D+00 EMaxC= 1.00D-01 BMatC= 6.28D-03 BMatP= 3.15D-02
 IDIUse=3 WtCom= 9.39D-01 WtEn= 6.06D-02
 Coeff-Com: -0.174D-01 0.656D-01 0.305D+00 0.647D+00
 Coeff-En:   0.000D+00 0.000D+00 0.159D+00 0.841D+00
 Coeff:     -0.163D-01 0.616D-01 0.296D+00 0.659D+00
 Gap=     0.189 Goal=   None    Shift=    0.000
 RMSDP=2.52D-04 MaxDP=2.13D-02 DE=-2.33D-02 OVMax= 1.53D-02

 Cycle   5  Pass 1  IDiag  1:
 RMSU=  1.14D-04    CP:  9.72D-01  1.73D+00  7.56D-01  7.98D-01
 E= -1042.14250463027     Delta-E=       -0.004887890697 Rises=F Damp=F
 DIIS: error= 4.68D-04 at cycle   5 NSaved=   5.
 NSaved= 5 IEnMin= 5 EnMin= -1042.14250463027     IErMin= 5 ErrMin= 4.68D-04
 ErrMax= 4.68D-04  0.00D+00 EMaxC= 1.00D-01 BMatC= 8.35D-05 BMatP= 6.28D-03
 IDIUse=3 WtCom= 9.95D-01 WtEn= 4.68D-03
 Coeff-Com:  0.127D-01-0.179D-01 0.837D-01 0.230D+00 0.692D+00
 Coeff-En:   0.000D+00 0.000D+00 0.000D+00 0.000D+00 0.100D+01
 Coeff:      0.126D-01-0.179D-01 0.834D-01 0.229D+00 0.693D+00
 Gap=     0.189 Goal=   None    Shift=    0.000
 RMSDP=3.53D-05 MaxDP=1.24D-03 DE=-4.89D-03 OVMax= 2.22D-03

 Cycle   6  Pass 1  IDiag  1:
 RMSU=  1.85D-05    CP:  9.72D-01  1.72D+00  7.61D-01  8.14D-01  7.67D-01
 E= -1042.14259458205     Delta-E=       -0.000089951785 Rises=F Damp=F
 DIIS: error= 1.01D-04 at cycle   6 NSaved=   6.
 NSaved= 6 IEnMin= 6 EnMin= -1042.14259458205     IErMin= 6 ErrMin= 1.01D-04
 ErrMax= 1.01D-04  0.00D+00 EMaxC= 1.00D-01 BMatC= 1.49D-06 BMatP= 8.35D-05
 IDIUse=3 WtCom= 9.99D-01 WtEn= 1.01D-03
 Coeff-Com:  0.343D-02-0.555D-02 0.567D-02 0.126D-01 0.105D+00 0.879D+00
 Coeff-En:   0.000D+00 0.000D+00 0.000D+00 0.000D+00 0.000D+00 0.100D+01
 Coeff:      0.342D-02-0.555D-02 0.567D-02 0.126D-01 0.105D+00 0.879D+00
 Gap=     0.188 Goal=   None    Shift=    0.000
 RMSDP=6.72D-06 MaxDP=7.14D-04 DE=-9.00D-05 OVMax= 4.21D-04

 Cycle   7  Pass 1  IDiag  1:
 RMSU=  3.56D-06    CP:  9.72D-01  1.72D+00  7.64D-01  8.15D-01  7.91D-01
                    CP:  9.62D-01
 E= -1042.14259591601     Delta-E=       -0.000001333959 Rises=F Damp=F
 DIIS: error= 9.99D-06 at cycle   7 NSaved=   7.
 NSaved= 7 IEnMin= 7 EnMin= -1042.14259591601     IErMin= 7 ErrMin= 9.99D-06
 ErrMax= 9.99D-06  0.00D+00 EMaxC= 1.00D-01 BMatC= 7.63D-08 BMatP= 1.49D-06
 IDIUse=1 WtCom= 1.00D+00 WtEn= 0.00D+00
 Coeff-Com:  0.665D-03-0.117D-02-0.446D-04-0.114D-02 0.172D-01 0.298D+00
 Coeff-Com:  0.687D+00
 Coeff:      0.665D-03-0.117D-02-0.446D-04-0.114D-02 0.172D-01 0.298D+00
 Coeff:      0.687D+00
 Gap=     0.188 Goal=   None    Shift=    0.000
 RMSDP=1.59D-06 MaxDP=1.04D-04 DE=-1.33D-06 OVMax= 8.20D-05

 Cycle   8  Pass 1  IDiag  1:
 RMSU=  1.09D-06    CP:  9.72D-01  1.72D+00  7.64D-01  8.15D-01  7.93D-01
                    CP:  1.00D+00  8.02D-01
 E= -1042.14259599017     Delta-E=       -0.000000074157 Rises=F Damp=F
 DIIS: error= 5.17D-06 at cycle   8 NSaved=   8.
 NSaved= 8 IEnMin= 8 EnMin= -1042.14259599017     IErMin= 8 ErrMin= 5.17D-06
 ErrMax= 5.17D-06  0.00D+00 EMaxC= 1.00D-01 BMatC= 1.55D-08 BMatP= 7.63D-08
 IDIUse=1 WtCom= 1.00D+00 WtEn= 0.00D+00
 Coeff-Com: -0.123D-03 0.175D-03-0.806D-03-0.251D-02-0.440D-02 0.527D-01
 Coeff-Com:  0.341D+00 0.614D+00
 Coeff:     -0.123D-03 0.175D-03-0.806D-03-0.251D-02-0.440D-02 0.527D-01
 Coeff:      0.341D+00 0.614D+00
 Gap=     0.188 Goal=   None    Shift=    0.000
 RMSDP=4.68D-07 MaxDP=3.13D-05 DE=-7.42D-08 OVMax= 3.81D-05

 Cycle   9  Pass 1  IDiag  1:
 RMSU=  2.83D-07    CP:  9.72D-01  1.72D+00  7.64D-01  8.15D-01  7.93D-01
                    CP:  1.00D+00  8.60D-01  7.52D-01
 E= -1042.14259600473     Delta-E=       -0.000000014561 Rises=F Damp=F
 DIIS: error= 1.37D-06 at cycle   9 NSaved=   9.
 NSaved= 9 IEnMin= 9 EnMin= -1042.14259600473     IErMin= 9 ErrMin= 1.37D-06
 ErrMax= 1.37D-06  0.00D+00 EMaxC= 1.00D-01 BMatC= 9.00D-10 BMatP= 1.55D-08
 IDIUse=1 WtCom= 1.00D+00 WtEn= 0.00D+00
 Coeff-Com: -0.791D-04 0.126D-03-0.403D-03-0.124D-02-0.285D-02 0.122D-01
 Coeff-Com:  0.129D+00 0.284D+00 0.580D+00
 Coeff:     -0.791D-04 0.126D-03-0.403D-03-0.124D-02-0.285D-02 0.122D-01
 Coeff:      0.129D+00 0.284D+00 0.580D+00
 Gap=     0.188 Goal=   None    Shift=    0.000
 RMSDP=1.38D-07 MaxDP=1.05D-05 DE=-1.46D-08 OVMax= 8.94D-06

 Cycle  10  Pass 1  IDiag  1:
 RMSU=  9.89D-08    CP:  9.72D-01  1.72D+00  7.64D-01  8.15D-01  7.93D-01
                    CP:  1.00D+00  8.71D-01  7.73D-01  7.80D-01
 E= -1042.14259600558     Delta-E=       -0.000000000852 Rises=F Damp=F
 DIIS: error= 4.10D-07 at cycle  10 NSaved=  10.
 NSaved=10 IEnMin=10 EnMin= -1042.14259600558     IErMin=10 ErrMin= 4.10D-07
 ErrMax= 4.10D-07  0.00D+00 EMaxC= 1.00D-01 BMatC= 8.40D-11 BMatP= 9.00D-10
 IDIUse=1 WtCom= 1.00D+00 WtEn= 0.00D+00
 Coeff-Com: -0.299D-05 0.808D-05-0.201D-04-0.635D-04-0.387D-03-0.555D-02
 Coeff-Com: -0.835D-02 0.750D-02 0.227D+00 0.780D+00
 Coeff:     -0.299D-05 0.808D-05-0.201D-04-0.635D-04-0.387D-03-0.555D-02
 Coeff:     -0.835D-02 0.750D-02 0.227D+00 0.780D+00
 Gap=     0.188 Goal=   None    Shift=    0.000
 RMSDP=4.88D-08 MaxDP=4.82D-06 DE=-8.52D-10 OVMax= 3.71D-06

 Cycle  11  Pass 1  IDiag  1:
 RMSU=  2.15D-08    CP:  9.72D-01  1.72D+00  7.64D-01  8.15D-01  7.93D-01
                    CP:  1.00D+00  8.75D-01  7.87D-01  8.80D-01  9.60D-01
 E= -1042.14259600563     Delta-E=       -0.000000000047 Rises=F Damp=F
 DIIS: error= 6.04D-08 at cycle  11 NSaved=  11.
 NSaved=11 IEnMin=11 EnMin= -1042.14259600563     IErMin=11 ErrMin= 6.04D-08
 ErrMax= 6.04D-08  0.00D+00 EMaxC= 1.00D-01 BMatC= 3.04D-12 BMatP= 8.40D-11
 IDIUse=1 WtCom= 1.00D+00 WtEn= 0.00D+00
 Coeff-Com:  0.173D-05-0.146D-05 0.524D-05 0.147D-04-0.725D-04-0.256D-02
 Coeff-Com: -0.723D-02-0.486D-02 0.733D-01 0.299D+00 0.643D+00
 Coeff:      0.173D-05-0.146D-05 0.524D-05 0.147D-04-0.725D-04-0.256D-02
 Coeff:     -0.723D-02-0.486D-02 0.733D-01 0.299D+00 0.643D+00
 Gap=     0.188 Goal=   None    Shift=    0.000
 RMSDP=9.68D-09 MaxDP=7.07D-07 DE=-4.66D-11 OVMax= 7.09D-07

 Error on total polarization charges =  0.04182
 SCF Done:  E(RPBE1PBE) =  -1042.14259601     A.U. after   11 cycles
            NFock= 11  Conv=0.97D-08     -V/T= 2.0868
 KE= 9.589301664210D+02 PE=-4.047457125883D+03 EE= 1.236593820683D+03
 SMD-CDS (non-electrostatic) energy       (kcal/mol) =       0.15
 (included in total energy above)
 Leave Link  502 at Tue Nov 12 08:36:28 2019, MaxMem=  1342177280 cpu:             766.1 elap:              33.2
 (Enter /usr/g16/l801.exe)
 DoSCS=F DFT=T ScalE2(SS,OS)=  1.000000  1.000000
 Range of M.O.s used for correlation:     1   298
 NBasis=   298 NAE=    52 NBE=    52 NFC=     0 NFV=     0
 NROrb=    298 NOA=    52 NOB=    52 NVA=   246 NVB=   246

 **** Warning!!: The largest alpha MO coefficient is  0.10487317D+02

 Leave Link  801 at Tue Nov 12 08:36:28 2019, MaxMem=  1342177280 cpu:               0.5 elap:               0.0
 (Enter /usr/g16/l1101.exe)
 Using compressed storage, NAtomX=    29.
 Will process     30 centers per pass.
   1 Symmetry operations used in ECPInt.
 ECPInt:  NShTT=    9316 NPrTT=   31101 LenC2=    8746 LenP2D=   21673.
 LDataN:  DoStor=T MaxTD1= 9 Len=  602
 Number of processors reduced to  16 by ecpmxn.
 R6Disp: Adding Grimme-D3(BJ) dispersion energy 1st derivatives to the gradient.
 Leave Link 1101 at Tue Nov 12 08:36:29 2019, MaxMem=  1342177280 cpu:              29.2 elap:               1.6
 (Enter /usr/g16/l1102.exe)
 Symmetrizing basis deriv contribution to polar:
 IMax=3 JMax=2 DiffMx= 0.00D+00
 Leave Link 1102 at Tue Nov 12 08:36:29 2019, MaxMem=  1342177280 cpu:               1.1 elap:               0.1
 (Enter /usr/g16/l1110.exe)
 Forming Gx(P) for the SCF density, NAtomX=    29.
 Integral derivatives from FoFJK, PRISM(SPDF).
 Do as many integral derivatives as possible in FoFJK.
 G2DrvN: MDV=    1342175056.
 G2DrvN: will do    30 centers at a time, making    1 passes.
 Calling FoFCou, ICntrl=  3107 FMM=F I1Cent=   0 AccDes= 0.00D+00.
 FoFJK:  IHMeth= 1 ICntrl=    3107 DoSepK=F KAlg= 0 I1Cent=           0 FoldK=F
 IRaf=         0 NMat=       1 IRICut=       1 DoRegI=T DoRafI=F ISym2E= 0 IDoP0=0 IntGTp=1.
 FoFCou: FMM=F IPFlag=           0 FMFlag=      100000 FMFlg1=           0
         NFxFlg=           0 DoJE=F BraDBF=F KetDBF=F FulRan=T
         wScrn=  0.000000 ICntrl=      3107 IOpCl=  0 I1Cent=           0 NGrid=           0
         NMat0=    1 NMatS0=      1 NMatT0=    0 NMatD0=    1 NMtDS0=    0 NMtDT0=    0
 Symmetry not used in FoFCou.
 Defaulting to unpruned grid for atomic number  78.
 Defaulting to unpruned grid for atomic number  78.
 Defaulting to unpruned grid for atomic number  78.
 Defaulting to unpruned grid for atomic number  78.
 Defaulting to unpruned grid for atomic number  78.
 Defaulting to unpruned grid for atomic number  78.
 Defaulting to unpruned grid for atomic number  78.
 Defaulting to unpruned grid for atomic number  78.
 Defaulting to unpruned grid for atomic number  78.
 Defaulting to unpruned grid for atomic number  78.
 Defaulting to unpruned grid for atomic number  78.
 Defaulting to unpruned grid for atomic number  78.
 Defaulting to unpruned grid for atomic number  78.
 Defaulting to unpruned grid for atomic number  78.
 Defaulting to unpruned grid for atomic number  78.
 Defaulting to unpruned grid for atomic number  78.
 Defaulting to unpruned grid for atomic number  78.
 Defaulting to unpruned grid for atomic number  78.
 Defaulting to unpruned grid for atomic number  78.
 Defaulting to unpruned grid for atomic number  78.
 Defaulting to unpruned grid for atomic number  78.
 Defaulting to unpruned grid for atomic number  78.
 Defaulting to unpruned grid for atomic number  78.
 Defaulting to unpruned grid for atomic number  78.
 NEqPCM:  Using equilibrium solvation (IEInf=0, Eps=   2.2706, EpsInf=   2.2533)
 G2PCM: DoFxE=T DoFxN=T DoGrad=T DoDP/DQ/DG/TGxP=FFFF NFrqRd=   0 IEInf=0 SqF1=F DoCFld=F IF1Alg=4.
 GePol: Maximum number of non-zero 1st derivatives   =     238
 End of G2Drv F.D. properties file   721 does not exist.
 End of G2Drv F.D. properties file   722 does not exist.
 End of G2Drv F.D. properties file   788 does not exist.
 Leave Link 1110 at Tue Nov 12 08:37:39 2019, MaxMem=  1342177280 cpu:            1667.2 elap:              69.6
 (Enter /usr/g16/l1002.exe)
 Minotr:  Closed shell wavefunction.
          IDoAtm=11111111111111111111111111111
 NEqPCM:  Using equilibrium solvation (IEInf=0, Eps=   2.2706, EpsInf=   2.2533)
          Direct CPHF calculation.
          Differentiating once with respect to nuclear coordinates.
          Requested convergence is 1.0D-08 RMS, and 1.0D-07 maximum.
          Secondary convergence is 1.0D-12 RMS, and 1.0D-12 maximum.
          NewPWx=T KeepS1=F KeepF1=F KeepIn=T MapXYZ=F SortEE=F KeepMc=T.
 Defaulting to unpruned grid for atomic number  78.
         8720 words used for storage of precomputed grid.
 Keep R1 ints in memory in canonical form, NReq=1020066213.
 FoFCou: FMM=F IPFlag=           0 FMFlag=           0 FMFlg1=           0
         NFxFlg=           0 DoJE=F BraDBF=F KetDBF=F FulRan=T
         wScrn=  0.000000 ICntrl=       600 IOpCl=  0 I1Cent=           0 NGrid=           0
         NMat0=    1 NMatS0=  44551 NMatT0=    0 NMatD0=    1 NMtDS0=    0 NMtDT0=    0
 Symmetry not used in FoFCou.
 Two-electron integral symmetry not used.
          MDV=    1342177280 using IRadAn=       1.
          Solving linear equations simultaneously, MaxMat=       0.
 Defaulting to unpruned grid for atomic number  78.
 Defaulting to unpruned grid for atomic number  78.
 Defaulting to unpruned grid for atomic number  78.
 Defaulting to unpruned grid for atomic number  78.
 Defaulting to unpruned grid for atomic number  78.
 Defaulting to unpruned grid for atomic number  78.
 Defaulting to unpruned grid for atomic number  78.
 Defaulting to unpruned grid for atomic number  78.
 Defaulting to unpruned grid for atomic number  78.
 Defaulting to unpruned grid for atomic number  78.
 Defaulting to unpruned grid for atomic number  78.
 Defaulting to unpruned grid for atomic number  78.
 Defaulting to unpruned grid for atomic number  78.
 Defaulting to unpruned grid for atomic number  78.
 Defaulting to unpruned grid for atomic number  78.
 Defaulting to unpruned grid for atomic number  78.
 Defaulting to unpruned grid for atomic number  78.
 Defaulting to unpruned grid for atomic number  78.
 Defaulting to unpruned grid for atomic number  78.
 Defaulting to unpruned grid for atomic number  78.
 Defaulting to unpruned grid for atomic number  78.
 Defaulting to unpruned grid for atomic number  78.
 Defaulting to unpruned grid for atomic number  78.
 Defaulting to unpruned grid for atomic number  78.
 CoulSu:  requested number of processors reduced to:  19 ShMem   1 Linda.
          There are    90 degrees of freedom in the 1st order CPHF.  IDoFFX=6 NUNeed=     0.
     84 vectors produced by pass  0 Test12= 1.42D-14 1.11D-09 XBig12= 9.81D-02 1.30D-01.
 AX will form    84 AO Fock derivatives at one time.
 CoulSu:  requested number of processors reduced to:  20 ShMem   1 Linda.
     84 vectors produced by pass  1 Test12= 1.42D-14 1.11D-09 XBig12= 2.62D-02 5.39D-02.
 CoulSu:  requested number of processors reduced to:  20 ShMem   1 Linda.
     84 vectors produced by pass  2 Test12= 1.42D-14 1.11D-09 XBig12= 3.75D-04 7.30D-03.
 CoulSu:  requested number of processors reduced to:  20 ShMem   1 Linda.
     84 vectors produced by pass  3 Test12= 1.42D-14 1.11D-09 XBig12= 3.44D-06 4.15D-04.
 CoulSu:  requested number of processors reduced to:  20 ShMem   1 Linda.
     84 vectors produced by pass  4 Test12= 1.42D-14 1.11D-09 XBig12= 4.29D-08 2.96D-05.
 CoulSu:  requested number of processors reduced to:  20 ShMem   1 Linda.
     72 vectors produced by pass  5 Test12= 1.42D-14 1.11D-09 XBig12= 9.77D-11 2.25D-06.
 CoulSu:  requested number of processors reduced to:  23 ShMem   1 Linda.
     19 vectors produced by pass  6 Test12= 1.42D-14 1.11D-09 XBig12= 9.90D-14 5.38D-08.
 InvSVY:  IOpt=1 It=  1 EMax= 4.44D-16
 Solved reduced A of dimension   511 with    90 vectors.
 End of Minotr F.D. properties file   721 does not exist.
 End of Minotr F.D. properties file   722 does not exist.
 End of Minotr F.D. properties file   788 does not exist.
 Leave Link 1002 at Tue Nov 12 08:38:58 2019, MaxMem=  1342177280 cpu:            1875.7 elap:              78.9
 (Enter /usr/g16/l601.exe)
 Copying SCF densities to generalized density rwf, IOpCl= 0 IROHF=0.

 **********************************************************************

            Population analysis using the SCF density.

 **********************************************************************

 Orbital symmetries:
       Occupied  (A) (A) (A) (A) (A) (A) (A) (A) (A) (A) (A) (A)
                 (A) (A) (A) (A) (A) (A) (A) (A) (A) (A) (A) (A)
                 (A) (A) (A) (A) (A) (A) (A) (A) (A) (A) (A) (A)
                 (A) (A) (A) (A) (A) (A) (A) (A) (A) (A) (A) (A)
                 (A) (A) (A) (A)
       Virtual   (A) (A) (A) (A) (A) (A) (A) (A) (A) (A) (A) (A)
                 (A) (A) (A) (A) (A) (A) (A) (A) (A) (A) (A) (A)
                 (A) (A) (A) (A) (A) (A) (A) (A) (A) (A) (A) (A)
                 (A) (A) (A) (A) (A) (A) (A) (A) (A) (A) (A) (A)
                 (A) (A) (A) (A) (A) (A) (A) (A) (A) (A) (A) (A)
                 (A) (A) (A) (A) (A) (A) (A) (A) (A) (A) (A) (A)
                 (A) (A) (A) (A) (A) (A) (A) (A) (A) (A) (A) (A)
                 (A) (A) (A) (A) (A) (A) (A) (A) (A) (A) (A) (A)
                 (A) (A) (A) (A) (A) (A) (A) (A) (A) (A) (A) (A)
                 (A) (A) (A) (A) (A) (A) (A) (A) (A) (A) (A) (A)
                 (A) (A) (A) (A) (A) (A) (A) (A) (A) (A) (A) (A)
                 (A) (A) (A) (A) (A) (A) (A) (A) (A) (A) (A) (A)
                 (A) (A) (A) (A) (A) (A) (A) (A) (A) (A) (A) (A)
                 (A) (A) (A) (A) (A) (A) (A) (A) (A) (A) (A) (A)
                 (A) (A) (A) (A) (A) (A) (A) (A) (A) (A) (A) (A)
                 (A) (A) (A) (A) (A) (A) (A) (A) (A) (A) (A) (A)
                 (A) (A) (A) (A) (A) (A) (A) (A) (A) (A) (A) (A)
                 (A) (A) (A) (A) (A) (A) (A) (A) (A) (A) (A) (A)
                 (A) (A) (A) (A) (A) (A) (A) (A) (A) (A) (A) (A)
                 (A) (A) (A) (A) (A) (A) (A) (A) (A) (A) (A) (A)
                 (A) (A) (A) (A) (A) (A)
 The electronic state is 1-A.
 Alpha  occ. eigenvalues --  -77.21201 -77.21150 -10.22433 -10.22415 -10.22415
 Alpha  occ. eigenvalues --  -10.22401 -10.22373 -10.22327  -6.60566  -6.60519
 Alpha  occ. eigenvalues --   -4.74170  -4.74162  -4.74124  -4.74113  -4.73820
 Alpha  occ. eigenvalues --   -4.73773  -3.86354  -2.11753  -2.08897  -2.08847
 Alpha  occ. eigenvalues --   -0.78311  -0.78130  -0.70240  -0.70177  -0.70001
 Alpha  occ. eigenvalues --   -0.69964  -0.55697  -0.54370  -0.45657  -0.44934
 Alpha  occ. eigenvalues --   -0.43763  -0.43672  -0.43603  -0.43538  -0.42190
 Alpha  occ. eigenvalues --   -0.41058  -0.40845  -0.40782  -0.40432  -0.39287
 Alpha  occ. eigenvalues --   -0.39231  -0.35280  -0.34567  -0.34233  -0.34137
 Alpha  occ. eigenvalues --   -0.33826  -0.25068  -0.22220  -0.22105  -0.18964
 Alpha  occ. eigenvalues --   -0.18946  -0.18516
 Alpha virt. eigenvalues --    0.00321   0.01214   0.05897   0.06639   0.08344
 Alpha virt. eigenvalues --    0.09579   0.10279   0.10638   0.11149   0.11312
 Alpha virt. eigenvalues --    0.12064   0.13044   0.13125   0.13997   0.14225
 Alpha virt. eigenvalues --    0.14823   0.15694   0.15935   0.16520   0.16675
 Alpha virt. eigenvalues --    0.16833   0.17125   0.17703   0.18190   0.18642
 Alpha virt. eigenvalues --    0.19052   0.19253   0.19901   0.22210   0.26230
 Alpha virt. eigenvalues --    0.29785   0.30141   0.31629   0.31772   0.32561
 Alpha virt. eigenvalues --    0.33022   0.34000   0.35130   0.35606   0.35777
 Alpha virt. eigenvalues --    0.40147   0.41515   0.43681   0.45428   0.46802
 Alpha virt. eigenvalues --    0.47238   0.47467   0.47588   0.50159   0.50324
 Alpha virt. eigenvalues --    0.51203   0.51595   0.52750   0.52816   0.54451
 Alpha virt. eigenvalues --    0.57278   0.58221   0.60125   0.61858   0.62116
 Alpha virt. eigenvalues --    0.62937   0.63054   0.63756   0.64173   0.65034
 Alpha virt. eigenvalues --    0.65434   0.65841   0.69041   0.69430   0.69614
 Alpha virt. eigenvalues --    0.69660   0.70428   0.70657   0.71072   0.71632
 Alpha virt. eigenvalues --    0.71938   0.72360   0.72452   0.72919   0.75316
 Alpha virt. eigenvalues --    0.75920   0.76168   0.76459   0.76766   0.77023
 Alpha virt. eigenvalues --    0.77431   0.78447   0.81504   0.82445   0.82938
 Alpha virt. eigenvalues --    0.83685   0.84095   0.87484   0.90380   0.94931
 Alpha virt. eigenvalues --    1.00350   1.00829   1.03038   1.03441   1.05251
 Alpha virt. eigenvalues --    1.05327   1.12604   1.13104   1.13579   1.15156
 Alpha virt. eigenvalues --    1.15924   1.18201   1.20726   1.23879   1.26115
 Alpha virt. eigenvalues --    1.26210   1.28010   1.30106   1.30585   1.32042
 Alpha virt. eigenvalues --    1.32680   1.34913   1.35774   1.36455   1.39954
 Alpha virt. eigenvalues --    1.42609   1.44752   1.45966   1.46708   1.50225
 Alpha virt. eigenvalues --    1.53170   1.54270   1.54344   1.54675   1.54995
 Alpha virt. eigenvalues --    1.55836   1.55984   1.56348   1.56550   1.57354
 Alpha virt. eigenvalues --    1.57853   1.61661   1.62731   1.63554   1.63603
 Alpha virt. eigenvalues --    1.64001   1.67866   1.67957   1.68594   1.68681
 Alpha virt. eigenvalues --    1.69262   1.70103   1.70617   1.74302   1.74596
 Alpha virt. eigenvalues --    1.78234   1.78338   1.78708   1.79206   1.81520
 Alpha virt. eigenvalues --    1.81873   1.84564   1.85203   1.86443   1.86994
 Alpha virt. eigenvalues --    1.87600   1.87690   1.89621   1.90367   1.90562
 Alpha virt. eigenvalues --    1.90968   1.91172   1.91665   1.93867   1.98356
 Alpha virt. eigenvalues --    1.99270   2.00032   2.02189   2.02810   2.03445
 Alpha virt. eigenvalues --    2.03693   2.06751   2.10099   2.10672   2.11095
 Alpha virt. eigenvalues --    2.11468   2.12350   2.12758   2.13208   2.13924
 Alpha virt. eigenvalues --    2.14100   2.14382   2.14624   2.15092   2.17653
 Alpha virt. eigenvalues --    2.17948   2.18314   2.18751   2.34938   2.40507
 Alpha virt. eigenvalues --    2.40564   2.41143   2.41378   2.42270   2.43575
 Alpha virt. eigenvalues --    2.48477   2.50560   2.50747   2.51758   2.51929
 Alpha virt. eigenvalues --    2.56211   2.56230   2.57227   2.58001   2.58580
 Alpha virt. eigenvalues --    2.58886   2.59474   2.62739   2.76485   2.79180
 Alpha virt. eigenvalues --    2.79411   2.80140   2.80272   2.80444   2.94628
 Alpha virt. eigenvalues --    2.95665   2.95705   2.96690   2.96753   2.97210
 Alpha virt. eigenvalues --    2.97341   3.04187   3.04877   3.05757   3.05770
 Alpha virt. eigenvalues --    3.06476   3.09075   3.46313   7.51634   7.52644
 Alpha virt. eigenvalues --    7.52811   7.53717   7.58863   7.77582  13.76437
 Alpha virt. eigenvalues --   13.88939  26.72631  26.88696  33.15257  52.25862
 Alpha virt. eigenvalues --  285.08693
          Condensed to atoms (all electrons):
               1          2          3          4          5          6
     1  Pt  17.978777   0.292981   0.289632  -0.023627   0.000223   0.003378
     2  P    0.292981  13.970787  -0.046997   0.416616  -0.010122  -0.015870
     3  P    0.289632  -0.046997  13.965276   0.000448  -0.000015  -0.000029
     4  C   -0.023627   0.416616   0.000448   4.597302   0.372416   0.359762
     5  H    0.000223  -0.010122  -0.000015   0.372416   0.596326  -0.019372
     6  H    0.003378  -0.015870  -0.000029   0.359762  -0.019372   0.640030
     7  H   -0.000995  -0.010873   0.000001   0.375567  -0.013837  -0.020010
     8  C   -0.027608   0.414854   0.000597  -0.040734  -0.001493  -0.004203
     9  H   -0.004435  -0.007350  -0.000009   0.003755  -0.000055  -0.000129
    10  H    0.004260  -0.016501  -0.000039  -0.004629  -0.000230   0.005753
    11  H   -0.003830  -0.007897  -0.000003  -0.001086   0.001299  -0.000296
    12  C   -0.023408   0.416604   0.000459  -0.044173   0.004055  -0.005260
    13  H   -0.000954  -0.011133  -0.000005  -0.000470  -0.000081  -0.000345
    14  H    0.003418  -0.016256  -0.000029  -0.005180  -0.000073   0.006894
    15  H    0.000116  -0.010419  -0.000017   0.004077  -0.000165  -0.000071
    16  C   -0.022610   0.000426   0.416683  -0.000004   0.000001   0.000000
    17  H   -0.000685  -0.000005  -0.011150   0.000001  -0.000000  -0.000000
    18  H    0.003284  -0.000027  -0.015967   0.000000  -0.000000  -0.000000
    19  H   -0.000226  -0.000013  -0.010719   0.000001   0.000000  -0.000000
    20  C   -0.025625   0.000585   0.414175   0.000000  -0.000000   0.000000
    21  H    0.003935  -0.000038  -0.015950   0.000000   0.000000  -0.000000
    22  H   -0.001884  -0.000009  -0.008670  -0.000000  -0.000000   0.000000
    23  H   -0.002633  -0.000009  -0.008177   0.000000   0.000000  -0.000000
    24  C   -0.025265   0.000489   0.416650  -0.000000  -0.000000   0.000000
    25  H    0.000319  -0.000023  -0.010013  -0.000000  -0.000000   0.000000
    26  H    0.003597  -0.000031  -0.015207   0.000000   0.000000  -0.000000
    27  H   -0.001121   0.000003  -0.010880   0.000000  -0.000000   0.000000
    28  H   -0.010953  -0.001851  -0.001923  -0.000000  -0.000000  -0.000001
    29  H    0.015989  -0.001861  -0.001894   0.000021  -0.000010  -0.000001
               7          8          9         10         11         12
     1  Pt  -0.000995  -0.027608  -0.004435   0.004260  -0.003830  -0.023408
     2  P   -0.010873   0.414854  -0.007350  -0.016501  -0.007897   0.416604
     3  P    0.000001   0.000597  -0.000009  -0.000039  -0.000003   0.000459
     4  C    0.375567  -0.040734   0.003755  -0.004629  -0.001086  -0.044173
     5  H   -0.013837  -0.001493  -0.000055  -0.000230   0.001299   0.004055
     6  H   -0.020010  -0.004203  -0.000129   0.005753  -0.000296  -0.005260
     7  H    0.592857   0.003782  -0.000138  -0.000125  -0.000073  -0.000474
     8  C    0.003782   4.597931   0.374206   0.353913   0.375187  -0.041164
     9  H   -0.000138   0.374206   0.592643  -0.019477  -0.015396  -0.001211
    10  H   -0.000125   0.353913  -0.019477   0.649173  -0.019682  -0.004469
    11  H   -0.000073   0.375187  -0.015396  -0.019682   0.592420   0.003775
    12  C   -0.000474  -0.041164  -0.001211  -0.004469   0.003775   4.597845
    13  H    0.000973   0.003822  -0.000067  -0.000128  -0.000140   0.375292
    14  H   -0.000349  -0.004250  -0.000299   0.005793  -0.000126   0.359873
    15  H   -0.000084  -0.001387   0.001394  -0.000274  -0.000055   0.372918
    16  C    0.000000  -0.000000  -0.000000   0.000000   0.000000   0.000000
    17  H    0.000000  -0.000000  -0.000000   0.000000  -0.000000  -0.000000
    18  H    0.000000   0.000000  -0.000000  -0.000000  -0.000000   0.000000
    19  H   -0.000000   0.000000   0.000000  -0.000000   0.000000  -0.000000
    20  C   -0.000000  -0.000008   0.000001   0.000000   0.000000  -0.000000
    21  H    0.000000   0.000000  -0.000000  -0.000000  -0.000000   0.000000
    22  H   -0.000000   0.000001   0.000002  -0.000000  -0.000000   0.000000
    23  H   -0.000000   0.000002   0.000000  -0.000000   0.000001  -0.000000
    24  C    0.000000   0.000000   0.000000   0.000000  -0.000000  -0.000005
    25  H   -0.000000  -0.000000   0.000000  -0.000000  -0.000000   0.000001
    26  H    0.000000   0.000000  -0.000000  -0.000000   0.000000   0.000000
    27  H    0.000000  -0.000000  -0.000000   0.000000  -0.000000   0.000000
    28  H    0.000000  -0.000699  -0.000177   0.000013  -0.000176   0.000002
    29  H   -0.000000   0.002144   0.002441  -0.000028   0.001749   0.000016
              13         14         15         16         17         18
     1  Pt  -0.000954   0.003418   0.000116  -0.022610  -0.000685   0.003284
     2  P   -0.011133  -0.016256  -0.010419   0.000426  -0.000005  -0.000027
     3  P   -0.000005  -0.000029  -0.000017   0.416683  -0.011150  -0.015967
     4  C   -0.000470  -0.005180   0.004077  -0.000004   0.000001   0.000000
     5  H   -0.000081  -0.000073  -0.000165   0.000001  -0.000000  -0.000000
     6  H   -0.000345   0.006894  -0.000071   0.000000  -0.000000  -0.000000
     7  H    0.000973  -0.000349  -0.000084   0.000000   0.000000   0.000000
     8  C    0.003822  -0.004250  -0.001387  -0.000000  -0.000000   0.000000
     9  H   -0.000067  -0.000299   0.001394  -0.000000  -0.000000  -0.000000
    10  H   -0.000128   0.005793  -0.000274   0.000000   0.000000  -0.000000
    11  H   -0.000140  -0.000126  -0.000055   0.000000  -0.000000  -0.000000
    12  C    0.375292   0.359873   0.372918   0.000000  -0.000000   0.000000
    13  H    0.594119  -0.020029  -0.013848  -0.000000   0.000000   0.000000
    14  H   -0.020029   0.640509  -0.019427   0.000000   0.000000  -0.000000
    15  H   -0.013848  -0.019427   0.596188  -0.000000  -0.000000   0.000000
    16  C   -0.000000   0.000000  -0.000000   4.599595   0.374474   0.360976
    17  H    0.000000   0.000000  -0.000000   0.374474   0.595277  -0.020058
    18  H    0.000000  -0.000000   0.000000   0.360976  -0.020058   0.638778
    19  H   -0.000000   0.000000  -0.000000   0.372974  -0.013929  -0.019522
    20  C   -0.000000   0.000000   0.000000  -0.041859   0.003898  -0.004399
    21  H    0.000000  -0.000000   0.000000  -0.004394  -0.000128   0.005825
    22  H   -0.000000  -0.000000   0.000000   0.003827  -0.000144  -0.000111
    23  H   -0.000000  -0.000000  -0.000000  -0.001190  -0.000054  -0.000269
    24  C    0.000001   0.000000   0.000001  -0.043950  -0.000486  -0.005231
    25  H   -0.000000  -0.000000   0.000000   0.004033  -0.000079  -0.000075
    26  H   -0.000000  -0.000000  -0.000000  -0.005321  -0.000347   0.006877
    27  H    0.000000   0.000000  -0.000000  -0.000468   0.000946  -0.000361
    28  H    0.000000  -0.000001  -0.000001   0.000020  -0.000001  -0.000004
    29  H   -0.000000  -0.000001  -0.000018  -0.000009   0.000001  -0.000000
              19         20         21         22         23         24
     1  Pt  -0.000226  -0.025625   0.003935  -0.001884  -0.002633  -0.025265
     2  P   -0.000013   0.000585  -0.000038  -0.000009  -0.000009   0.000489
     3  P   -0.010719   0.414175  -0.015950  -0.008670  -0.008177   0.416650
     4  C    0.000001   0.000000   0.000000  -0.000000   0.000000  -0.000000
     5  H    0.000000  -0.000000   0.000000  -0.000000   0.000000  -0.000000
     6  H   -0.000000   0.000000  -0.000000   0.000000  -0.000000   0.000000
     7  H   -0.000000  -0.000000   0.000000  -0.000000  -0.000000   0.000000
     8  C    0.000000  -0.000008   0.000000   0.000001   0.000002   0.000000
     9  H    0.000000   0.000001  -0.000000   0.000002   0.000000   0.000000
    10  H   -0.000000   0.000000  -0.000000  -0.000000  -0.000000   0.000000
    11  H    0.000000   0.000000  -0.000000  -0.000000   0.000001  -0.000000
    12  C   -0.000000  -0.000000   0.000000   0.000000  -0.000000  -0.000005
    13  H   -0.000000  -0.000000   0.000000  -0.000000  -0.000000   0.000001
    14  H    0.000000   0.000000  -0.000000  -0.000000  -0.000000   0.000000
    15  H   -0.000000   0.000000   0.000000   0.000000  -0.000000   0.000001
    16  C    0.372974  -0.041859  -0.004394   0.003827  -0.001190  -0.043950
    17  H   -0.013929   0.003898  -0.000128  -0.000144  -0.000054  -0.000486
    18  H   -0.019522  -0.004399   0.005825  -0.000111  -0.000269  -0.005231
[...]
 ---------------------------------------------------------------------
 Center     Atomic      Atomic             Coordinates (Angstroms)
 Number     Number       Type             X           Y           Z
 ---------------------------------------------------------------------
      1         78           0        0.000327    0.036626   -0.000077
      2         15           0        2.248926    0.036264   -0.000103
      3         15           0       -2.248711    0.036989   -0.000051
      4          6           0        3.046217    1.056072    1.280479
      5          1           0        2.726676    0.706998    2.272911
      6          1           0        4.144805    1.009194    1.214219
      7          1           0        2.719733    2.100187    1.168006
      8          6           0        3.046953   -1.581758    0.244040
      9          1           0        2.741248   -2.264520   -0.561546
     10          1           0        4.145142   -1.495943    0.249236
     11          1           0        2.712178   -2.012530    1.198871
     12          6           0        3.049277    0.633164   -1.522818
     13          1           0        2.729651    1.666581   -1.720038
     14          1           0        4.147711    0.599897   -1.446579
     15          1           0        2.725601    0.011572   -2.370518
     16          6           0       -3.048301    0.801127    1.446393
     17          1           0       -2.722168    1.847868    1.530926
     18          1           0       -4.146794    0.767127    1.370685
     19          1           0       -2.730505    0.273278    2.357146
     20          6           0       -3.047682   -1.597783   -0.060529
     21          1           0       -4.145915   -1.512540   -0.062574
     22          1           0       -2.723712   -2.128809   -0.967179
     23          1           0       -2.732592   -2.189893    0.810769
     24          6           0       -3.046814    0.906432   -1.386676
     25          1           0       -2.721049    0.453645   -2.334489
     26          1           0       -4.145384    0.859364   -1.320223
     27          1           0       -2.727228    1.958514   -1.387340
     28          1           0       -0.020522   -3.341549    0.003958
     29          1           0       -0.003554   -2.567616   -0.003261
 ---------------------------------------------------------------------
 Rotational constants (GHZ):           1.7216262           0.3847460           0.3795282
 Leave Link  202 at Tue Nov 12 09:04:12 2019, MaxMem=  1342177280 cpu:               0.2 elap:               0.0
 (Enter /usr/g16/l301.exe)
 Basis read from rwf:  (5D, 7F)
 Pseudo-potential data read from rwf file.
 There are   320 symmetry adapted cartesian basis functions of A   symmetry.
 There are   298 symmetry adapted basis functions of A   symmetry.
   298 basis functions,   503 primitive gaussians,   320 cartesian basis functions
    52 alpha electrons       52 beta electrons
       nuclear repulsion energy       816.5135531233 Hartrees.
 IExCor= 1009 DFT=T Ex+Corr=PBE1PBE ExCW=0 ScaHFX=  0.250000
 ScaDFX=  0.750000  0.750000  1.000000  1.000000 ScalE2=  1.000000  1.000000
 IRadAn=      5 IRanWt=     -1 IRanGd=            0 ICorTp=0 IEmpDi=141
 NAtoms=   29 NActive=   29 NUniq=   29 SFac= 1.00D+00 NAtFMM=   60 NAOKFM=F Big=F
 Integral buffers will be    131072 words long.
 Raffenetti 2 integral format.
 Two-electron integral symmetry is turned on.
 R6Disp:  Grimme-D3(BJ) Dispersion energy=       -0.0304482418 Hartrees.
 Nuclear repulsion after empirical dispersion term =      816.4831048815 Hartrees.
 No density basis found on file   724.
 ------------------------------------------------------------------------------
 Polarizable Continuum Model (PCM)
 =================================
 Model                : PCM.
 Atomic radii         : SMD-Coulomb.
 Polarization charges : Total charges.
 Charge compensation  : None.
 Solution method      : Matrix inversion.
 Cavity type          : VdW (van der Waals Surface) (Alpha=1.000).
 Cavity algorithm     : GePol (No added spheres)
                        Default sphere list used, NSphG=   29.
                        Lebedev-Laikov grids with approx.  5.0 points / Ang**2.
                        Smoothing algorithm: York/Karplus (Gamma=1.0000).
                        Polarization charges: spherical gaussians, with
                                              point-specific exponents (IZeta= 3).
                        Self-potential: point-specific (ISelfS= 7).
                        Self-field    : sphere-specific E.n sum rule (ISelfD= 2).
 1st derivatives      : Analytical E(r).r(x)/FMM algorithm (CHGder, D1EAlg=3).
                        Cavity 1st derivative terms included.
 Solvent              : Benzene, Eps=   2.270600 Eps(inf)=   2.253301
 ------------------------------------------------------------------------------
 GePol: Number of generator spheres                  =      29
 GePol: Total number of spheres                      =      29
 GePol: Number of exposed spheres                    =      29 (100.00%)
 GePol: Number of points                             =    2182
 GePol: Average weight of points                     =       0.12
 GePol: Minimum weight of points                     =   0.11D-09
 GePol: Maximum weight of points                     =    0.22001
 GePol: Number of points with low weight             =     108
 GePol: Fraction of low-weight points (<1% of avg)   =       4.95%
 GePol: Cavity surface area                          =    261.203 Ang**2
 GePol: Cavity volume                                =    209.493 Ang**3
 ------------------------------------------------------------------------------
 Atomic radii for non-electrostatic terms: SMD-CDS.
 ------------------------------------------------------------------------------
 PCM non-electrostatic energy =         0.0000049423 Hartrees.
 Nuclear repulsion after PCM non-electrostatic terms =      816.4831098238 Hartrees.
 Leave Link  301 at Tue Nov 12 09:04:12 2019, MaxMem=  1342177280 cpu:               2.4 elap:               0.1
 (Enter /usr/g16/l302.exe)
 NPDir=0 NMtPBC=     1 NCelOv=     1 NCel=       1 NClECP=     1 NCelD=      1
         NCelK=      1 NCelE2=     1 NClLst=     1 CellRange=     0.0.
 One-electron integrals computed using PRISM.
 One-electron integral symmetry used in STVInt
   1 Symmetry operations used in ECPInt.
 ECPInt:  NShTT=    9316 NPrTT=   31101 LenC2=    8773 LenP2D=   21793.
 LDataN:  DoStor=T MaxTD1= 8 Len=  415
 NBasis=   298 RedAO= T EigKep=  1.22D-03  NBF=   298
 NBsUse=   298 1.00D-06 EigRej= -1.00D+00 NBFU=   298
 Precomputing XC quadrature grid using
 IXCGrd= 4 IRadAn=           5 IRanWt=          -1 IRanGd=           0 AccXCQ= 0.00D+00.
 Defaulting to unpruned grid for atomic number  78.
 Generated NRdTot=       0 NPtTot=           0 NUsed=           0 NTot=          32
 NSgBfM=   320   320   320   320   320 MxSgAt=    29 MxSgA2=    29.
 Leave Link  302 at Tue Nov 12 09:04:13 2019, MaxMem=  1342177280 cpu:              14.4 elap:               0.6
 (Enter /usr/g16/l303.exe)
 DipDrv:  MaxL=1.
 Leave Link  303 at Tue Nov 12 09:04:13 2019, MaxMem=  1342177280 cpu:               1.2 elap:               0.1
 (Enter /usr/g16/l401.exe)
 Initial guess from the checkpoint file:  "Pt_tst_low.chk"
 B after Tr=    -0.000000    0.000000   -0.000000
         Rot=    1.000000    0.000269   -0.000000   -0.000011 Ang=   0.03 deg.
 Guess basis will be translated and rotated to current coordinates.
 JPrj=2 DoOrth=T DoCkMO=T.
 Leave Link  401 at Tue Nov 12 09:04:13 2019, MaxMem=  1342177280 cpu:               4.6 elap:               0.2
 (Enter /usr/g16/l502.exe)
 Integral symmetry usage will be decided dynamically.
 Closed shell SCF:
 Using DIIS extrapolation, IDIIS=  1040.
 NGot=  1342177280 LenX=  1341961375 LenY=  1341858534
 Requested convergence on RMS density matrix=1.00D-08 within 128 cycles.
 Requested convergence on MAX density matrix=1.00D-06.
 Requested convergence on             energy=1.00D-06.
 No special actions if energy rises.
 Fock matrices will be formed incrementally for  20 cycles.

 Cycle   1  Pass 1  IDiag  1:
 FoFJK:  IHMeth= 1 ICntrl=       0 DoSepK=F KAlg= 0 I1Cent=           0 FoldK=F
 IRaf= 880000000 NMat=       1 IRICut=       1 DoRegI=T DoRafI=F ISym2E= 0 IDoP0=0 IntGTp=1.
 FoFCou: FMM=F IPFlag=           0 FMFlag=      100000 FMFlg1=           0
         NFxFlg=           0 DoJE=F BraDBF=F KetDBF=F FulRan=T
         wScrn=  0.000000 ICntrl=         0 IOpCl=  0 I1Cent=           0 NGrid=           0
         NMat0=    1 NMatS0=      1 NMatT0=    0 NMatD0=    1 NMtDS0=    0 NMtDT0=    0
 Symmetry not used in FoFCou.
 Defaulting to unpruned grid for atomic number  78.
 Defaulting to unpruned grid for atomic number  78.
 Defaulting to unpruned grid for atomic number  78.
 Defaulting to unpruned grid for atomic number  78.
 Defaulting to unpruned grid for atomic number  78.
 Defaulting to unpruned grid for atomic number  78.
 Defaulting to unpruned grid for atomic number  78.
 Defaulting to unpruned grid for atomic number  78.
 Defaulting to unpruned grid for atomic number  78.
 Defaulting to unpruned grid for atomic number  78.
 Defaulting to unpruned grid for atomic number  78.
 Defaulting to unpruned grid for atomic number  78.
 Defaulting to unpruned grid for atomic number  78.
 Defaulting to unpruned grid for atomic number  78.
 Defaulting to unpruned grid for atomic number  78.
 Defaulting to unpruned grid for atomic number  78.
 Defaulting to unpruned grid for atomic number  78.
 Defaulting to unpruned grid for atomic number  78.
 Defaulting to unpruned grid for atomic number  78.
 Defaulting to unpruned grid for atomic number  78.
 Defaulting to unpruned grid for atomic number  78.
 Defaulting to unpruned grid for atomic number  78.
 Defaulting to unpruned grid for atomic number  78.
 Defaulting to unpruned grid for atomic number  78.
 Inv3:  Mode=1 IEnd=    14283372.
 Iteration    1 A*A^-1 deviation from unit magnitude is 8.66D-15 for    459.
 Iteration    1 A*A^-1 deviation from orthogonality  is 3.56D-15 for    789    496.
 Iteration    1 A^-1*A deviation from unit magnitude is 6.77D-15 for    459.
 Iteration    1 A^-1*A deviation from orthogonality  is 1.33D-15 for   1334    698.
 E= -1042.14737197934    
 DIIS: error= 7.16D-06 at cycle   1 NSaved=   1.
 NSaved= 1 IEnMin= 1 EnMin= -1042.14737197934     IErMin= 1 ErrMin= 7.16D-06
 ErrMax= 7.16D-06  0.00D+00 EMaxC= 1.00D-01 BMatC= 2.23D-08 BMatP= 2.23D-08
 IDIUse=1 WtCom= 1.00D+00 WtEn= 0.00D+00
 Coeff-Com:  0.100D+01
 Coeff:      0.100D+01
 Gap=     0.441 Goal=   None    Shift=    0.000
 RMSDP=9.81D-07 MaxDP=4.03D-05              OVMax= 4.59D-05

 Cycle   2  Pass 1  IDiag  1:
 RMSU=  9.81D-07    CP:  1.00D+00
 E= -1042.14737201806     Delta-E=       -0.000000038712 Rises=F Damp=F
 DIIS: error= 1.12D-06 at cycle   2 NSaved=   2.
 NSaved= 2 IEnMin= 2 EnMin= -1042.14737201806     IErMin= 2 ErrMin= 1.12D-06
 ErrMax= 1.12D-06  0.00D+00 EMaxC= 1.00D-01 BMatC= 4.63D-10 BMatP= 2.23D-08
 IDIUse=1 WtCom= 1.00D+00 WtEn= 0.00D+00
 Coeff-Com: -0.298D-01 0.103D+01
 Coeff:     -0.298D-01 0.103D+01
 Gap=     0.192 Goal=   None    Shift=    0.000
 RMSDP=1.60D-07 MaxDP=7.42D-06 DE=-3.87D-08 OVMax= 7.43D-06

 Cycle   3  Pass 1  IDiag  1:
 RMSU=  1.40D-07    CP:  1.00D+00  1.08D+00
 E= -1042.14737201865     Delta-E=       -0.000000000593 Rises=F Damp=F
 DIIS: error= 1.03D-06 at cycle   3 NSaved=   3.
 NSaved= 3 IEnMin= 3 EnMin= -1042.14737201865     IErMin= 3 ErrMin= 1.03D-06
 ErrMax= 1.03D-06  0.00D+00 EMaxC= 1.00D-01 BMatC= 2.08D-10 BMatP= 4.63D-10
 IDIUse=1 WtCom= 1.00D+00 WtEn= 0.00D+00
 Coeff-Com: -0.274D-01 0.402D+00 0.626D+00
 Coeff:     -0.274D-01 0.402D+00 0.626D+00
 Gap=     0.192 Goal=   None    Shift=    0.000
 RMSDP=7.73D-08 MaxDP=6.70D-06 DE=-5.93D-10 OVMax= 4.92D-06

 Cycle   4  Pass 1  IDiag  1:
 RMSU=  6.61D-08    CP:  1.00D+00  1.09D+00  7.30D-01
 E= -1042.14737201874     Delta-E=       -0.000000000096 Rises=F Damp=F
 DIIS: error= 1.02D-06 at cycle   4 NSaved=   4.
 NSaved= 4 IEnMin= 4 EnMin= -1042.14737201874     IErMin= 4 ErrMin= 1.02D-06
 ErrMax= 1.02D-06  0.00D+00 EMaxC= 1.00D-01 BMatC= 1.23D-10 BMatP= 2.08D-10
 IDIUse=1 WtCom= 1.00D+00 WtEn= 0.00D+00
 Coeff-Com: -0.152D-01 0.152D+00 0.433D+00 0.431D+00
 Coeff:     -0.152D-01 0.152D+00 0.433D+00 0.431D+00
 Gap=     0.192 Goal=   None    Shift=    0.000
 RMSDP=4.02D-08 MaxDP=3.89D-06 DE=-9.57D-11 OVMax= 2.82D-06

 Cycle   5  Pass 1  IDiag  1:
 RMSU=  1.86D-08    CP:  1.00D+00  1.09D+00  8.28D-01  5.07D-01
 E= -1042.14737201886     Delta-E=       -0.000000000120 Rises=F Damp=F
 DIIS: error= 1.60D-07 at cycle   5 NSaved=   5.
 NSaved= 5 IEnMin= 5 EnMin= -1042.14737201886     IErMin= 5 ErrMin= 1.60D-07
 ErrMax= 1.60D-07  0.00D+00 EMaxC= 1.00D-01 BMatC= 5.17D-12 BMatP= 1.23D-10
 IDIUse=1 WtCom= 1.00D+00 WtEn= 0.00D+00
 Coeff-Com: -0.551D-02 0.417D-01 0.171D+00 0.231D+00 0.562D+00
 Coeff:     -0.551D-02 0.417D-01 0.171D+00 0.231D+00 0.562D+00
 Gap=     0.192 Goal=   None    Shift=    0.000
 RMSDP=8.48D-09 MaxDP=6.08D-07 DE=-1.20D-10 OVMax= 4.96D-07

 Error on total polarization charges =  0.04136
 SCF Done:  E(RPBE1PBE) =  -1042.14737202     A.U. after    5 cycles
            NFock=  5  Conv=0.85D-08     -V/T= 2.0869
 KE= 9.588308824246D+02 PE=-4.060685316130D+03 EE= 1.243223951863D+03
 SMD-CDS (non-electrostatic) energy       (kcal/mol) =       0.00
 (included in total energy above)
 Leave Link  502 at Tue Nov 12 09:04:31 2019, MaxMem=  1342177280 cpu:             395.6 elap:              17.7
 (Enter /usr/g16/l701.exe)
 ... and contract with generalized density number  0.
 Compute integral first derivatives.
 R6Disp: Adding Grimme-D3(BJ) dispersion energy 1st derivatives to the gradient.
   1 Symmetry operations used in ECPInt.
 ECPInt:  NShTT=    9316 NPrTT=   31101 LenC2=    8773 LenP2D=   21793.
 LDataN:  DoStor=T MaxTD1= 9 Len=  602
 D1PCM: PCM CHGder 1st derivatives, ID1Alg=3 FixD1E=F DoIter=F DoCFld=F I1PDM=0.
 GePol: Maximum number of non-zero 1st derivatives   =     231
 Leave Link  701 at Tue Nov 12 09:04:33 2019, MaxMem=  1342177280 cpu:              56.3 elap:               2.4
 (Enter /usr/g16/l702.exe)
 L702 exits ... SP integral derivatives will be done elsewhere.
 Leave Link  702 at Tue Nov 12 09:04:33 2019, MaxMem=  1342177280 cpu:               0.4 elap:               0.0
 (Enter /usr/g16/l703.exe)
 Integral derivatives from FoFJK, PRISM(SPDF).
 Compute integral first derivatives, UseDBF=F ICtDFT=           0.
 Calling FoFJK, ICntrl=      2127 FMM=F ISym2X=0 I1Cent= 0 IOpClX= 0 NMat=1 NMatS=1 NMatT=0.
 FoFJK:  IHMeth= 1 ICntrl=    2127 DoSepK=F KAlg= 0 I1Cent=           0 FoldK=F
 IRaf=         0 NMat=       1 IRICut=       1 DoRegI=T DoRafI=F ISym2E= 0 IDoP0=0 IntGTp=1.
 FoFCou: FMM=F IPFlag=           0 FMFlag=      100000 FMFlg1=         800
         NFxFlg=           0 DoJE=F BraDBF=F KetDBF=F FulRan=T
         wScrn=  0.000000 ICntrl=      2127 IOpCl=  0 I1Cent=           0 NGrid=           0
         NMat0=    1 NMatS0=      1 NMatT0=    0 NMatD0=    1 NMtDS0=    0 NMtDT0=    0
 Symmetry not used in FoFCou.
 Defaulting to unpruned grid for atomic number  78.
 Defaulting to unpruned grid for atomic number  78.
 Defaulting to unpruned grid for atomic number  78.
 Defaulting to unpruned grid for atomic number  78.
 Defaulting to unpruned grid for atomic number  78.
 Defaulting to unpruned grid for atomic number  78.
 Defaulting to unpruned grid for atomic number  78.
 Defaulting to unpruned grid for atomic number  78.
 Defaulting to unpruned grid for atomic number  78.
 Defaulting to unpruned grid for atomic number  78.
 Defaulting to unpruned grid for atomic number  78.
 Defaulting to unpruned grid for atomic number  78.
 Defaulting to unpruned grid for atomic number  78.
 Defaulting to unpruned grid for atomic number  78.
 Defaulting to unpruned grid for atomic number  78.
 Defaulting to unpruned grid for atomic number  78.
 Defaulting to unpruned grid for atomic number  78.
 Defaulting to unpruned grid for atomic number  78.
 Defaulting to unpruned grid for atomic number  78.
 Defaulting to unpruned grid for atomic number  78.
 Defaulting to unpruned grid for atomic number  78.
 Defaulting to unpruned grid for atomic number  78.
 Defaulting to unpruned grid for atomic number  78.
 Defaulting to unpruned grid for atomic number  78.
 Leave Link  703 at Tue Nov 12 09:04:39 2019, MaxMem=  1342177280 cpu:             144.2 elap:               6.0
 (Enter /usr/g16/l716.exe)
 Dipole        = 4.99402860D-04 1.03604289D-01 3.82193151D-04
 ***** Axes restored to original set *****
 -------------------------------------------------------------------
 Center     Atomic                   Forces (Hartrees/Bohr)
 Number     Number              X              Y              Z
 -------------------------------------------------------------------
      1       78           0.000038056    0.000887122   -0.000160225
      2       15          -0.000185798   -0.000416665    0.000031838
      3       15           0.000205432   -0.000416287    0.000039364
      4        6          -0.000046140   -0.000110181   -0.000133340
      5        1           0.000025644    0.000046853    0.000124796
      6        1          -0.000013994    0.000033266    0.000050067
      7        1          -0.000022362    0.000082826    0.000004737
      8        6          -0.000025023   -0.000016299    0.000076667
      9        1          -0.000003340    0.000027383   -0.000075656
     10        1          -0.000002984    0.000010667   -0.000010958
     11        1          -0.000013271   -0.000018358   -0.000050554
     12        6           0.000006830    0.000119689   -0.000102979
     13        1           0.000006910   -0.000068442    0.000002758
     14        1          -0.000016140   -0.000030855    0.000018877
     15        1          -0.000020161   -0.000058625    0.000119952
     16        6           0.000055848   -0.000047238   -0.000074818
     17        1           0.000001913   -0.000002913   -0.000009960
     18        1          -0.000005300    0.000025169    0.000030522
     19        1          -0.000011678    0.000021050    0.000054477
     20        6          -0.000001874    0.000017430    0.000051030
     21        1           0.000011768   -0.000015851   -0.000009099
     22        1           0.000011166    0.000007061    0.000001802
     23        1           0.000000850   -0.000009618   -0.000043003
     24        6           0.000006270    0.000076636   -0.000079004
     25        1           0.000005891   -0.000006545    0.000052146
     26        1           0.000006975   -0.000031533    0.000030406
     27        1          -0.000011173   -0.000040245    0.000001852
     28        1          -0.000109164   -0.000439615    0.000008184
     29        1           0.000104848    0.000374119    0.000050122
 -------------------------------------------------------------------
 Cartesian Forces:  Max     0.000887122 RMS     0.000142520
 Leave Link  716 at Tue Nov 12 09:04:39 2019, MaxMem=  1342177280 cpu:               0.5 elap:               0.0
 (Enter /usr/g16/l103.exe)

 GradGradGradGradGradGradGradGradGradGradGradGradGradGradGradGradGradGrad
 Berny optimization.
 Bend failed for angle     2 -     1 -     3
 Tors failed for dihedral     3 -     1 -     2 -     4
 Tors failed for dihedral     3 -     1 -     2 -     8
 Tors failed for dihedral     3 -     1 -     2 -    12
 Tors failed for dihedral     2 -     1 -     3 -    16
 Tors failed for dihedral     2 -     1 -     3 -    20
 Tors failed for dihedral     2 -     1 -     3 -    24
 FormBX had a problem.
 Error termination via Lnk1e in /usr/g16/l103.exe at Tue Nov 12 09:04:39 2019.
 Job cpu time:       0 days 11 hours  2 minutes 31.8 seconds.
 Elapsed time:       0 days  0 hours 28 minutes 44.2 seconds.
 File lengths (MBytes):  RWF=    369 Int=      0 D2E=      0 Chk=     26 Scr=      1
