 Entering Gaussian System, Link 0=g16
 Input=Pt_tst.gjf
 Output=Pt_tst.log
 Initial command:
 /usr/g16/l1.exe "/scratch/wsr/gaussian/Gau-405541.inp" -scrdir="/scratch/wsr/gaussian/"
 Entering Link 1 = /usr/g16/l1.exe PID=    405542.
  
 Copyright (c) 1988,1990,1992,1993,1995,1998,2003,2009,2016,
            Gaussian, Inc.  All Rights Reserved.
  
 This is part of the Gaussian(R) 16 program.  It is based on
 the Gaussian(R) 09 system (copyright 2009, Gaussian, Inc.),
 the Gaussian(R) 03 system (copyright 2003, Gaussian, Inc.),
 the Gaussian(R) 98 system (copyright 1998, Gaussian, Inc.),
 the Gaussian(R) 94 system (copyright 1995, Gaussian, Inc.),
 the Gaussian 92(TM) system (copyright 1992, Gaussian, Inc.),
 the Gaussian 90(TM) system (copyright 1990, Gaussian, Inc.),
 the Gaussian 88(TM) system (copyright 1988, Gaussian, Inc.),
 the Gaussian 86(TM) system (copyright 1986, Carnegie Mellon
 University), and the Gaussian 82(TM) system (copyright 1983,
 Carnegie Mellon University). Gaussian is a federally registered
 trademark of Gaussian, Inc.
  
 This software contains proprietary and confidential information,
 including trade secrets, belonging to Gaussian, Inc.
  
 This software is provided under written license and may be
 used, copied, transmitted, or stored only in accord with that
 written license.
  
 The following legend is applicable only to US Government
 contracts under FAR:
  
                    RESTRICTED RIGHTS LEGEND
  
 Use, reproduction and disclosure by the US Government is
 subject to restrictions as set forth in subparagraphs (a)
 and (c) of the Commercial Computer Software - Restricted
 Rights clause in FAR 52.227-19.
  
 Gaussian, Inc.
 340 Quinnipiac St., Bldg. 40, Wallingford CT 06492
  
  
 ---------------------------------------------------------------
 Warning -- This program may not be used in any manner that
 competes with the business of Gaussian, Inc. or will provide
 assistance to any competitor of Gaussian, Inc.  The licensee
 of this program is prohibited from giving any competitor of
 Gaussian, Inc. access to this program.  By using this program,
 the user acknowledges that Gaussian, Inc. is engaged in the
 business of creating and licensing software in the field of
 computational chemistry and represents and warrants to the
 licensee that it is not a competitor of Gaussian, Inc. and that
 it will not use this program in any manner prohibited above.
 ---------------------------------------------------------------
  

 Cite this work as:
 Gaussian 16, Revision A.03,
 M. J. Frisch, G. W. Trucks, H. B. Schlegel, G. E. Scuseria, 
 M. A. Robb, J. R. Cheeseman, G. Scalmani, V. Barone, 
 G. A. Petersson, H. Nakatsuji, X. Li, M. Caricato, A. V. Marenich, 
 J. Bloino, B. G. Janesko, R. Gomperts, B. Mennucci, H. P. Hratchian, 
 J. V. Ortiz, A. F. Izmaylov, J. L. Sonnenberg, D. Williams-Young, 
 F. Ding, F. Lipparini, F. Egidi, J. Goings, B. Peng, A. Petrone, 
 T. Henderson, D. Ranasinghe, V. G. Zakrzewski, J. Gao, N. Rega, 
 G. Zheng, W. Liang, M. Hada, M. Ehara, K. Toyota, R. Fukuda, 
 J. Hasegawa, M. Ishida, T. Nakajima, Y. Honda, O. Kitao, H. Nakai, 
 T. Vreven, K. Throssell, J. A. Montgomery, Jr., J. E. Peralta, 
 F. Ogliaro, M. J. Bearpark, J. J. Heyd, E. N. Brothers, K. N. Kudin, 
 V. N. Staroverov, T. A. Keith, R. Kobayashi, J. Normand, 
 K. Raghavachari, A. P. Rendell, J. C. Burant, S. S. Iyengar, 
 J. Tomasi, M. Cossi, J. M. Millam, M. Klene, C. Adamo, R. Cammi, 
 J. W. Ochterski, R. L. Martin, K. Morokuma, O. Farkas, 
 J. B. Foresman, and D. J. Fox, Gaussian, Inc., Wallingford CT, 2016.
 
 ******************************************
 Gaussian 16:  ES64L-G16RevA.03 25-Dec-2016
                12-Nov-2019 
 ******************************************
 %chk=Pt_tst.chk
 %nprocshared=24
 Will use up to   24 processors via shared memory.
 %mem=10gb
 ----------------------------------------------------------------------
 #p opt=(calcfc,ts,noeigen) scrf=(smd,solvent=benzene) def2tzvp em=gd3b
 j pbe1pbe
 ----------------------------------------------------------------------
 1/5=1,10=4,11=1,18=20,26=3,38=1/1,3;
 2/9=110,12=2,17=6,18=5,40=1/2;
 3/5=44,7=101,11=2,25=1,30=1,70=32201,71=2,72=12,74=-13,124=41,140=1/1,2,3;
 4//1;
 5/5=2,38=5,53=12/2;
 8/6=4,10=90,11=11/1;
 11/6=1,8=1,9=11,15=111,16=1/1,2,10;
 10/6=1,13=1/2;
 6/7=2,8=2,9=2,10=2,28=1/1;
 7/10=1,18=20,25=1/1,2,3,16;
 1/5=1,10=4,11=1,18=20,26=3/3(2);
 2/9=110/2;
 99//99;
 2/9=110/2;
 3/5=44,7=101,11=2,25=1,30=1,70=32205,71=1,72=12,74=-13,124=41/1,2,3;
 4/5=5,16=3,69=1/1;
 5/5=2,38=5,53=12/2;
 7//1,2,3,16;
 1/5=1,11=1,18=20,26=3/3(-5);
 2/9=110/2;
 6/7=2,8=2,9=2,10=2,19=2,28=1/1;
 99/9=1/99;
 Leave Link    1 at Tue Nov 12 04:24:01 2019, MaxMem=  1342177280 cpu:               2.8 elap:               0.1
 (Enter /usr/g16/l101.exe)
 -------------------
 Title Card Required
 -------------------
 Symbolic Z-matrix:
 Charge =  0 Multiplicity = 3
 Pt                   -0.00001  -0.37852  -0.00003 
 P                     2.16047   0.2274   -0.00041 
 P                    -2.16045   0.2274    0.0004 
 C                     2.68165   1.17856   1.46494 
 H                     2.54678   0.56751   2.35966 
 H                     3.72938   1.48575   1.39304 
 H                     2.04864   2.06221   1.56191 
 C                     3.48713  -1.02814  -0.09498 
 H                     3.36372  -1.61158  -1.01027 
 H                     4.48497  -0.57911  -0.08852 
 H                     3.39635  -1.71031   0.75348 
 C                     2.63571   1.34043  -1.36396 
 H                     2.00244   2.22879  -1.33744 
 H                     3.6864    1.63777  -1.29337 
 H                     2.46824   0.83562  -2.31751 
 C                    -2.63614   1.33858   1.36529 
 H                    -2.00285   2.22697   1.34021 
 H                    -3.68681   1.63605   1.29474 
 H                    -2.46902   0.83248   2.31821 
 C                    -3.48716  -1.02826   0.09278 
 H                    -4.48499  -0.57922   0.08658 
 H                    -3.39608  -1.70929  -0.75656 
 H                    -3.36407  -1.61294   1.00733 
 C                    -2.68114   1.18057  -1.46382 
 H                    -2.54576   0.57085  -2.35937 
 H                    -3.72894   1.48748  -1.39194 
 H                    -2.04823   2.06447  -1.55923 
 H                    -0.38872  -2.51018   0.00417 
 H                     0.38856  -2.51081  -0.00426 
 
 Add virtual bond connecting atoms H28        and Pt1        Dist= 4.09D+00.
 Add virtual bond connecting atoms H29        and Pt1        Dist= 4.10D+00.
 ITRead=  0  0  0  0  0  0  0  0  0  0  0  0  0  0  0  0  0  0  0  0
 ITRead=  0  0  0  0  0  0  0  0  0
 MicOpt= -1 -1 -1 -1 -1 -1 -1 -1 -1 -1 -1 -1 -1 -1 -1 -1 -1 -1 -1 -1
 MicOpt= -1 -1 -1 -1 -1 -1 -1 -1 -1
 NAtoms=     29 NQM=       29 NQMF=       0 NMMI=      0 NMMIF=      0
                NMic=       0 NMicF=      0.
                    Isotopes and Nuclear Properties:
 (Nuclear quadrupole moments (NQMom) in fm**2, nuclear magnetic moments (NMagM)
  in nuclear magnetons)

  Atom         1           2           3           4           5           6           7           8           9          10
 IAtWgt=         195          31          31          12           1           1           1          12           1           1
 AtmWgt= 194.9648000  30.9737634  30.9737634  12.0000000   1.0078250   1.0078250   1.0078250  12.0000000   1.0078250   1.0078250
 NucSpn=           1           1           1           0           1           1           1           0           1           1
 AtZEff=  -0.0000000  -0.0000000  -0.0000000  -0.0000000  -0.0000000  -0.0000000  -0.0000000  -0.0000000  -0.0000000  -0.0000000
 NQMom=    0.0000000   0.0000000   0.0000000   0.0000000   0.0000000   0.0000000   0.0000000   0.0000000   0.0000000   0.0000000
 NMagM=    0.6095000   1.1316000   1.1316000   0.0000000   2.7928460   2.7928460   2.7928460   0.0000000   2.7928460   2.7928460
 AtZNuc=  78.0000000  15.0000000  15.0000000   6.0000000   1.0000000   1.0000000   1.0000000   6.0000000   1.0000000   1.0000000

  Atom        11          12          13          14          15          16          17          18          19          20
 IAtWgt=           1          12           1           1           1          12           1           1           1          12
 AtmWgt=   1.0078250  12.0000000   1.0078250   1.0078250   1.0078250  12.0000000   1.0078250   1.0078250   1.0078250  12.0000000
 NucSpn=           1           0           1           1           1           0           1           1           1           0
 AtZEff=  -0.0000000  -0.0000000  -0.0000000  -0.0000000  -0.0000000  -0.0000000  -0.0000000  -0.0000000  -0.0000000  -0.0000000
 NQMom=    0.0000000   0.0000000   0.0000000   0.0000000   0.0000000   0.0000000   0.0000000   0.0000000   0.0000000   0.0000000
 NMagM=    2.7928460   0.0000000   2.7928460   2.7928460   2.7928460   0.0000000   2.7928460   2.7928460   2.7928460   0.0000000
 AtZNuc=   1.0000000   6.0000000   1.0000000   1.0000000   1.0000000   6.0000000   1.0000000   1.0000000   1.0000000   6.0000000

  Atom        21          22          23          24          25          26          27          28          29
 IAtWgt=           1           1           1          12           1           1           1           1           1
 AtmWgt=   1.0078250   1.0078250   1.0078250  12.0000000   1.0078250   1.0078250   1.0078250   1.0078250   1.0078250
 NucSpn=           1           1           1           0           1           1           1           1           1
 AtZEff=  -0.0000000  -0.0000000  -0.0000000  -0.0000000  -0.0000000  -0.0000000  -0.0000000  -0.0000000  -0.0000000
 NQMom=    0.0000000   0.0000000   0.0000000   0.0000000   0.0000000   0.0000000   0.0000000   0.0000000   0.0000000
 NMagM=    2.7928460   2.7928460   2.7928460   0.0000000   2.7928460   2.7928460   2.7928460   2.7928460   2.7928460
 AtZNuc=   1.0000000   1.0000000   1.0000000   6.0000000   1.0000000   1.0000000   1.0000000   1.0000000   1.0000000
 Leave Link  101 at Tue Nov 12 04:24:01 2019, MaxMem=  1342177280 cpu:               6.3 elap:               0.3
 (Enter /usr/g16/l103.exe)

 GradGradGradGradGradGradGradGradGradGradGradGradGradGradGradGradGradGrad
 Berny optimization.
 Initialization pass.
                           ----------------------------
                           !    Initial Parameters    !
                           ! (Angstroms and Degrees)  !
 --------------------------                            --------------------------
 ! Name  Definition              Value          Derivative Info.                !
 --------------------------------------------------------------------------------
 ! R1    R(1,2)                  2.2438         calculate D2E/DX2 analytically  !
 ! R2    R(1,3)                  2.2438         calculate D2E/DX2 analytically  !
 ! R3    R(1,28)                 2.1668         calculate D2E/DX2 analytically  !
 ! R4    R(1,29)                 2.1674         calculate D2E/DX2 analytically  !
 ! R5    R(2,4)                  1.8231         calculate D2E/DX2 analytically  !
 ! R6    R(2,8)                  1.829          calculate D2E/DX2 analytically  !
 ! R7    R(2,12)                 1.8232         calculate D2E/DX2 analytically  !
 ! R8    R(3,16)                 1.8232         calculate D2E/DX2 analytically  !
 ! R9    R(3,20)                 1.829          calculate D2E/DX2 analytically  !
 ! R10   R(3,24)                 1.8231         calculate D2E/DX2 analytically  !
 ! R11   R(4,5)                  1.0918         calculate D2E/DX2 analytically  !
 ! R12   R(4,6)                  1.0942         calculate D2E/DX2 analytically  !
 ! R13   R(4,7)                  1.0913         calculate D2E/DX2 analytically  !
 ! R14   R(8,9)                  1.0924         calculate D2E/DX2 analytically  !
 ! R15   R(8,10)                 1.0942         calculate D2E/DX2 analytically  !
 ! R16   R(8,11)                 1.0925         calculate D2E/DX2 analytically  !
 ! R17   R(12,13)                1.0913         calculate D2E/DX2 analytically  !
 ! R18   R(12,14)                1.0942         calculate D2E/DX2 analytically  !
 ! R19   R(12,15)                1.0918         calculate D2E/DX2 analytically  !
 ! R20   R(16,17)                1.0913         calculate D2E/DX2 analytically  !
 ! R21   R(16,18)                1.0942         calculate D2E/DX2 analytically  !
 ! R22   R(16,19)                1.0918         calculate D2E/DX2 analytically  !
 ! R23   R(20,21)                1.0942         calculate D2E/DX2 analytically  !
 ! R24   R(20,22)                1.0925         calculate D2E/DX2 analytically  !
 ! R25   R(20,23)                1.0924         calculate D2E/DX2 analytically  !
 ! R26   R(24,25)                1.0918         calculate D2E/DX2 analytically  !
 ! R27   R(24,26)                1.0942         calculate D2E/DX2 analytically  !
 ! R28   R(24,27)                1.0913         calculate D2E/DX2 analytically  !
 ! R29   R(28,29)                0.7773         calculate D2E/DX2 analytically  !
 ! A1    A(2,1,3)              148.6667         calculate D2E/DX2 analytically  !
 ! A2    A(2,1,28)             116.0008         calculate D2E/DX2 analytically  !
 ! A3    A(2,1,29)              95.3388         calculate D2E/DX2 analytically  !
 ! A4    A(3,1,28)              95.3324         calculate D2E/DX2 analytically  !
 ! A5    A(3,1,29)             115.9944         calculate D2E/DX2 analytically  !
 ! A6    A(1,2,4)              114.5829         calculate D2E/DX2 analytically  !
 ! A7    A(1,2,8)              120.866          calculate D2E/DX2 analytically  !
 ! A8    A(1,2,12)             114.5801         calculate D2E/DX2 analytically  !
 ! A9    A(4,2,8)              101.0895         calculate D2E/DX2 analytically  !
 ! A10   A(4,2,12)             102.0119         calculate D2E/DX2 analytically  !
 ! A11   A(8,2,12)             101.0307         calculate D2E/DX2 analytically  !
 ! A12   A(1,3,16)             114.5791         calculate D2E/DX2 analytically  !
 ! A13   A(1,3,20)             120.8663         calculate D2E/DX2 analytically  !
 ! A14   A(1,3,24)             114.5846         calculate D2E/DX2 analytically  !
 ! A15   A(16,3,20)            101.0312         calculate D2E/DX2 analytically  !
 ! A16   A(16,3,24)            102.0109         calculate D2E/DX2 analytically  !
 ! A17   A(20,3,24)            101.0888         calculate D2E/DX2 analytically  !
 ! A18   A(2,4,5)              109.3521         calculate D2E/DX2 analytically  !
 ! A19   A(2,4,6)              111.5552         calculate D2E/DX2 analytically  !
 ! A20   A(2,4,7)              109.1508         calculate D2E/DX2 analytically  !
 ! A21   A(5,4,6)              109.2234         calculate D2E/DX2 analytically  !
 ! A22   A(5,4,7)              107.9803         calculate D2E/DX2 analytically  !
 ! A23   A(6,4,7)              109.5073         calculate D2E/DX2 analytically  !
 ! A24   A(2,8,9)              109.147          calculate D2E/DX2 analytically  !
 ! A25   A(2,8,10)             112.2992         calculate D2E/DX2 analytically  !
 ! A26   A(2,8,11)             109.1604         calculate D2E/DX2 analytically  !
 ! A27   A(9,8,10)             109.0946         calculate D2E/DX2 analytically  !
 ! A28   A(9,8,11)             107.9282         calculate D2E/DX2 analytically  !
 ! A29   A(10,8,11)            109.1134         calculate D2E/DX2 analytically  !
 ! A30   A(2,12,13)            109.1196         calculate D2E/DX2 analytically  !
 ! A31   A(2,12,14)            111.5885         calculate D2E/DX2 analytically  !
 ! A32   A(2,12,15)            109.3254         calculate D2E/DX2 analytically  !
 ! A33   A(13,12,14)           109.5373         calculate D2E/DX2 analytically  !
 ! A34   A(13,12,15)           107.9739         calculate D2E/DX2 analytically  !
 ! A35   A(14,12,15)           109.2231         calculate D2E/DX2 analytically  !
 ! A36   A(3,16,17)            109.1195         calculate D2E/DX2 analytically  !
 ! A37   A(3,16,18)            111.5889         calculate D2E/DX2 analytically  !
 ! A38   A(3,16,19)            109.3256         calculate D2E/DX2 analytically  !
 ! A39   A(17,16,18)           109.537          calculate D2E/DX2 analytically  !
 ! A40   A(17,16,19)           107.9737         calculate D2E/DX2 analytically  !
 ! A41   A(18,16,19)           109.2231         calculate D2E/DX2 analytically  !
 ! A42   A(3,20,21)            112.2996         calculate D2E/DX2 analytically  !
 ! A43   A(3,20,22)            109.1607         calculate D2E/DX2 analytically  !
 ! A44   A(3,20,23)            109.1464         calculate D2E/DX2 analytically  !
 ! A45   A(21,20,22)           109.1134         calculate D2E/DX2 analytically  !
 ! A46   A(21,20,23)           109.0949         calculate D2E/DX2 analytically  !
 ! A47   A(22,20,23)           107.928          calculate D2E/DX2 analytically  !
 ! A48   A(3,24,25)            109.3532         calculate D2E/DX2 analytically  !
 ! A49   A(3,24,26)            111.5548         calculate D2E/DX2 analytically  !
 ! A50   A(3,24,27)            109.1501         calculate D2E/DX2 analytically  !
 ! A51   A(25,24,26)           109.2236         calculate D2E/DX2 analytically  !
 ! A52   A(25,24,27)           107.9801         calculate D2E/DX2 analytically  !
 ! A53   A(26,24,27)           109.5074         calculate D2E/DX2 analytically  !
 ! D1    D(3,1,2,4)             62.1212         calculate D2E/DX2 analytically  !
 ! D2    D(3,1,2,8)           -176.5574         calculate D2E/DX2 analytically  !
 ! D3    D(3,1,2,12)           -55.3253         calculate D2E/DX2 analytically  !
 ! D4    D(28,1,2,4)          -117.7552         calculate D2E/DX2 analytically  !
 ! D5    D(28,1,2,8)             3.5662         calculate D2E/DX2 analytically  !
 ! D6    D(28,1,2,12)          124.7983         calculate D2E/DX2 analytically  !
 ! D7    D(29,1,2,4)          -117.9873         calculate D2E/DX2 analytically  !
 ! D8    D(29,1,2,8)             3.3341         calculate D2E/DX2 analytically  !
 ! D9    D(29,1,2,12)          124.5662         calculate D2E/DX2 analytically  !
 ! D10   D(2,1,3,16)           -55.402          calculate D2E/DX2 analytically  !
 ! D11   D(2,1,3,20)          -176.6341         calculate D2E/DX2 analytically  !
 ! D12   D(2,1,3,24)            62.0437         calculate D2E/DX2 analytically  !
 ! D13   D(28,1,3,16)          124.4864         calculate D2E/DX2 analytically  !
 ! D14   D(28,1,3,20)            3.2543         calculate D2E/DX2 analytically  !
 ! D15   D(28,1,3,24)         -118.0679         calculate D2E/DX2 analytically  !
 ! D16   D(29,1,3,16)          124.7182         calculate D2E/DX2 analytically  !
 ! D17   D(29,1,3,20)            3.4861         calculate D2E/DX2 analytically  !
 ! D18   D(29,1,3,24)         -117.8362         calculate D2E/DX2 analytically  !
 ! D19   D(1,2,4,5)             61.6011         calculate D2E/DX2 analytically  !
 ! D20   D(1,2,4,6)           -177.4717         calculate D2E/DX2 analytically  !
 ! D21   D(1,2,4,7)            -56.3236         calculate D2E/DX2 analytically  !
 ! D22   D(8,2,4,5)            -70.0481         calculate D2E/DX2 analytically  !
 ! D23   D(8,2,4,6)             50.8791         calculate D2E/DX2 analytically  !
 ! D24   D(8,2,4,7)            172.0272         calculate D2E/DX2 analytically  !
 ! D25   D(12,2,4,5)          -173.9964         calculate D2E/DX2 analytically  !
 ! D26   D(12,2,4,6)           -53.0692         calculate D2E/DX2 analytically  !
 ! D27   D(12,2,4,7)            68.0789         calculate D2E/DX2 analytically  !
 ! D28   D(1,2,8,9)             58.7119         calculate D2E/DX2 analytically  !
 ! D29   D(1,2,8,10)           179.8208         calculate D2E/DX2 analytically  !
 ! D30   D(1,2,8,11)           -59.0372         calculate D2E/DX2 analytically  !
 ! D31   D(4,2,8,9)           -173.6249         calculate D2E/DX2 analytically  !
 ! D32   D(4,2,8,10)           -52.5159         calculate D2E/DX2 analytically  !
 ! D33   D(4,2,8,11)            68.6261         calculate D2E/DX2 analytically  !
 ! D34   D(12,2,8,9)           -68.8942         calculate D2E/DX2 analytically  !
 ! D35   D(12,2,8,10)           52.2147         calculate D2E/DX2 analytically  !
 ! D36   D(12,2,8,11)          173.3567         calculate D2E/DX2 analytically  !
 ! D37   D(1,2,12,13)           56.4263         calculate D2E/DX2 analytically  !
 ! D38   D(1,2,12,14)          177.6125         calculate D2E/DX2 analytically  !
 ! D39   D(1,2,12,15)          -61.457          calculate D2E/DX2 analytically  !
 ! D40   D(4,2,12,13)          -67.9781         calculate D2E/DX2 analytically  !
 ! D41   D(4,2,12,14)           53.208          calculate D2E/DX2 analytically  !
 ! D42   D(4,2,12,15)          174.1385         calculate D2E/DX2 analytically  !
 ! D43   D(8,2,12,13)         -171.9725         calculate D2E/DX2 analytically  !
 ! D44   D(8,2,12,14)          -50.7864         calculate D2E/DX2 analytically  !
 ! D45   D(8,2,12,15)           70.1441         calculate D2E/DX2 analytically  !
 ! D46   D(1,3,16,17)           56.426          calculate D2E/DX2 analytically  !
 ! D47   D(1,3,16,18)          177.612          calculate D2E/DX2 analytically  !
 ! D48   D(1,3,16,19)          -61.4572         calculate D2E/DX2 analytically  !
 ! D49   D(20,3,16,17)        -171.9728         calculate D2E/DX2 analytically  !
 ! D50   D(20,3,16,18)         -50.7868         calculate D2E/DX2 analytically  !
 ! D51   D(20,3,16,19)          70.144          calculate D2E/DX2 analytically  !
 ! D52   D(24,3,16,17)         -67.9792         calculate D2E/DX2 analytically  !
 ! D53   D(24,3,16,18)          53.2067         calculate D2E/DX2 analytically  !
 ! D54   D(24,3,16,19)         174.1375         calculate D2E/DX2 analytically  !
 ! D55   D(1,3,20,21)          179.8207         calculate D2E/DX2 analytically  !
 ! D56   D(1,3,20,22)          -59.0369         calculate D2E/DX2 analytically  !
 ! D57   D(1,3,20,23)           58.7116         calculate D2E/DX2 analytically  !
 ! D58   D(16,3,20,21)          52.2153         calculate D2E/DX2 analytically  !
 ! D59   D(16,3,20,22)         173.3576         calculate D2E/DX2 analytically  !
 ! D60   D(16,3,20,23)         -68.8938         calculate D2E/DX2 analytically  !
 ! D61   D(24,3,20,21)         -52.5142         calculate D2E/DX2 analytically  !
 ! D62   D(24,3,20,22)          68.6281         calculate D2E/DX2 analytically  !
 ! D63   D(24,3,20,23)        -173.6233         calculate D2E/DX2 analytically  !
 ! D64   D(1,3,24,25)           61.5891         calculate D2E/DX2 analytically  !
 ! D65   D(1,3,24,26)         -177.483          calculate D2E/DX2 analytically  !
 ! D66   D(1,3,24,27)          -56.3356         calculate D2E/DX2 analytically  !
 ! D67   D(16,3,24,25)        -174.0093         calculate D2E/DX2 analytically  !
 ! D68   D(16,3,24,26)         -53.0815         calculate D2E/DX2 analytically  !
 ! D69   D(16,3,24,27)          68.066          calculate D2E/DX2 analytically  !
 ! D70   D(20,3,24,25)         -70.0611         calculate D2E/DX2 analytically  !
 ! D71   D(20,3,24,26)          50.8668         calculate D2E/DX2 analytically  !
 ! D72   D(20,3,24,27)         172.0143         calculate D2E/DX2 analytically  !
 --------------------------------------------------------------------------------
 Trust Radius=3.00D-01 FncErr=1.00D-07 GrdErr=1.00D-06 EigMax=2.50D+02 EigMin=1.00D-04
 Number of steps in this run=    164 maximum allowed number of steps=    174.
 Search for a saddle point of order  1.
 GradGradGradGradGradGradGradGradGradGradGradGradGradGradGradGradGradGrad

 Leave Link  103 at Tue Nov 12 04:24:01 2019, MaxMem=  1342177280 cpu:               0.4 elap:               0.0
 (Enter /usr/g16/l202.exe)
                          Input orientation:                          
 ---------------------------------------------------------------------
 Center     Atomic      Atomic             Coordinates (Angstroms)
 Number     Number       Type             X           Y           Z
 ---------------------------------------------------------------------
      1         78           0       -0.000009   -0.378523   -0.000028
      2         15           0        2.160472    0.227398   -0.000412
      3         15           0       -2.160448    0.227397    0.000397
      4          6           0        2.681652    1.178556    1.464941
      5          1           0        2.546778    0.567514    2.359662
      6          1           0        3.729375    1.485748    1.393041
      7          1           0        2.048638    2.062211    1.561912
      8          6           0        3.487132   -1.028139   -0.094977
      9          1           0        3.363715   -1.611583   -1.010271
     10          1           0        4.484968   -0.579114   -0.088521
     11          1           0        3.396347   -1.710312    0.753477
     12          6           0        2.635706    1.340427   -1.363956
     13          1           0        2.002444    2.228794   -1.337443
     14          1           0        3.686402    1.637772   -1.293366
     15          1           0        2.468242    0.835623   -2.317505
     16          6           0       -2.636142    1.338581    1.365292
     17          1           0       -2.002852    2.226972    1.340210
     18          1           0       -3.686805    1.636049    1.294742
     19          1           0       -2.469021    0.832479    2.318214
     20          6           0       -3.487161   -1.028259    0.092780
     21          1           0       -4.484993   -0.579221    0.086575
     22          1           0       -3.396078   -1.709288   -0.756562
     23          1           0       -3.364068   -1.612941    1.007327
     24          6           0       -2.681135    1.180565   -1.463819
     25          1           0       -2.545757    0.570849   -2.359366
     26          1           0       -3.728943    1.487476   -1.391938
     27          1           0       -2.048226    2.064466   -1.559225
     28          1           0       -0.388717   -2.510183    0.004174
     29          1           0        0.388556   -2.510807   -0.004259
 ---------------------------------------------------------------------
                    Distance matrix (angstroms):
                    1          2          3          4          5
     1  Pt   0.000000
     2  P    2.243840   0.000000
     3  P    2.243799   4.320920   0.000000
     4  C    3.429568   1.823071   5.147380   0.000000
     5  H    3.598506   2.415546   5.276342   1.091828   0.000000
     6  H    4.395959   2.446756   6.181660   1.094194   1.782146
     7  H    3.548774   2.412447   4.849874   1.091309   1.765975
     8  C    3.548404   1.829028   5.786245   2.819866   3.075000
     9  H    3.722320   2.418566   5.909287   3.791670   4.095400
    10  H    4.490333   2.462013   6.694768   2.958817   3.326400
    11  H    3.725140   2.418772   5.932943   3.059825   2.913776
    12  C    3.429589   1.823166   5.109147   2.833897   3.804029
    13  H    3.549169   2.412097   4.808854   3.068824   4.089589
    14  H    4.396339   2.447314   6.152124   2.971306   3.973513
    15  H    3.596820   2.415281   5.212234   3.803951   4.685503
    16  C    3.429540   5.109538   1.823171   5.321134   5.333477
    17  H    3.549116   4.809244   2.412102   4.802011   4.948961
    18  H    4.396293   6.152428   2.447324   6.387136   6.413531
    19  H    3.596775   5.212903   2.415288   5.232330   5.022964
    20  C    3.548380   5.786287   1.829036   6.693811   6.640306
    21  H    4.490307   6.694804   2.462025   7.506695   7.478484
    22  H    3.725126   5.932770   2.418784   7.086150   7.086058
    23  H    3.722290   5.909562   2.418564   6.674773   6.443702
    24  C    3.429559   5.146965   1.823067   6.110411   6.505837
    25  H    3.598419   5.275530   2.415555   6.505416   6.942849
    26  H    4.395943   6.181371   2.446747   7.025163   7.369227
    27  H    3.548871   4.849521   2.412434   5.683499   6.221945
    28  H    2.166815   3.740686   3.260888   5.016752   4.861859
    29  H    2.167403   3.261513   3.741016   4.585656   4.440958
                    6          7          8          9         10
     6  H    0.000000
     7  H    1.784854   0.000000
     8  C    2.931298   3.790094   0.000000
     9  H    3.937394   4.673576   1.092429   0.000000
    10  H    2.651340   3.954267   1.094231   1.781242   0.000000
    11  H    3.276393   4.086786   1.092463   1.766810   1.781478
    12  C    2.969556   3.070232   2.818748   3.060956   2.954851
    13  H    3.315109   2.904504   3.788883   4.087615   3.950580
    14  H    2.691048   3.318890   2.929663   3.277587   2.646496
    15  H    3.972565   4.090289   3.074309   2.915399   3.322203
    16  C    6.367278   4.744414   6.725194   7.095425   7.516737
    17  H    5.780193   4.060895   6.541822   7.004235   7.211602
    18  H    7.418354   5.757456   7.777827   8.097532   8.578942
    19  H    6.301017   4.742729   6.690377   7.146542   7.492859
    20  C    7.751729   6.508028   6.976820   6.963583   7.986829
    21  H    8.570110   7.200147   7.986818   7.991937   8.971670
    22  H    8.099452   7.017440   6.948398   6.765258   7.989647
    23  H    7.750328   6.565950   6.963908   7.023800   7.992312
    24  C    7.024915   5.683582   6.693252   6.673980   7.506061
    25  H    7.368506   6.221660   6.639275   6.442432   7.477315
    26  H    7.961320   6.514291   7.751269   7.749557   8.569599
    27  H    6.513944   5.150320   6.507566   6.565348   7.199591
    28  H    5.903821   5.410548   4.150722   3.989652   5.243131
    29  H    5.393141   5.110896   3.436234   3.266839   4.529805
                   11         12         13         14         15
    11  H    0.000000
    12  C    3.790660   0.000000
    13  H    4.672416   1.091293   0.000000
    14  H    3.934891   1.094239   1.785207   0.000000
    15  H    4.095619   1.091846   1.765903   1.782195   0.000000
    16  C    6.786825   5.936428   5.441850   6.865314   6.314325
    17  H    6.708041   5.441939   4.817907   6.296864   5.941836
    18  H    7.852525   6.865145   6.296610   7.814249   7.181477
    19  H    6.581545   6.314636   5.942013   7.182008   6.772479
    20  C    6.948698   6.724749   6.541383   7.777476   6.689571
    21  H    7.989972   7.516212   7.211076   8.578519   7.491920
    22  H    6.958251   6.786170   6.707455   7.851910   6.580529
    23  H    6.765880   7.095256   7.004022   8.097497   7.146035
    24  C    7.085856   5.320181   4.801111   6.386205   5.231047
    25  H    7.085343   5.332040   4.947650   6.412058   5.021160
    26  H    8.099285   6.366409   5.779387   7.417523   6.299737
    27  H    7.017187   4.743583   4.060064   5.756623   4.741680
    28  H    3.940553   5.083907   5.474988   5.957830   4.974618
    29  H    3.203399   4.661594   5.181296   5.454200   4.568894
                   16         17         18         19         20
    16  C    0.000000
    17  H    1.091295   0.000000
    18  H    1.094238   1.785204   0.000000
    19  H    1.091847   1.765904   1.782195   0.000000
    20  C    2.818768   3.788903   2.929694   3.074331   0.000000
    21  H    2.954883   3.950613   2.646544   3.322236   1.094231
    22  H    3.790682   4.672438   3.934927   4.095639   1.092464
    23  H    3.060963   4.087622   3.277606   2.915410   1.092429
    24  C    2.833878   3.068813   2.971279   3.803936   2.819855
    25  H    3.804032   4.089542   3.973556   4.685520   3.075127
    26  H    2.969630   3.315249   2.691115   3.972613   2.931172
    27  H    3.070074   2.904340   3.318676   4.090158   3.790066
    28  H    4.660101   5.179871   5.452907   4.566819   3.435739
    29  H    5.083528   5.474758   5.957549   4.973649   4.150729
                   21         22         23         24         25
    21  H    0.000000
    22  H    1.781479   0.000000
    23  H    1.781245   1.766808   0.000000
    24  C    2.958796   3.059838   3.791653   0.000000
    25  H    3.326548   2.913941   4.095509   1.091827   0.000000
    26  H    2.651198   3.276248   3.937282   1.094195   1.782148
    27  H    3.954184   4.086832   4.673537   1.091310   1.765971
    28  H    4.529336   3.203806   3.265589   4.586045   4.442060
    29  H    5.243163   3.941046   3.988942   5.017922   4.863468
                   26         27         28         29
    26  H    0.000000
    27  H    1.784856   0.000000
    28  H    5.393284   5.111321   0.000000
    29  H    5.904720   5.411927   0.777319   0.000000
 Stoichiometry    C6H20P2Pt(3)
 Framework group  C1[X(C6H20P2Pt)]
 Deg. of freedom    81
 Full point group                 C1      NOp   1
 Largest Abelian subgroup         C1      NOp   1
 Largest concise Abelian subgroup C1      NOp   1
                         Standard orientation:                         
 ---------------------------------------------------------------------
 Center     Atomic      Atomic             Coordinates (Angstroms)
 Number     Number       Type             X           Y           Z
 ---------------------------------------------------------------------
      1         78           0        0.000009    0.378523   -0.000028
      2         15           0       -2.160472   -0.227398   -0.000412
      3         15           0        2.160448   -0.227397    0.000397
      4          6           0       -2.681652   -1.178556    1.464941
      5          1           0       -2.546778   -0.567514    2.359662
      6          1           0       -3.729375   -1.485748    1.393041
      7          1           0       -2.048638   -2.062211    1.561912
      8          6           0       -3.487132    1.028139   -0.094977
      9          1           0       -3.363715    1.611583   -1.010271
     10          1           0       -4.484968    0.579114   -0.088521
     11          1           0       -3.396347    1.710312    0.753477
     12          6           0       -2.635706   -1.340427   -1.363956
     13          1           0       -2.002444   -2.228794   -1.337443
     14          1           0       -3.686402   -1.637772   -1.293366
     15          1           0       -2.468242   -0.835623   -2.317505
     16          6           0        2.636142   -1.338581    1.365292
     17          1           0        2.002852   -2.226972    1.340210
     18          1           0        3.686805   -1.636049    1.294742
     19          1           0        2.469021   -0.832479    2.318214
     20          6           0        3.487161    1.028259    0.092780
     21          1           0        4.484993    0.579221    0.086575
     22          1           0        3.396078    1.709288   -0.756562
     23          1           0        3.364068    1.612941    1.007327
     24          6           0        2.681135   -1.180565   -1.463819
     25          1           0        2.545757   -0.570849   -2.359366
     26          1           0        3.728943   -1.487476   -1.391938
     27          1           0        2.048226   -2.064466   -1.559225
     28          1           0        0.388717    2.510183    0.004174
     29          1           0       -0.388556    2.510807   -0.004259
 ---------------------------------------------------------------------
 Rotational constants (GHZ):           1.5580152           0.4069172           0.3913241
 Leave Link  202 at Tue Nov 12 04:24:01 2019, MaxMem=  1342177280 cpu:               0.2 elap:               0.0
 (Enter /usr/g16/l301.exe)
 Standard basis: def2TZVP (5D, 7F)
 Ernie: Thresh=  0.10000D-02 Tol=  0.10000D-05 Strict=F.
 There are   466 symmetry adapted cartesian basis functions of A   symmetry.
 There are   420 symmetry adapted basis functions of A   symmetry.
   420 basis functions,   679 primitive gaussians,   466 cartesian basis functions
    53 alpha electrons       51 beta electrons
       nuclear repulsion energy       826.2901423484 Hartrees.
 IExCor= 1009 DFT=T Ex+Corr=PBE1PBE ExCW=0 ScaHFX=  0.250000
 ScaDFX=  0.750000  0.750000  1.000000  1.000000 ScalE2=  1.000000  1.000000
 IRadAn=      5 IRanWt=     -1 IRanGd=            0 ICorTp=0 IEmpDi=141
 NAtoms=   29 NActive=   29 NUniq=   29 SFac= 1.00D+00 NAtFMM=   60 NAOKFM=F Big=F
 Integral buffers will be    131072 words long.
 Raffenetti 2 integral format.
 Two-electron integral symmetry is turned on.
 R6Disp:  Grimme-D3(BJ) Dispersion energy=       -0.0309156290 Hartrees.
 Nuclear repulsion after empirical dispersion term =      826.2592267195 Hartrees.
 Force inversion solution in PCM.
 ------------------------------------------------------------------------------
 Polarizable Continuum Model (PCM)
 =================================
 Model                : PCM.
 Atomic radii         : SMD-Coulomb.
 Polarization charges : Total charges.
 Charge compensation  : None.
 Solution method      : Matrix inversion.
 Cavity type          : VdW (van der Waals Surface) (Alpha=1.000).
 Cavity algorithm     : GePol (No added spheres)
                        Default sphere list used, NSphG=   29.
                        Lebedev-Laikov grids with approx.  5.0 points / Ang**2.
                        Smoothing algorithm: York/Karplus (Gamma=1.0000).
                        Polarization charges: spherical gaussians, with
                                              point-specific exponents (IZeta= 3).
                        Self-potential: point-specific (ISelfS= 7).
                        Self-field    : sphere-specific E.n sum rule (ISelfD= 2).
 1st derivatives      : Analytical E(r).r(x)/FMM algorithm (CHGder, D1EAlg=3).
                        Cavity 1st derivative terms included.
 2nd derivatives      : Analytical E(r).r(xy)/FMM algorithm (CHGder, D2EAlg=3).
                        Cavity 2nd derivative terms included.
 Solvent              : Benzene, Eps=   2.270600 Eps(inf)=   2.253301
 ------------------------------------------------------------------------------
 GePol: Number of generator spheres                  =      29
 GePol: Total number of spheres                      =      29
 GePol: Number of exposed spheres                    =      29 (100.00%)
 GePol: Number of points                             =    2153
 GePol: Average weight of points                     =       0.12
 GePol: Minimum weight of points                     =   0.83D-09
 GePol: Maximum weight of points                     =    0.22001
 GePol: Number of points with low weight             =     138
 GePol: Fraction of low-weight points (<1% of avg)   =       6.41%
 GePol: Cavity surface area                          =    254.869 Ang**2
 GePol: Cavity volume                                =    208.637 Ang**3
 ------------------------------------------------------------------------------
 Atomic radii for non-electrostatic terms: SMD-CDS.
 ------------------------------------------------------------------------------
 PCM non-electrostatic energy =         0.0001471495 Hartrees.
 Nuclear repulsion after PCM non-electrostatic terms =      826.2593738690 Hartrees.
 Leave Link  301 at Tue Nov 12 04:24:01 2019, MaxMem=  1342177280 cpu:               3.3 elap:               0.1
 (Enter /usr/g16/l302.exe)
 NPDir=0 NMtPBC=     1 NCelOv=     1 NCel=       1 NClECP=     1 NCelD=      1
         NCelK=      1 NCelE2=     1 NClLst=     1 CellRange=     0.0.
 One-electron integrals computed using PRISM.
 One-electron integral symmetry used in STVInt
   1 Symmetry operations used in ECPInt.
 ECPInt:  NShTT=   17391 NPrTT=   50365 LenC2=   15924 LenP2D=   34696.
 LDataN:  DoStor=T MaxTD1= 8 Len=  415
 NBasis=   420 RedAO= T EigKep=  6.54D-04  NBF=   420
 NBsUse=   420 1.00D-06 EigRej= -1.00D+00 NBFU=   420
 Precomputing XC quadrature grid using
 IXCGrd= 4 IRadAn=           5 IRanWt=          -1 IRanGd=           0 AccXCQ= 0.00D+00.
 Defaulting to unpruned grid for atomic number  78.
 Generated NRdTot=       0 NPtTot=           0 NUsed=           0 NTot=          32
 NSgBfM=   464   464   464   464   464 MxSgAt=    29 MxSgA2=    29.
 Leave Link  302 at Tue Nov 12 04:24:02 2019, MaxMem=  1342177280 cpu:              17.5 elap:               0.8
 (Enter /usr/g16/l303.exe)
 DipDrv:  MaxL=1.
 Leave Link  303 at Tue Nov 12 04:24:02 2019, MaxMem=  1342177280 cpu:               2.0 elap:               0.1
 (Enter /usr/g16/l401.exe)
 ExpMin= 4.92D-02 ExpMax= 5.24D+04 ExpMxC= 1.79D+03 IAcc=3 IRadAn=         5 AccDes= 0.00D+00
 Harris functional with IExCor= 1009 and IRadAn=       5 diagonalized for initial guess.
 HarFok:  IExCor= 1009 AccDes= 0.00D+00 IRadAn=         5 IDoV= 1 UseB2=F ITyADJ=14
 ICtDFT=  3500011 ScaDFX=  1.000000  1.000000  1.000000  1.000000
 Defaulting to unpruned grid for atomic number  78.
 FoFCou: FMM=F IPFlag=           0 FMFlag=      100000 FMFlg1=           0
         NFxFlg=           0 DoJE=T BraDBF=F KetDBF=T FulRan=T
         wScrn=  0.000000 ICntrl=       500 IOpCl=  0 I1Cent=   200000004 NGrid=           0
         NMat0=    1 NMatS0=      1 NMatT0=    0 NMatD0=    1 NMtDS0=    0 NMtDT0=    0
 Petite list used in FoFCou.
 Harris En= -1042.38863255573    
 JPrj=0 DoOrth=F DoCkMO=F.
 Initial guess <Sx>= 0.0000 <Sy>= 0.0000 <Sz>= 1.0000 <S**2>= 2.0000 S= 1.0000
 Leave Link  401 at Tue Nov 12 04:24:04 2019, MaxMem=  1342177280 cpu:              43.4 elap:               1.8
 (Enter /usr/g16/l502.exe)
 Integral symmetry usage will be decided dynamically.
 UHF open shell SCF:
 Using DIIS extrapolation, IDIIS=  1040.
 NGot=  1342177280 LenX=  1341727311 LenY=  1341509689
 Requested convergence on RMS density matrix=1.00D-08 within 128 cycles.
 Requested convergence on MAX density matrix=1.00D-06.
 Requested convergence on             energy=1.00D-06.
 No special actions if energy rises.
 Fock matrices will be formed incrementally for  20 cycles.

 Cycle   1  Pass 1  IDiag  1:
 FoFJK:  IHMeth= 1 ICntrl=       0 DoSepK=F KAlg= 0 I1Cent=           0 FoldK=F
 IRaf= 860000000 NMat=       1 IRICut=       1 DoRegI=T DoRafI=F ISym2E= 0 IDoP0=0 IntGTp=1.
 FoFCou: FMM=F IPFlag=           0 FMFlag=      100000 FMFlg1=           0
         NFxFlg=           0 DoJE=F BraDBF=F KetDBF=F FulRan=T
         wScrn=  0.000000 ICntrl=         0 IOpCl=  1 I1Cent=           0 NGrid=           0
         NMat0=    1 NMatS0=      1 NMatT0=    0 NMatD0=    1 NMtDS0=    0 NMtDT0=    0
 Symmetry not used in FoFCou.
 Defaulting to unpruned grid for atomic number  78.
 Defaulting to unpruned grid for atomic number  78.
 Defaulting to unpruned grid for atomic number  78.
 Defaulting to unpruned grid for atomic number  78.
 Defaulting to unpruned grid for atomic number  78.
 Defaulting to unpruned grid for atomic number  78.
 Defaulting to unpruned grid for atomic number  78.
 Defaulting to unpruned grid for atomic number  78.
 Defaulting to unpruned grid for atomic number  78.
 Defaulting to unpruned grid for atomic number  78.
 Defaulting to unpruned grid for atomic number  78.
 Defaulting to unpruned grid for atomic number  78.
 Defaulting to unpruned grid for atomic number  78.
 Defaulting to unpruned grid for atomic number  78.
 Defaulting to unpruned grid for atomic number  78.
 Defaulting to unpruned grid for atomic number  78.
 Defaulting to unpruned grid for atomic number  78.
 Defaulting to unpruned grid for atomic number  78.
 Defaulting to unpruned grid for atomic number  78.
 Defaulting to unpruned grid for atomic number  78.
 Defaulting to unpruned grid for atomic number  78.
 Defaulting to unpruned grid for atomic number  78.
 Defaulting to unpruned grid for atomic number  78.
 Defaulting to unpruned grid for atomic number  78.
 Inv3:  Mode=1 IEnd=    13906227.
 Iteration    1 A*A^-1 deviation from unit magnitude is 8.88D-15 for    249.
 Iteration    1 A*A^-1 deviation from orthogonality  is 4.07D-15 for   1173    177.
 Iteration    1 A^-1*A deviation from unit magnitude is 7.33D-15 for    249.
 Iteration    1 A^-1*A deviation from orthogonality  is 2.76D-15 for   2124   1031.
 E= -1041.33596100599    
 DIIS: error= 4.93D-02 at cycle   1 NSaved=   1.
 NSaved= 1 IEnMin= 1 EnMin= -1041.33596100599     IErMin= 1 ErrMin= 4.93D-02
 ErrMax= 4.93D-02  0.00D+00 EMaxC= 1.00D-01 BMatC= 4.55D+00 BMatP= 4.55D+00
 IDIUse=3 WtCom= 5.07D-01 WtEn= 4.93D-01
 Coeff-Com:  0.100D+01
 Coeff-En:   0.100D+01
 Coeff:      0.100D+01
 Gap=     0.050 Goal=   None    Shift=    0.000
 Gap=     0.170 Goal=   None    Shift=    0.000
 GapD=    0.050 DampG=0.500 DampE=0.250 DampFc=0.1250 IDamp=-1.
 Damping current iteration by 1.25D-01
 RMSDP=5.35D-03 MaxDP=5.63D-01              OVMax= 6.41D-01

 Cycle   2  Pass 1  IDiag  1:
 RMSU=  6.68D-04    CP:  9.98D-01
 E= -1041.58421156717     Delta-E=       -0.248250561178 Rises=F Damp=T
 DIIS: error= 3.52D-02 at cycle   2 NSaved=   2.
 NSaved= 2 IEnMin= 2 EnMin= -1041.58421156717     IErMin= 2 ErrMin= 3.52D-02
 ErrMax= 3.52D-02  0.00D+00 EMaxC= 1.00D-01 BMatC= 2.10D+00 BMatP= 4.55D+00
 IDIUse=3 WtCom= 6.48D-01 WtEn= 3.52D-01
 Coeff-Com: -0.193D+01 0.293D+01
 Coeff-En:   0.000D+00 0.100D+01
 Coeff:     -0.125D+01 0.225D+01
 Gap=     0.097 Goal=   None    Shift=    0.000
 Gap=     0.008 Goal=   None    Shift=    0.000
 RMSDP=2.04D-03 MaxDP=2.27D-01 DE=-2.48D-01 OVMax= 7.61D-01

 Cycle   3  Pass 1  IDiag  1:
 RMSU=  1.68D-03    CP:  9.86D-01  2.71D+00
 E= -1042.17982264511     Delta-E=       -0.595611077945 Rises=F Damp=F
 DIIS: error= 1.89D-02 at cycle   3 NSaved=   3.
 NSaved= 3 IEnMin= 3 EnMin= -1042.17982264511     IErMin= 3 ErrMin= 1.89D-02
 ErrMax= 1.89D-02  0.00D+00 EMaxC= 1.00D-01 BMatC= 3.87D-01 BMatP= 2.10D+00
 IDIUse=3 WtCom= 8.11D-01 WtEn= 1.89D-01
 Coeff-Com: -0.265D+00 0.644D+00 0.621D+00
 Coeff-En:   0.299D-01 0.000D+00 0.970D+00
 Coeff:     -0.209D+00 0.522D+00 0.687D+00
 Gap=     0.081 Goal=   None    Shift=    0.000
 Gap=     0.096 Goal=   None    Shift=    0.000
 RMSDP=7.31D-04 MaxDP=5.06D-02 DE=-5.96D-01 OVMax= 5.99D-02

 Cycle   4  Pass 1  IDiag  1:
 RMSU=  5.31D-04    CP:  9.78D-01  2.09D+00  8.42D-01
 E= -1042.25853292572     Delta-E=       -0.078710280608 Rises=F Damp=F
 DIIS: error= 5.25D-03 at cycle   4 NSaved=   4.
 NSaved= 4 IEnMin= 4 EnMin= -1042.25853292572     IErMin= 4 ErrMin= 5.25D-03
 ErrMax= 5.25D-03  0.00D+00 EMaxC= 1.00D-01 BMatC= 3.55D-02 BMatP= 3.87D-01
 IDIUse=3 WtCom= 9.47D-01 WtEn= 5.25D-02
 Coeff-Com: -0.953D-01 0.124D+00 0.195D+00 0.776D+00
 Coeff-En:   0.000D+00 0.000D+00 0.176D-01 0.982D+00
 Coeff:     -0.903D-01 0.118D+00 0.186D+00 0.787D+00
 Gap=     0.082 Goal=   None    Shift=    0.000
 Gap=     0.082 Goal=   None    Shift=    0.000
 RMSDP=3.48D-04 MaxDP=3.30D-02 DE=-7.87D-02 OVMax= 3.89D-02

 Cycle   5  Pass 1  IDiag  1:
 RMSU=  2.06D-04    CP:  9.70D-01  2.44D+00  8.57D-01  1.24D+00
 E= -1042.26722763105     Delta-E=       -0.008694705334 Rises=F Damp=F
 DIIS: error= 7.09D-04 at cycle   5 NSaved=   5.
 NSaved= 5 IEnMin= 5 EnMin= -1042.26722763105     IErMin= 5 ErrMin= 7.09D-04
 ErrMax= 7.09D-04  0.00D+00 EMaxC= 1.00D-01 BMatC= 1.12D-03 BMatP= 3.55D-02
 IDIUse=3 WtCom= 9.93D-01 WtEn= 7.09D-03
 Coeff-Com: -0.192D-01 0.172D-01 0.400D-01 0.298D+00 0.664D+00
 Coeff-En:   0.000D+00 0.000D+00 0.000D+00 0.000D+00 0.100D+01
 Coeff:     -0.190D-01 0.171D-01 0.397D-01 0.295D+00 0.667D+00
 Gap=     0.082 Goal=   None    Shift=    0.000
 Gap=     0.085 Goal=   None    Shift=    0.000
 RMSDP=8.02D-05 MaxDP=1.09D-02 DE=-8.69D-03 OVMax= 2.22D-02

 Cycle   6  Pass 1  IDiag  1:
 RMSU=  6.39D-05    CP:  9.69D-01  2.43D+00  8.68D-01  1.32D+00  1.04D+00
 E= -1042.26766231074     Delta-E=       -0.000434679687 Rises=F Damp=F
 DIIS: error= 6.14D-04 at cycle   6 NSaved=   6.
 NSaved= 6 IEnMin= 6 EnMin= -1042.26766231074     IErMin= 6 ErrMin= 6.14D-04
 ErrMax= 6.14D-04  0.00D+00 EMaxC= 1.00D-01 BMatC= 1.73D-04 BMatP= 1.12D-03
 IDIUse=3 WtCom= 9.94D-01 WtEn= 6.14D-03
 Coeff-Com:  0.616D-02-0.103D-01-0.576D-02 0.385D-01 0.309D+00 0.662D+00
 Coeff-En:   0.000D+00 0.000D+00 0.000D+00 0.000D+00 0.000D+00 0.100D+01
 Coeff:      0.612D-02-0.102D-01-0.572D-02 0.383D-01 0.308D+00 0.664D+00
 Gap=     0.082 Goal=   None    Shift=    0.000
 Gap=     0.086 Goal=   None    Shift=    0.000
 RMSDP=6.24D-05 MaxDP=1.07D-02 DE=-4.35D-04 OVMax= 2.53D-02

 Cycle   7  Pass 1  IDiag  1:
 RMSU=  3.13D-05    CP:  9.68D-01  2.44D+00  8.70D-01  1.37D+00  1.19D+00
                    CP:  1.50D+00
 E= -1042.26787794262     Delta-E=       -0.000215631881 Rises=F Damp=F
 DIIS: error= 5.42D-04 at cycle   7 NSaved=   7.
 NSaved= 7 IEnMin= 7 EnMin= -1042.26787794262     IErMin= 7 ErrMin= 5.42D-04
 ErrMax= 5.42D-04  0.00D+00 EMaxC= 1.00D-01 BMatC= 7.94D-05 BMatP= 1.73D-04
 IDIUse=3 WtCom= 9.95D-01 WtEn= 5.42D-03
 Coeff-Com:  0.136D-01-0.166D-01-0.821D-02-0.303D-01 0.728D-01 0.269D+00
 Coeff-Com:  0.699D+00
 Coeff-En:   0.000D+00 0.000D+00 0.000D+00 0.000D+00 0.000D+00 0.000D+00
 Coeff-En:   0.100D+01
 Coeff:      0.135D-01-0.165D-01-0.817D-02-0.301D-01 0.724D-01 0.268D+00
 Coeff:      0.701D+00
 Gap=     0.082 Goal=   None    Shift=    0.000
 Gap=     0.087 Goal=   None    Shift=    0.000
 RMSDP=5.68D-05 MaxDP=1.19D-02 DE=-2.16D-04 OVMax= 2.95D-02

 Cycle   8  Pass 1  IDiag  1:
 RMSU=  1.62D-05    CP:  9.67D-01  2.44D+00  8.76D-01  1.39D+00  1.28D+00
                    CP:  2.08D+00  1.97D+00
 E= -1042.26810587449     Delta-E=       -0.000227931869 Rises=F Damp=F
 DIIS: error= 5.77D-04 at cycle   8 NSaved=   8.
 NSaved= 8 IEnMin= 8 EnMin= -1042.26810587449     IErMin= 7 ErrMin= 5.42D-04
 ErrMax= 5.77D-04  0.00D+00 EMaxC= 1.00D-01 BMatC= 8.11D-05 BMatP= 7.94D-05
 IDIUse=3 WtCom= 9.95D-01 WtEn= 5.42D-03
 Coeff-Com:  0.143D-01-0.176D-01-0.129D-01-0.448D-01 0.840D-01 0.408D+00
 Coeff-Com:  0.107D+01-0.502D+00
 Coeff-En:   0.000D+00 0.000D+00 0.000D+00 0.000D+00 0.000D+00 0.000D+00
 Coeff-En:   0.000D+00 0.100D+01
 Coeff:      0.142D-01-0.175D-01-0.128D-01-0.446D-01 0.835D-01 0.406D+00
 Coeff:      0.107D+01-0.494D+00
 Gap=     0.082 Goal=   None    Shift=    0.000
 Gap=     0.087 Goal=   None    Shift=    0.000
 RMSDP=3.47D-05 MaxDP=7.60D-03 DE=-2.28D-04 OVMax= 1.89D-02

 Cycle   9  Pass 1  IDiag  1:
 RMSU=  2.62D-06    CP:  9.68D-01  2.45D+00  8.72D-01  1.39D+00  1.25D+00
                    CP:  1.75D+00  1.26D+00  2.85D-01
 E= -1042.26796043091     Delta-E=        0.000145443583 Rises=F Damp=F
 DIIS: error= 5.55D-04 at cycle   9 NSaved=   9.
 NSaved= 9 IEnMin= 8 EnMin= -1042.26810587449     IErMin= 7 ErrMin= 5.42D-04
 ErrMax= 5.55D-04  0.00D+00 EMaxC= 1.00D-01 BMatC= 7.33D-05 BMatP= 7.94D-05
 IDIUse=3 WtCom= 9.95D-01 WtEn= 5.42D-03
 Large coefficients: NSaved=  9 BigCof=   16.20 CofMax=   10.00 Det=-1.39D-07
 Inversion failed.  Reducing to  8 matrices.
 Large coefficients: NSaved=  8 BigCof=   16.41 CofMax=   10.00 Det=-1.54D-07
 Inversion failed.  Reducing to  7 matrices.
 Large coefficients: NSaved=  7 BigCof=   16.19 CofMax=   10.00 Det=-1.55D-07
 Inversion failed.  Reducing to  6 matrices.
 Large coefficients: NSaved=  6 BigCof=   14.67 CofMax=   10.00 Det=-1.77D-07
 Inversion failed.  Reducing to  5 matrices.
 Large coefficients: NSaved=  5 BigCof=   11.65 CofMax=   10.00 Det=-3.31D-07
 Inversion failed.  Reducing to  4 matrices.
 Large coefficients: NSaved=  4 BigCof=   11.67 CofMax=   10.00 Det=-3.31D-07
 Inversion failed.  Reducing to  3 matrices.
 Large coefficients: NSaved=  3 BigCof=   11.66 CofMax=   10.00 Det=-3.32D-07
 Inversion failed.  Reducing to  2 matrices.
 Large coefficients: NSaved=  2 BigCof=   10.34 CofMax=   10.00 Det=-3.93D-07
 Coeff-Com: -0.934D+01 0.103D+02
 Coeff-En:   0.000D+00 0.100D+01
 Coeff:     -0.929D+01 0.103D+02
 Gap=     0.084 Goal=   None    Shift=    0.000
 Gap=     0.088 Goal=   None    Shift=    0.000
 RMSDP=2.73D-04 MaxDP=5.87D-02 DE= 1.45D-04 OVMax= 1.48D-01

 Cycle  10  Pass 1  IDiag  1:
 RMSU=  7.38D-05    CP:  9.68D-01  2.51D+00  8.35D-01  1.44D+00  1.01D+00
                    CP: -7.27D-01 -3.00D+00 -3.00D+00  3.00D+00
 E= -1042.26706144890     Delta-E=        0.000898982002 Rises=F Damp=F
 DIIS: error= 3.06D-04 at cycle  10 NSaved=   3.
 NSaved= 3 IEnMin= 1 EnMin= -1042.26810587449     IErMin= 3 ErrMin= 3.06D-04
 ErrMax= 3.06D-04  0.00D+00 EMaxC= 1.00D-01 BMatC= 8.64D-05 BMatP= 7.33D-05
 IDIUse=3 WtCom= 9.95D-01 WtEn= 5.42D-03
 Large coefficients: NSaved=  3 BigCof=   12.12 CofMax=   10.00 Det=-3.56D-07
 Inversion failed.  Reducing to  2 matrices.
 Coeff-Com:  0.624D+00 0.376D+00
 Coeff-En:   0.000D+00 0.100D+01
 Coeff:      0.620D+00 0.380D+00
 Gap=     0.082 Goal=   None    Shift=    0.000
 Gap=     0.083 Goal=   None    Shift=    0.000
 RMSDP=2.31D-04 MaxDP=4.88D-02 DE= 8.99D-04 OVMax= 1.24D-01

 Cycle  11  Pass 1  IDiag  1:
 RMSU=  8.79D-06    CP:  9.68D-01  2.45D+00  8.67D-01  1.41D+00  1.22D+00
                    CP:  1.44D+00  2.47D-01 -9.42D-01  3.00D+00  4.50D-02
 E= -1042.26778141253     Delta-E=       -0.000719963623 Rises=F Damp=F
 DIIS: error= 5.54D-04 at cycle  11 NSaved=   3.
 NSaved= 3 IEnMin= 1 EnMin= -1042.26796043091     IErMin= 2 ErrMin= 3.06D-04
 ErrMax= 5.54D-04  0.00D+00 EMaxC= 1.00D-01 BMatC= 8.98D-05 BMatP= 7.33D-05
 IDIUse=3 WtCom= 9.95D-01 WtEn= 5.42D-03
 Coeff-Com: -0.302D+00 0.693D+00 0.608D+00
 Coeff-En:   0.000D+00 0.000D+00 0.100D+01
 Coeff:     -0.300D+00 0.690D+00 0.611D+00
 Gap=     0.083 Goal=   None    Shift=    0.000
 Gap=     0.085 Goal=   None    Shift=    0.000
 RMSDP=1.26D-04 MaxDP=2.58D-02 DE=-7.20D-04 OVMax= 6.56D-02

 Cycle  12  Pass 1  IDiag  1:
 RMSU=  1.27D-05    CP:  9.68D-01  2.49D+00  8.50D-01  1.44D+00  1.14D+00
                    CP:  3.16D-01 -2.28D+00 -3.00D+00  3.00D+00  2.63D-01
                    CP:  1.37D+00
 E= -1042.26736260563     Delta-E=        0.000418806902 Rises=F Damp=F
 DIIS: error= 4.96D-04 at cycle  12 NSaved=   4.
 NSaved= 4 IEnMin= 1 EnMin= -1042.26796043091     IErMin= 2 ErrMin= 3.06D-04
 ErrMax= 4.96D-04  0.00D+00 EMaxC= 1.00D-01 BMatC= 5.88D-05 BMatP= 7.33D-05
 IDIUse=3 WtCom= 9.95D-01 WtEn= 4.96D-03
 Rare condition: small coef for last iteration:  0.000D+00
 Coeff-Com: -0.262D+01 0.982D+00 0.588D+00 0.206D+01
 Coeff-En:   0.000D+00 0.000D+00 0.000D+00 0.100D+01
 Coeff:     -0.262D+01 0.982D+00 0.588D+00 0.206D+01
 Gap=     0.087 Goal=   None    Shift=    0.000
 Gap=     0.089 Goal=   None    Shift=    0.000
 RMSDP=4.21D-04 MaxDP=8.52D-02 DE= 4.19D-04 OVMax= 2.25D-01

 Cycle  13  Pass 1  IDiag  1:
 RMSU=  1.12D-04    CP:  9.67D-01  2.61D+00  7.86D-01  1.55D+00  7.86D-01
                    CP: -3.00D+00 -3.00D+00 -3.00D+00  3.00D+00  3.00D+00
                    CP:  3.47D-01 -3.00D+00
 E= -1042.26666341950     Delta-E=        0.000699186127 Rises=F Damp=F
 DIIS: error= 4.67D-04 at cycle  13 NSaved=   5.
 NSaved= 5 IEnMin= 1 EnMin= -1042.26796043091     IErMin= 2 ErrMin= 3.06D-04
 ErrMax= 4.67D-04  0.00D+00 EMaxC= 1.00D-01 BMatC= 2.39D-04 BMatP= 5.88D-05
 IDIUse=3 WtCom= 9.95D-01 WtEn= 4.96D-03
 Rare condition: small coef for last iteration:  0.000D+00
 Coeff-Com: -0.263D+01 0.100D+01 0.576D+00 0.207D+01-0.185D-01
 Coeff-En:   0.000D+00 0.000D+00 0.000D+00 0.000D+00 0.100D+01
 Coeff:     -0.263D+01 0.100D+01 0.576D+00 0.207D+01-0.185D-01
 Gap=     0.087 Goal=   None    Shift=    0.000
 Gap=     0.099 Goal=   None    Shift=    0.000
 RMSDP=3.51D-06 MaxDP=6.46D-04 DE= 6.99D-04 OVMax= 1.87D-03

 Cycle  14  Pass 1  IDiag  1:
 RMSU=  1.76D-06    CP:  9.67D-01  2.61D+00  7.86D-01  1.54D+00  7.89D-01
                    CP: -3.00D+00 -3.00D+00 -3.00D+00  3.00D+00  3.00D+00
                    CP:  3.01D-01 -3.00D+00  9.76D-01
 E= -1042.26666291129     Delta-E=        0.000000508206 Rises=F Damp=F
 DIIS: error= 4.68D-04 at cycle  14 NSaved=   6.
 NSaved= 6 IEnMin= 1 EnMin= -1042.26796043091     IErMin= 2 ErrMin= 3.06D-04
 ErrMax= 4.68D-04  0.00D+00 EMaxC= 1.00D-01 BMatC= 2.40D-04 BMatP= 5.88D-05
 IDIUse=3 WtCom= 9.95D-01 WtEn= 4.96D-03
 Rare condition: small coef for last iteration:  0.000D+00
 Coeff-Com: -0.276D+01 0.109D+01 0.579D+00 0.214D+01-0.661D+01 0.656D+01
 Coeff-En:   0.000D+00 0.000D+00 0.000D+00 0.000D+00 0.000D+00 0.100D+01
 Coeff:     -0.276D+01 0.109D+01 0.579D+00 0.214D+01-0.661D+01 0.656D+01
 Gap=     0.087 Goal=   None    Shift=    0.000
 Gap=     0.100 Goal=   None    Shift=    0.000
 RMSDP=1.05D-05 MaxDP=1.95D-03 DE= 5.08D-07 OVMax= 5.46D-03

 Cycle  15  Pass 1  IDiag  1:
 RMSU=  2.05D-06    CP:  9.67D-01  2.61D+00  7.88D-01  1.54D+00  7.97D-01
                    CP: -3.00D+00 -3.00D+00 -3.00D+00  3.00D+00  3.00D+00
                    CP: -4.30D-05 -3.00D+00  9.02D-01  3.00D+00
 E= -1042.26665227775     Delta-E=        0.000010633541 Rises=F Damp=F
 DIIS: error= 5.09D-04 at cycle  15 NSaved=   7.
 NSaved= 7 IEnMin= 1 EnMin= -1042.26796043091     IErMin= 2 ErrMin= 3.06D-04
 ErrMax= 5.09D-04  0.00D+00 EMaxC= 1.00D-01 BMatC= 2.82D-04 BMatP= 5.88D-05
 IDIUse=3 WtCom= 9.95D-01 WtEn= 4.96D-03
 Rare condition: small coef for last iteration:  0.000D+00
 Coeff-Com: -0.695D+00 0.484D+00 0.933D-01 0.648D+00 0.474D+01 0.294D+01
 Coeff-Com: -0.720D+01
 Coeff-En:   0.000D+00 0.000D+00 0.000D+00 0.000D+00 0.000D+00 0.000D+00
 Coeff-En:   0.100D+01
 Coeff:     -0.695D+00 0.484D+00 0.933D-01 0.648D+00 0.474D+01 0.294D+01
 Coeff:     -0.720D+01
 Gap=     0.088 Goal=   None    Shift=    0.000
 Gap=     0.087 Goal=   None    Shift=    0.000
 RMSDP=3.93D-05 MaxDP=5.43D-03 DE= 1.06D-05 OVMax= 1.42D-02

 Cycle  16  Pass 1  IDiag  1:
 RMSU=  1.39D-05    CP:  9.67D-01  2.59D+00  7.86D-01  1.54D+00  7.69D-01
                    CP: -3.00D+00 -3.00D+00 -3.00D+00  3.00D+00  3.00D+00
                    CP:  2.31D+00 -3.00D+00  1.09D+00 -2.04D+00 -3.00D+00
 E= -1042.26672210307     Delta-E=       -0.000069825317 Rises=F Damp=F
 DIIS: error= 1.04D-04 at cycle  16 NSaved=   8.
 NSaved= 8 IEnMin= 1 EnMin= -1042.26796043091     IErMin= 8 ErrMin= 1.04D-04
 ErrMax= 1.04D-04  0.00D+00 EMaxC= 1.00D-01 BMatC= 9.02D-06 BMatP= 5.88D-05
 IDIUse=3 WtCom= 9.99D-01 WtEn= 1.04D-03
 Coeff-Com: -0.978D-01 0.231D+00-0.287D-01 0.119D+00-0.461D+01 0.905D+01
 Coeff-Com: -0.432D+01 0.652D+00
 Coeff-En:   0.000D+00 0.000D+00 0.000D+00 0.000D+00 0.000D+00 0.000D+00
 Coeff-En:   0.000D+00 0.100D+01
 Coeff:     -0.977D-01 0.230D+00-0.287D-01 0.119D+00-0.460D+01 0.904D+01
 Coeff:     -0.432D+01 0.652D+00
 Gap=     0.088 Goal=   None    Shift=    0.000
 Gap=     0.084 Goal=   None    Shift=    0.000
 RMSDP=2.96D-05 MaxDP=5.10D-03 DE=-6.98D-05 OVMax= 1.53D-02

 Cycle  17  Pass 1  IDiag  1:
 RMSU=  5.26D-06    CP:  9.67D-01  2.58D+00  7.91D-01  1.53D+00  7.86D-01
                    CP: -3.00D+00 -3.00D+00 -3.00D+00  3.00D+00  3.00D+00
                    CP:  2.34D+00 -3.00D+00  9.00D-01  3.00D+00 -3.00D+00
                    CP:  1.43D+00
 E= -1042.26672177441     Delta-E=        0.000000328660 Rises=F Damp=F
 DIIS: error= 4.62D-06 at cycle  17 NSaved=   9.
 NSaved= 9 IEnMin= 1 EnMin= -1042.26796043091     IErMin= 9 ErrMin= 4.62D-06
 ErrMax= 4.62D-06  0.00D+00 EMaxC= 1.00D-01 BMatC= 1.99D-08 BMatP= 9.02D-06
 IDIUse=1 WtCom= 1.00D+00 WtEn= 0.00D+00
 Coeff-Com: -0.439D-01 0.239D-01 0.322D-02 0.268D-01-0.146D+01 0.153D+01
 Coeff-Com: -0.799D-01 0.644D-01 0.935D+00
 Coeff:     -0.439D-01 0.239D-01 0.322D-02 0.268D-01-0.146D+01 0.153D+01
 Coeff:     -0.799D-01 0.644D-01 0.935D+00
 Gap=     0.088 Goal=   None    Shift=    0.000
 Gap=     0.085 Goal=   None    Shift=    0.000
 RMSDP=1.95D-06 MaxDP=2.86D-04 DE= 3.29D-07 OVMax= 8.89D-04

 Cycle  18  Pass 1  IDiag  1:
 RMSU=  4.12D-07    CP:  9.67D-01  2.58D+00  7.91D-01  1.53D+00  7.84D-01
                    CP: -3.00D+00 -3.00D+00 -3.00D+00  3.00D+00  3.00D+00
                    CP:  2.30D+00 -3.00D+00  9.10D-01  3.00D+00 -3.00D+00
                    CP:  1.37D+00  8.56D-01
 E= -1042.26672171638     Delta-E=        0.000000058033 Rises=F Damp=F
 DIIS: error= 1.29D-05 at cycle  18 NSaved=  10.
 NSaved=10 IEnMin= 1 EnMin= -1042.26796043091     IErMin= 9 ErrMin= 4.62D-06
 ErrMax= 1.29D-05  0.00D+00 EMaxC= 1.00D-01 BMatC= 1.83D-07 BMatP= 1.99D-08
 IDIUse=1 WtCom= 1.00D+00 WtEn= 0.00D+00
 Coeff-Com:  0.163D-01-0.182D-01-0.979D-03-0.196D-01-0.203D-01-0.249D+00
 Coeff-Com:  0.243D+00-0.191D-01 0.398D+00 0.670D+00
 Coeff:      0.163D-01-0.182D-01-0.979D-03-0.196D-01-0.203D-01-0.249D+00
 Coeff:      0.243D+00-0.191D-01 0.398D+00 0.670D+00
 Gap=     0.088 Goal=   None    Shift=    0.000
 Gap=     0.084 Goal=   None    Shift=    0.000
 RMSDP=1.25D-06 MaxDP=1.82D-04 DE= 5.80D-08 OVMax= 4.76D-04

 Cycle  19  Pass 1  IDiag  1:
 RMSU=  2.40D-07    CP:  9.67D-01  2.58D+00  7.91D-01  1.53D+00  7.84D-01
                    CP: -3.00D+00 -3.00D+00 -3.00D+00  3.00D+00  3.00D+00
                    CP:  2.36D+00 -3.00D+00  9.16D-01  3.00D+00 -3.00D+00
                    CP:  1.41D+00  7.70D-01  1.09D+00
 E= -1042.26672175914     Delta-E=       -0.000000042763 Rises=F Damp=F
 DIIS: error= 7.26D-07 at cycle  19 NSaved=  11.
 NSaved=11 IEnMin= 1 EnMin= -1042.26796043091     IErMin=11 ErrMin= 7.26D-07
 ErrMax= 7.26D-07  0.00D+00 EMaxC= 1.00D-01 BMatC= 1.03D-09 BMatP= 1.99D-08
 IDIUse=1 WtCom= 1.00D+00 WtEn= 0.00D+00
 Coeff-Com:  0.703D-02-0.811D-02-0.165D-03-0.736D-02 0.119D+00-0.238D+00
 Coeff-Com:  0.109D+00-0.144D-01 0.638D-01 0.290D+00 0.679D+00
 Coeff:      0.703D-02-0.811D-02-0.165D-03-0.736D-02 0.119D+00-0.238D+00
 Coeff:      0.109D+00-0.144D-01 0.638D-01 0.290D+00 0.679D+00
 Gap=     0.088 Goal=   None    Shift=    0.000
 Gap=     0.084 Goal=   None    Shift=    0.000
 RMSDP=9.10D-08 MaxDP=9.84D-06 DE=-4.28D-08 OVMax= 2.61D-05

 Cycle  20  Pass 1  IDiag  1:
 RMSU=  6.87D-08    CP:  9.67D-01  2.58D+00  7.91D-01  1.53D+00  7.83D-01
                    CP: -3.00D+00 -3.00D+00 -3.00D+00  3.00D+00  3.00D+00
                    CP:  2.37D+00 -3.00D+00  9.17D-01  3.00D+00 -3.00D+00
                    CP:  1.41D+00  7.66D-01  1.18D+00  9.46D-01
 E= -1042.26672175965     Delta-E=       -0.000000000509 Rises=F Damp=F
 DIIS: error= 5.79D-07 at cycle  20 NSaved=  12.
 NSaved=12 IEnMin= 1 EnMin= -1042.26796043091     IErMin=12 ErrMin= 5.79D-07
 ErrMax= 5.79D-07  0.00D+00 EMaxC= 1.00D-01 BMatC= 5.46D-10 BMatP= 1.03D-09
 IDIUse=1 WtCom= 1.00D+00 WtEn= 0.00D+00
 Coeff-Com: -0.245D-02 0.787D-03 0.380D-03 0.269D-02 0.409D-01-0.462D-01
 Coeff-Com:  0.635D-02-0.302D-02-0.422D-01-0.721D-02 0.269D+00 0.781D+00
 Coeff:     -0.245D-02 0.787D-03 0.380D-03 0.269D-02 0.409D-01-0.462D-01
 Coeff:      0.635D-02-0.302D-02-0.422D-01-0.721D-02 0.269D+00 0.781D+00
 Gap=     0.088 Goal=   None    Shift=    0.000
 Gap=     0.084 Goal=   None    Shift=    0.000
 RMSDP=9.79D-08 MaxDP=1.13D-05 DE=-5.09D-10 OVMax= 3.04D-05

 Cycle  21  Pass 1  IDiag  1:
 Restarting incremental Fock formation.
 E= -1042.26672176000     Delta-E=       -0.000000000356 Rises=F Damp=F
 DIIS: error= 3.74D-07 at cycle  21 NSaved=  13.
 NSaved=13 IEnMin= 1 EnMin= -1042.26796043091     IErMin=13 ErrMin= 3.74D-07
 ErrMax= 3.74D-07  0.00D+00 EMaxC= 1.00D-01 BMatC= 1.72D-10 BMatP= 5.46D-10
 IDIUse=1 WtCom= 1.00D+00 WtEn= 0.00D+00
 Coeff-Com: -0.231D-03 0.952D-03-0.149D-03 0.728D-03 0.508D-02 0.134D-01
 Coeff-Com: -0.169D-01 0.166D-02-0.207D-01-0.582D-01-0.788D-01 0.169D+00
 Coeff-Com:  0.984D+00
 Coeff:     -0.231D-03 0.952D-03-0.149D-03 0.728D-03 0.508D-02 0.134D-01
 Coeff:     -0.169D-01 0.166D-02-0.207D-01-0.582D-01-0.788D-01 0.169D+00
 Coeff:      0.984D+00
 Gap=     0.088 Goal=   None    Shift=    0.000
 Gap=     0.084 Goal=   None    Shift=    0.000
 RMSDP=6.73D-08 MaxDP=1.08D-05 DE=-3.56D-10 OVMax= 2.82D-05

 Cycle  22  Pass 1  IDiag  1:
 RMSU=  6.72D-08    CP:  1.00D+00
 E= -1042.26672176030     Delta-E=       -0.000000000291 Rises=F Damp=F
 DIIS: error= 3.10D-07 at cycle  22 NSaved=  14.
 NSaved=14 IEnMin= 1 EnMin= -1042.26796043091     IErMin=14 ErrMin= 3.10D-07
 ErrMax= 3.10D-07  0.00D+00 EMaxC= 1.00D-01 BMatC= 7.69D-11 BMatP= 1.72D-10
 IDIUse=1 WtCom= 1.00D+00 WtEn= 0.00D+00
 Coeff-Com:  0.696D-03 0.709D-04-0.941D-04-0.821D-03-0.209D-01 0.278D-01
 Coeff-Com: -0.660D-02 0.170D-02 0.105D-01-0.192D-01-0.161D+00-0.305D+00
 Coeff-Com:  0.424D+00 0.105D+01
 Coeff:      0.696D-03 0.709D-04-0.941D-04-0.821D-03-0.209D-01 0.278D-01
 Coeff:     -0.660D-02 0.170D-02 0.105D-01-0.192D-01-0.161D+00-0.305D+00
 Coeff:      0.424D+00 0.105D+01
 Gap=     0.088 Goal=   None    Shift=    0.000
 Gap=     0.084 Goal=   None    Shift=    0.000
 RMSDP=6.50D-08 MaxDP=1.21D-05 DE=-2.91D-10 OVMax= 3.16D-05

 Cycle  23  Pass 1  IDiag  1:
 RMSU=  3.86D-08    CP:  1.00D+00  1.78D+00
 E= -1042.26672176053     Delta-E=       -0.000000000238 Rises=F Damp=F
 DIIS: error= 2.66D-07 at cycle  23 NSaved=  15.
 NSaved=15 IEnMin= 1 EnMin= -1042.26796043091     IErMin=15 ErrMin= 2.66D-07
 ErrMax= 2.66D-07  0.00D+00 EMaxC= 1.00D-01 BMatC= 3.66D-11 BMatP= 7.69D-11
 IDIUse=1 WtCom= 1.00D+00 WtEn= 0.00D+00
 Coeff-Com:  0.460D-03-0.755D-03 0.102D-03-0.814D-03-0.797D-02-0.345D-03
 Coeff-Com:  0.763D-02-0.717D-03 0.153D-01 0.486D-01 0.371D-01-0.209D+00
 Coeff-Com: -0.724D+00 0.161D+00 0.167D+01
 Coeff:      0.460D-03-0.755D-03 0.102D-03-0.814D-03-0.797D-02-0.345D-03
 Coeff:      0.763D-02-0.717D-03 0.153D-01 0.486D-01 0.371D-01-0.209D+00
 Coeff:     -0.724D+00 0.161D+00 0.167D+01
 Gap=     0.088 Goal=   None    Shift=    0.000
 Gap=     0.084 Goal=   None    Shift=    0.000
 RMSDP=9.86D-08 MaxDP=1.73D-05 DE=-2.38D-10 OVMax= 4.54D-05

 Cycle  24  Pass 1  IDiag  1:
 RMSU=  2.95D-08    CP:  1.00D+00  2.86D+00  2.56D+00
 E= -1042.26672176073     Delta-E=       -0.000000000199 Rises=F Damp=F
 DIIS: error= 2.26D-07 at cycle  24 NSaved=  16.
 NSaved=16 IEnMin= 1 EnMin= -1042.26796043091     IErMin=16 ErrMin= 2.26D-07
 ErrMax= 2.26D-07  0.00D+00 EMaxC= 1.00D-01 BMatC= 1.01D-11 BMatP= 3.66D-11
 IDIUse=1 WtCom= 1.00D+00 WtEn= 0.00D+00
 Coeff-Com:  0.197D-03-0.172D-03-0.739D-04-0.114D-03 0.444D-02-0.536D-02
 Coeff-Com:  0.673D-03-0.155D-03 0.199D-02 0.148D-01 0.387D-01 0.927D-02
 Coeff-Com: -0.264D+00-0.195D+00 0.408D+00 0.987D+00
 Coeff:      0.197D-03-0.172D-03-0.739D-04-0.114D-03 0.444D-02-0.536D-02
 Coeff:      0.673D-03-0.155D-03 0.199D-02 0.148D-01 0.387D-01 0.927D-02
 Coeff:     -0.264D+00-0.195D+00 0.408D+00 0.987D+00
 Gap=     0.088 Goal=   None    Shift=    0.000
 Gap=     0.084 Goal=   None    Shift=    0.000
 RMSDP=3.83D-08 MaxDP=7.77D-06 DE=-1.99D-10 OVMax= 1.98D-05

 Cycle  25  Pass 1  IDiag  1:
 RMSU=  2.22D-08    CP:  1.00D+00  3.00D+00  2.98D+00  1.54D+00
 E= -1042.26672176083     Delta-E=       -0.000000000095 Rises=F Damp=F
 DIIS: error= 2.06D-07 at cycle  25 NSaved=  17.
 NSaved=17 IEnMin= 1 EnMin= -1042.26796043091     IErMin=17 ErrMin= 2.06D-07
 ErrMax= 2.06D-07  0.00D+00 EMaxC= 1.00D-01 BMatC= 6.69D-12 BMatP= 1.01D-11
 IDIUse=1 WtCom= 1.00D+00 WtEn= 0.00D+00
 Coeff-Com: -0.198D-03 0.179D-03-0.282D-04 0.288D-03 0.223D-02-0.128D-02
 Coeff-Com: -0.833D-03 0.389D-04-0.283D-02-0.879D-02-0.113D-02 0.556D-01
 Coeff-Com:  0.127D+00-0.807D-01-0.342D+00 0.179D+00 0.107D+01
 Coeff:     -0.198D-03 0.179D-03-0.282D-04 0.288D-03 0.223D-02-0.128D-02
 Coeff:     -0.833D-03 0.389D-04-0.283D-02-0.879D-02-0.113D-02 0.556D-01
 Coeff:      0.127D+00-0.807D-01-0.342D+00 0.179D+00 0.107D+01
 Gap=     0.088 Goal=   None    Shift=    0.000
 Gap=     0.084 Goal=   None    Shift=    0.000
 RMSDP=2.47D-08 MaxDP=6.10D-06 DE=-9.46D-11 OVMax= 1.55D-05

 Cycle  26  Pass 1  IDiag  1:
 RMSU=  1.67D-08    CP:  1.00D+00  3.00D+00  3.00D+00  1.72D+00  1.76D+00
 E= -1042.26672176087     Delta-E=       -0.000000000040 Rises=F Damp=F
 DIIS: error= 1.91D-07 at cycle  26 NSaved=  18.
 NSaved=18 IEnMin= 1 EnMin= -1042.26796043091     IErMin=18 ErrMin= 1.91D-07
 ErrMax= 1.91D-07  0.00D+00 EMaxC= 1.00D-01 BMatC= 5.51D-12 BMatP= 6.69D-12
 IDIUse=1 WtCom= 1.00D+00 WtEn= 0.00D+00
 Coeff-Com: -0.866D-04 0.889D-04 0.486D-04 0.367D-04-0.239D-02 0.280D-02
 Coeff-Com: -0.293D-03 0.527D-04-0.172D-02-0.113D-01-0.262D-01 0.199D-02
 Coeff-Com:  0.203D+00 0.122D+00-0.347D+00-0.627D+00 0.187D+00 0.150D+01
 Coeff:     -0.866D-04 0.889D-04 0.486D-04 0.367D-04-0.239D-02 0.280D-02
 Coeff:     -0.293D-03 0.527D-04-0.172D-02-0.113D-01-0.262D-01 0.199D-02
 Coeff:      0.203D+00 0.122D+00-0.347D+00-0.627D+00 0.187D+00 0.150D+01
 Gap=     0.088 Goal=   None    Shift=    0.000
 Gap=     0.084 Goal=   None    Shift=    0.000
 RMSDP=3.59D-08 MaxDP=9.34D-06 DE=-4.00D-11 OVMax= 2.38D-05

 Cycle  27  Pass 1  IDiag  1:
 RMSU=  8.31D-09    CP:  1.00D+00  3.00D+00  3.00D+00  2.16D+00  2.88D+00
                    CP:  2.25D+00
 E= -1042.26672176096     Delta-E=       -0.000000000089 Rises=F Damp=F
 DIIS: error= 1.67D-07 at cycle  27 NSaved=  19.
 NSaved=19 IEnMin= 1 EnMin= -1042.26796043091     IErMin=19 ErrMin= 1.67D-07
 ErrMax= 1.67D-07  0.00D+00 EMaxC= 1.00D-01 BMatC= 4.05D-12 BMatP= 5.51D-12
 IDIUse=1 WtCom= 1.00D+00 WtEn= 0.00D+00
 Coeff-Com:  0.424D-03-0.317D-03 0.951D-04-0.641D-03-0.424D-02 0.335D-02
 Coeff-Com:  0.757D-03 0.500D-04 0.362D-02 0.141D-01-0.712D-03-0.107D+00
 Coeff-Com: -0.216D+00 0.192D+00 0.635D+00-0.535D+00-0.232D+01 0.355D+00
 Coeff-Com:  0.298D+01
 Coeff:      0.424D-03-0.317D-03 0.951D-04-0.641D-03-0.424D-02 0.335D-02
 Coeff:      0.757D-03 0.500D-04 0.362D-02 0.141D-01-0.712D-03-0.107D+00
 Coeff:     -0.216D+00 0.192D+00 0.635D+00-0.535D+00-0.232D+01 0.355D+00
 Coeff:      0.298D+01
 Gap=     0.088 Goal=   None    Shift=    0.000
 Gap=     0.084 Goal=   None    Shift=    0.000
 RMSDP=1.15D-07 MaxDP=2.99D-05 DE=-8.87D-11 OVMax= 7.61D-05

 Cycle  28  Pass 1  IDiag  1:
 RMSU=  9.46D-08    CP:  1.00D+00  3.00D+00  3.00D+00  3.00D+00  3.00D+00
                    CP:  3.00D+00  3.00D+00
 E= -1042.26672176105     Delta-E=       -0.000000000099 Rises=F Damp=F
 DIIS: error= 9.01D-08 at cycle  28 NSaved=  20.
 NSaved=20 IEnMin= 1 EnMin= -1042.26796043091     IErMin=20 ErrMin= 9.01D-08
 ErrMax= 9.01D-08  0.00D+00 EMaxC= 1.00D-01 BMatC= 4.86D-12 BMatP= 4.05D-12
 IDIUse=1 WtCom= 1.00D+00 WtEn= 0.00D+00
 Coeff-Com: -0.210D-03 0.657D-04-0.296D-04 0.231D-03-0.119D-02 0.182D-02
 Coeff-Com: -0.517D-03 0.926D-04 0.182D-02 0.100D-01 0.188D-01-0.133D-01
 Coeff-Com: -0.190D+00-0.909D-01 0.369D+00 0.470D+00-0.372D+00-0.128D+01
 Coeff-Com:  0.215D+00 0.186D+01
 Coeff:     -0.210D-03 0.657D-04-0.296D-04 0.231D-03-0.119D-02 0.182D-02
 Coeff:     -0.517D-03 0.926D-04 0.182D-02 0.100D-01 0.188D-01-0.133D-01
 Coeff:     -0.190D+00-0.909D-01 0.369D+00 0.470D+00-0.372D+00-0.128D+01
 Coeff:      0.215D+00 0.186D+01
 Gap=     0.088 Goal=   None    Shift=    0.000
 Gap=     0.084 Goal=   None    Shift=    0.000
 RMSDP=1.22D-07 MaxDP=3.16D-05 DE=-9.87D-11 OVMax= 8.05D-05

 Cycle  29  Pass 1  IDiag  1:
 RMSU=  3.52D-08    CP:  1.00D+00  3.00D+00  3.00D+00  3.00D+00  3.00D+00
                    CP:  3.00D+00  3.00D+00  2.23D+00
 E= -1042.26672176115     Delta-E=       -0.000000000092 Rises=F Damp=F
 DIIS: error= 5.81D-08 at cycle  29 NSaved=  20.
 NSaved=20 IEnMin= 1 EnMin= -1042.26796043091     IErMin=20 ErrMin= 5.81D-08
 ErrMax= 5.81D-08  0.00D+00 EMaxC= 1.00D-01 BMatC= 3.69D-12 BMatP= 4.05D-12
 IDIUse=1 WtCom= 1.00D+00 WtEn= 0.00D+00
 Coeff-Com:  0.325D-04 0.646D-06-0.119D-04-0.118D-04 0.601D-03-0.716D-03
 Coeff-Com:  0.929D-05 0.108D-03-0.207D-02-0.740D-03 0.847D-02 0.194D-01
 Coeff-Com: -0.198D-02-0.617D-01-0.280D-02 0.242D+00 0.429D-01-0.288D+00
 Coeff-Com: -0.106D+00 0.115D+01
 Coeff:      0.325D-04 0.646D-06-0.119D-04-0.118D-04 0.601D-03-0.716D-03
 Coeff:      0.929D-05 0.108D-03-0.207D-02-0.740D-03 0.847D-02 0.194D-01
 Coeff:     -0.198D-02-0.617D-01-0.280D-02 0.242D+00 0.429D-01-0.288D+00
 Coeff:     -0.106D+00 0.115D+01
 Gap=     0.088 Goal=   None    Shift=    0.000
 Gap=     0.084 Goal=   None    Shift=    0.000
 RMSDP=1.34D-08 MaxDP=3.16D-06 DE=-9.23D-11 OVMax= 8.05D-06

 Cycle  30  Pass 1  IDiag  1:
 RMSU=  4.63D-09    CP:  1.00D+00  3.00D+00  3.00D+00  3.00D+00  3.00D+00
                    CP:  3.00D+00  3.00D+00  2.36D+00  9.78D-01
 E= -1042.26672176111     Delta-E=        0.000000000039 Rises=F Damp=F
 DIIS: error= 9.24D-09 at cycle  30 NSaved=  20.
 NSaved=20 IEnMin= 1 EnMin= -1042.26796043091     IErMin=20 ErrMin= 9.24D-09
 ErrMax= 9.24D-09  0.00D+00 EMaxC= 1.00D-01 BMatC= 1.11D-13 BMatP= 3.69D-12
 IDIUse=1 WtCom= 1.00D+00 WtEn= 0.00D+00
 Coeff-Com: -0.775D-05 0.130D-04-0.515D-07 0.900D-05-0.289D-04 0.270D-06
 Coeff-Com: -0.154D-03-0.157D-02-0.145D-02 0.491D-02 0.214D-01 0.205D-02
 Coeff-Com: -0.509D-01-0.226D-01 0.126D+00 0.786D-01-0.131D+00-0.133D+00
 Coeff-Com:  0.399D+00 0.709D+00
 Coeff:     -0.775D-05 0.130D-04-0.515D-07 0.900D-05-0.289D-04 0.270D-06
 Coeff:     -0.154D-03-0.157D-02-0.145D-02 0.491D-02 0.214D-01 0.205D-02
 Coeff:     -0.509D-01-0.226D-01 0.126D+00 0.786D-01-0.131D+00-0.133D+00
 Coeff:      0.399D+00 0.709D+00
 Gap=     0.088 Goal=   None    Shift=    0.000
 Gap=     0.084 Goal=   None    Shift=    0.000
 RMSDP=1.24D-09 MaxDP=2.31D-07 DE= 3.91D-11 OVMax= 5.88D-07

 Error on total polarization charges =  0.05633
 SCF Done:  E(UPBE1PBE) =  -1042.26672176     A.U. after   30 cycles
            NFock= 30  Conv=0.12D-08     -V/T= 2.0850
 <Sx>= 0.0000 <Sy>= 0.0000 <Sz>= 1.0000 <S**2>= 2.0039 S= 1.0013
 <L.S>= 0.000000000000E+00
 KE= 9.606327764758D+02 PE=-4.080041043288D+03 EE= 1.250882171183D+03
 SMD-CDS (non-electrostatic) energy       (kcal/mol) =       0.09
 (included in total energy above)
 Annihilation of the first spin contaminant:
 S**2 before annihilation     2.0039,   after     2.0000
 Leave Link  502 at Tue Nov 12 04:28:12 2019, MaxMem=  1342177280 cpu:            5916.8 elap:             248.2
 (Enter /usr/g16/l801.exe)
 DoSCS=F DFT=T ScalE2(SS,OS)=  1.000000  1.000000
 Range of M.O.s used for correlation:     1   420
 NBasis=   420 NAE=    53 NBE=    51 NFC=     0 NFV=     0
 NROrb=    420 NOA=    53 NOB=    51 NVA=   367 NVB=   369

 **** Warning!!: The smallest alpha delta epsilon is  0.87624497D-01


 **** Warning!!: The smallest beta delta epsilon is  0.84316312D-01

 Leave Link  801 at Tue Nov 12 04:28:12 2019, MaxMem=  1342177280 cpu:               0.7 elap:               0.0
 (Enter /usr/g16/l1101.exe)
 Using compressed storage, NAtomX=    29.
 Will process     30 centers per pass.
   1 Symmetry operations used in ECPInt.
 ECPInt:  NShTT=   17391 NPrTT=   50365 LenC2=   15924 LenP2D=   34696.
 LDataN:  DoStor=T MaxTD1= 9 Len=  602
 Number of processors reduced to  11 by ecpmxn.
 R6Disp: Adding Grimme-D3(BJ) dispersion energy 1st derivatives to the gradient.
 Leave Link 1101 at Tue Nov 12 04:28:15 2019, MaxMem=  1342177280 cpu:              39.9 elap:               2.3
 (Enter /usr/g16/l1102.exe)
 Symmetrizing basis deriv contribution to polar:
 IMax=3 JMax=2 DiffMx= 0.00D+00
 Leave Link 1102 at Tue Nov 12 04:28:15 2019, MaxMem=  1342177280 cpu:               1.6 elap:               0.1
 (Enter /usr/g16/l1110.exe)
 Forming Gx(P) for the SCF density, NAtomX=    29.
 Integral derivatives from FoFJK, PRISM(SPDF).
 Do as many integral derivatives as possible in FoFJK.
 G2DrvN: MDV=    1342175056.
 G2DrvN: will do    30 centers at a time, making    1 passes.
 Calling FoFCou, ICntrl=  3107 FMM=F I1Cent=   0 AccDes= 0.00D+00.
 FoFJK:  IHMeth= 1 ICntrl=    3107 DoSepK=F KAlg= 0 I1Cent=           0 FoldK=F
 IRaf=         0 NMat=       1 IRICut=       1 DoRegI=T DoRafI=F ISym2E= 0 IDoP0=0 IntGTp=1.
 FoFCou: FMM=F IPFlag=           0 FMFlag=      100000 FMFlg1=           0
         NFxFlg=           0 DoJE=F BraDBF=F KetDBF=F FulRan=T
         wScrn=  0.000000 ICntrl=      3107 IOpCl=  1 I1Cent=           0 NGrid=           0
         NMat0=    1 NMatS0=      1 NMatT0=    0 NMatD0=    1 NMtDS0=    0 NMtDT0=    0
 Symmetry not used in FoFCou.
 Defaulting to unpruned grid for atomic number  78.
 Defaulting to unpruned grid for atomic number  78.
 Defaulting to unpruned grid for atomic number  78.
 Defaulting to unpruned grid for atomic number  78.
 Defaulting to unpruned grid for atomic number  78.
 Defaulting to unpruned grid for atomic number  78.
 Defaulting to unpruned grid for atomic number  78.
 Defaulting to unpruned grid for atomic number  78.
 Defaulting to unpruned grid for atomic number  78.
 Defaulting to unpruned grid for atomic number  78.
 Defaulting to unpruned grid for atomic number  78.
 Defaulting to unpruned grid for atomic number  78.
 Defaulting to unpruned grid for atomic number  78.
 Defaulting to unpruned grid for atomic number  78.
 Defaulting to unpruned grid for atomic number  78.
 Defaulting to unpruned grid for atomic number  78.
 Defaulting to unpruned grid for atomic number  78.
 Defaulting to unpruned grid for atomic number  78.
 Defaulting to unpruned grid for atomic number  78.
 Defaulting to unpruned grid for atomic number  78.
 Defaulting to unpruned grid for atomic number  78.
 Defaulting to unpruned grid for atomic number  78.
 Defaulting to unpruned grid for atomic number  78.
 Defaulting to unpruned grid for atomic number  78.
 NEqPCM:  Using equilibrium solvation (IEInf=0, Eps=   2.2706, EpsInf=   2.2533)
 G2PCM: DoFxE=T DoFxN=T DoGrad=T DoDP/DQ/DG/TGxP=FFFF NFrqRd=   0 IEInf=0 SqF1=F DoCFld=F IF1Alg=4.
 GePol: Maximum number of non-zero 1st derivatives   =     242
 End of G2Drv F.D. properties file   721 does not exist.
 End of G2Drv F.D. properties file   722 does not exist.
 End of G2Drv F.D. properties file   788 does not exist.
 Leave Link 1110 at Tue Nov 12 04:32:30 2019, MaxMem=  1342177280 cpu:            6119.2 elap:             255.2
 (Enter /usr/g16/l1002.exe)
 Minotr:  UHF open shell wavefunction.
          IDoAtm=11111111111111111111111111111
 NEqPCM:  Using equilibrium solvation (IEInf=0, Eps=   2.2706, EpsInf=   2.2533)
          Direct CPHF calculation.
          Differentiating once with respect to nuclear coordinates.
          Requested convergence is 1.0D-08 RMS, and 1.0D-07 maximum.
          Secondary convergence is 1.0D-12 RMS, and 1.0D-12 maximum.
          NewPWx=T KeepS1=F KeepF1=F KeepIn=T MapXYZ=F SortEE=F KeepMc=T.
 Defaulting to unpruned grid for atomic number  78.
         8720 words used for storage of precomputed grid.
 Two-electron integrals replicated using symmetry.
          MDV=    1342177280 using IRadAn=       1.
          Solving linear equations simultaneously, MaxMat=     384.
 FoF2E skips out because all densities are zero.
 CalDSu exits because no D1Ps are significant.
 FoFJK:  IHMeth= 1 ICntrl=       0 DoSepK=F KAlg= 0 I1Cent=           0 FoldK=F
 IRaf= 840000000 NMat=      48 IRICut=     120 DoRegI=T DoRafI=T ISym2E= 2 IDoP0=3 IntGTp=3.
 Defaulting to unpruned grid for atomic number  78.
 Defaulting to unpruned grid for atomic number  78.
 Defaulting to unpruned grid for atomic number  78.
 Defaulting to unpruned grid for atomic number  78.
 Defaulting to unpruned grid for atomic number  78.
 Defaulting to unpruned grid for atomic number  78.
 Defaulting to unpruned grid for atomic number  78.
 Defaulting to unpruned grid for atomic number  78.
 Defaulting to unpruned grid for atomic number  78.
 Defaulting to unpruned grid for atomic number  78.
 Defaulting to unpruned grid for atomic number  78.
 Defaulting to unpruned grid for atomic number  78.
 Defaulting to unpruned grid for atomic number  78.
 Defaulting to unpruned grid for atomic number  78.
 Defaulting to unpruned grid for atomic number  78.
 Defaulting to unpruned grid for atomic number  78.
 Defaulting to unpruned grid for atomic number  78.
 Defaulting to unpruned grid for atomic number  78.
 Defaulting to unpruned grid for atomic number  78.
 Defaulting to unpruned grid for atomic number  78.
 Defaulting to unpruned grid for atomic number  78.
 Defaulting to unpruned grid for atomic number  78.
 Defaulting to unpruned grid for atomic number  78.
 Defaulting to unpruned grid for atomic number  78.
          There are    90 degrees of freedom in the 1st order CPHF.  IDoFFX=6 NUNeed=     0.
     84 vectors produced by pass  0 Test12= 4.25D-14 1.11D-09 XBig12= 1.73D-01 1.75D-01.
 AX will form    48 AO Fock derivatives at one time.
     84 vectors produced by pass  1 Test12= 4.25D-14 1.11D-09 XBig12= 6.21D-02 6.89D-02.
     84 vectors produced by pass  2 Test12= 4.25D-14 1.11D-09 XBig12= 1.67D-03 9.54D-03.
     84 vectors produced by pass  3 Test12= 4.25D-14 1.11D-09 XBig12= 2.12D-05 1.14D-03.
     84 vectors produced by pass  4 Test12= 4.25D-14 1.11D-09 XBig12= 6.20D-07 1.40D-04.
[...]
     19          1           0       -2.871672    0.590353    2.347301
     20          6           0       -3.027931   -1.143638   -0.164711
     21          1           0       -4.118572   -1.072726   -0.193337
     22          1           0       -2.671450   -1.613615   -1.082248
     23          1           0       -2.734194   -1.763400    0.684069
     24          6           0       -3.084941    1.467865   -1.324286
     25          1           0       -2.803613    1.044820   -2.289568
     26          1           0       -4.174547    1.468076   -1.221539
     27          1           0       -2.722789    2.497761   -1.288589
     28          1           0       -0.186084   -3.094743    0.115130
     29          1           0        0.139203   -2.414599    0.093280
 ---------------------------------------------------------------------
                    Distance matrix (angstroms):
                    1          2          3          4          5
     1  Pt   0.000000
     2  P    2.284754   0.000000
     3  P    2.285327   4.569988   0.000000
     4  C    3.523822   1.827433   5.657330   0.000000
     5  H    3.693808   2.414379   5.659445   1.091033   0.000000
     6  H    4.480707   2.454834   6.680709   1.094731   1.788661
     7  H    3.652656   2.414983   5.598976   1.092266   1.765387
     8  C    3.450034   1.820013   5.564658   2.849551   3.054433
     9  H    3.612785   2.416241   5.540455   3.814957   4.089627
    10  H    4.413107   2.428947   6.597345   2.946299   3.241618
    11  H    3.583981   2.417297   5.511487   3.115298   2.923106
    12  C    3.523302   1.827953   5.642621   2.809820   3.778102
    13  H    3.664707   2.415068   5.600021   3.065879   4.094826
    14  H    4.481176   2.455747   6.670206   2.917161   3.907038
    15  H    3.678676   2.414697   5.616410   3.780119   4.659215
    16  C    3.543979   5.682135   1.829724   6.311103   6.089294
    17  H    3.691795   5.651084   2.416109   6.045824   5.874036
    18  H    4.498541   6.702903   2.460030   7.397083   7.182967
    19  H    3.701158   5.668652   2.415654   6.163360   5.762259
    20  C    3.453282   5.566501   1.819547   6.853109   6.749696
    21  H    4.416529   6.599153   2.430073   7.831429   7.710611
    22  H    3.582612   5.498579   2.415602   6.992477   7.005582
    23  H    3.615410   5.551789   2.412884   6.727696   6.469035
    24  C    3.500510   5.614828   1.825578   6.757487   6.974232
    25  H    3.671317   5.606364   2.413979   6.957993   7.285017
    26  H    4.461258   6.645157   2.450295   7.738757   7.879085
    27  H    3.619570   5.542396   2.414075   6.494956   6.792322
    28  H    3.604703   4.368522   4.170207   5.760927   5.581338
    29  H    2.922558   3.625290   3.797191   5.045250   4.918955
                    6          7          8          9         10
     6  H    0.000000
     7  H    1.782151   0.000000
     8  C    3.027683   3.816016   0.000000
     9  H    4.003902   4.692462   1.091216   0.000000
    10  H    2.713111   3.966424   1.093331   1.778593   0.000000
    11  H    3.421086   4.116044   1.091014   1.774390   1.780059
    12  C    2.903348   3.081698   2.843134   3.071344   2.967274
    13  H    3.262487   2.938043   3.810193   4.084016   3.976217
    14  H    2.587855   3.303775   3.008896   3.348173   2.719612
    15  H    3.904729   4.103718   3.059528   2.886376   3.294348
    16  C    7.400166   6.106829   6.737009   6.918400   7.728944
    17  H    7.133857   5.665470   6.924219   7.223219   7.840164
    18  H    8.484211   7.175935   7.717911   7.818193   8.734787
    19  H    7.244629   6.074957   6.527606   6.784210   7.508871
    20  C    7.816397   7.014840   6.062563   5.803991   7.153212
    21  H    8.822117   7.916761   7.153663   6.890242   8.243769
    22  H    7.873976   7.231728   5.849171   5.406822   6.923556
    23  H    7.677289   7.003264   5.816689   5.621829   6.904364
    24  C    7.729148   6.510050   6.811382   6.677340   7.784927
    25  H    7.849650   6.792573   6.692640   6.403466   7.646531
    26  H    8.738403   7.474096   7.785021   7.635534   8.785894
    27  H    7.451607   6.084292   6.960539   6.942992   7.856677
    28  H    6.412928   6.437971   3.755019   3.290101   4.750994
    29  H    5.719129   5.703207   3.152188   2.769528   4.195930
                   11         12         13         14         15
    11  H    0.000000
    12  C    3.814553   0.000000
    13  H    4.693102   1.092312   0.000000
    14  H    4.007527   1.094829   1.782596   0.000000
    15  H    4.083576   1.091055   1.765078   1.788927   0.000000
    16  C    6.489414   6.941468   6.800182   7.905411   7.117819
    17  H    6.748856   6.814418   6.528286   7.751315   7.113612
    18  H    7.466488   7.893698   7.726122   8.889097   7.991834
    19  H    6.112704   7.136401   7.116836   8.025545   7.377714
    20  C    5.867732   6.696850   6.872774   7.686451   6.470121
    21  H    6.944647   7.684010   7.782542   8.698543   7.444697
    22  H    5.778326   6.433653   6.684656   7.416616   6.040045
    23  H    5.436816   6.894988   7.188090   7.806417   6.743928
    24  C    6.972808   6.211742   5.931364   7.299929   6.051344
    25  H    6.971251   5.975552   5.748673   7.068688   5.634005
    26  H    7.867706   7.302984   7.018135   8.390028   7.132809
    27  H    7.198455   5.993643   5.535603   7.062377   5.953935
    28  H    3.371286   5.624132   6.322499   6.286869   5.346378
    29  H    2.845960   4.918027   5.597535   5.604173   4.701020
                   16         17         18         19         20
    16  C    0.000000
    17  H    1.092254   0.000000
    18  H    1.095091   1.783457   0.000000
    19  H    1.091247   1.764138   1.788500   0.000000
    20  C    2.834284   3.802385   2.994060   3.056361   0.000000
    21  H    2.949948   3.958557   2.694214   3.282595   1.093318
    22  H    3.806482   4.686517   3.992225   4.081589   1.090794
    23  H    3.065328   4.079512   3.336762   2.885376   1.091244
    24  C    2.809931   3.055245   2.931399   3.781013   2.857938
    25  H    3.777259   4.089142   3.912840   4.659584   3.058542
    26  H    2.890044   3.230609   2.589402   3.899294   3.041819
    27  H    3.092091   2.938116   3.335339   4.108536   3.823087
    28  H    5.372563   6.120467   5.992878   5.076899   3.458499
    29  H    5.062478   5.711577   5.781601   4.814116   3.422374
                   21         22         23         24         25
    21  H    0.000000
    22  H    1.782382   0.000000
    23  H    1.778587   1.773767   0.000000
    24  C    2.966823   3.118505   3.820678   0.000000
    25  H    3.256885   2.922733   4.090652   1.090817   0.000000
    26  H    2.741534   3.431549   4.018507   1.094439   1.788656
    27  H    3.986999   4.116871   4.695636   1.092298   1.766218
    28  H    4.432625   3.131213   2.930705   5.593986   5.456190
    29  H    4.473413   3.150113   3.004913   5.241958   5.128910
                   26         27         28         29
    26  H    0.000000
    27  H    1.781108   0.000000
    28  H    6.205952   6.299317   0.000000
    29  H    5.950828   5.850798   0.754244   0.000000
 Stoichiometry    C6H20P2Pt(3)
 Framework group  C1[X(C6H20P2Pt)]
 Deg. of freedom    81
 Full point group                 C1      NOp   1
 RotChk:  IX=0 Diff= 3.38D-02
 Largest Abelian subgroup         C1      NOp   1
 Largest concise Abelian subgroup C1      NOp   1
                         Standard orientation:                         
 ---------------------------------------------------------------------
 Center     Atomic      Atomic             Coordinates (Angstroms)
 Number     Number       Type             X           Y           Z
 ---------------------------------------------------------------------
      1         78           0       -0.000342   -0.042000    0.011462
      2         15           0       -2.285063   -0.044616   -0.000624
      3         15           0        2.284923   -0.045896   -0.004854
      4          6           0       -3.135393   -0.942511    1.344825
      5          1           0       -2.864603   -0.490769    2.300312
      6          1           0       -4.223012   -0.926367    1.221291
      7          1           0       -2.791092   -1.979055    1.353636
      8          6           0       -3.025014    1.615490    0.094071
      9          1           0       -2.719902    2.203055   -0.773354
     10          1           0       -4.116071    1.547385    0.112198
     11          1           0       -2.682699    2.120225    0.998711
     12          6           0       -3.119546   -0.763923   -1.459269
     13          1           0       -2.794992   -1.800016   -1.578944
     14          1           0       -4.209515   -0.737623   -1.359637
     15          1           0       -2.815570   -0.212553   -2.350331
     16          6           0        3.167312   -0.646936    1.481090
     17          1           0        2.856316   -1.673569    1.686823
     18          1           0        4.254557   -0.617848    1.353512
     19          1           0        2.879376   -0.033571    2.336483
     20          6           0        3.028096    1.597671   -0.243881
     21          1           0        4.118686    1.526010   -0.272587
     22          1           0        2.668933    2.030119   -1.178665
     23          1           0        2.736389    2.251091    0.579990
     24          6           0        3.083092   -1.058487   -1.297263
     25          1           0        2.798972   -0.674836   -2.278063
     26          1           0        4.172971   -1.054202   -1.197555
     27          1           0        2.721479   -2.086218   -1.219044
     28          1           0        0.186178    3.557571   -0.035285
     29          1           0       -0.138874    2.876996   -0.028783
 ---------------------------------------------------------------------
 Rotational constants (GHZ):           1.7068635           0.3752576           0.3681646
 Leave Link  202 at Tue Nov 12 06:35:10 2019, MaxMem=  1342177280 cpu:               0.2 elap:               0.0
 (Enter /usr/g16/l301.exe)
 Standard basis: def2TZVP (5D, 7F)
 Ernie: Thresh=  0.10000D-02 Tol=  0.10000D-05 Strict=F.
 There are   466 symmetry adapted cartesian basis functions of A   symmetry.
 There are   420 symmetry adapted basis functions of A   symmetry.
   420 basis functions,   679 primitive gaussians,   466 cartesian basis functions
    53 alpha electrons       51 beta electrons
       nuclear repulsion energy       809.5483500199 Hartrees.
 IExCor= 1009 DFT=T Ex+Corr=PBE1PBE ExCW=0 ScaHFX=  0.250000
 ScaDFX=  0.750000  0.750000  1.000000  1.000000 ScalE2=  1.000000  1.000000
 IRadAn=      5 IRanWt=     -1 IRanGd=            0 ICorTp=0 IEmpDi=141
 NAtoms=   29 NActive=   29 NUniq=   29 SFac= 1.00D+00 NAtFMM=   60 NAOKFM=F Big=F
 Integral buffers will be    131072 words long.
 Raffenetti 2 integral format.
 Two-electron integral symmetry is turned on.
 R6Disp:  Grimme-D3(BJ) Dispersion energy=       -0.0299525770 Hartrees.
 Nuclear repulsion after empirical dispersion term =      809.5183974430 Hartrees.
 ------------------------------------------------------------------------------
 Polarizable Continuum Model (PCM)
 =================================
 Model                : PCM.
 Atomic radii         : SMD-Coulomb.
 Polarization charges : Total charges.
 Charge compensation  : None.
 Solution method      : Matrix inversion.
 Cavity type          : VdW (van der Waals Surface) (Alpha=1.000).
 Cavity algorithm     : GePol (No added spheres)
                        Default sphere list used, NSphG=   29.
                        Lebedev-Laikov grids with approx.  5.0 points / Ang**2.
                        Smoothing algorithm: York/Karplus (Gamma=1.0000).
                        Polarization charges: spherical gaussians, with
                                              point-specific exponents (IZeta= 3).
                        Self-potential: point-specific (ISelfS= 7).
                        Self-field    : sphere-specific E.n sum rule (ISelfD= 2).
 1st derivatives      : Analytical E(r).r(x)/FMM algorithm (CHGder, D1EAlg=3).
                        Cavity 1st derivative terms included.
 Solvent              : Benzene, Eps=   2.270600 Eps(inf)=   2.253301
 ------------------------------------------------------------------------------
 GePol: Number of generator spheres                  =      29
 GePol: Total number of spheres                      =      29
 GePol: Number of exposed spheres                    =      29 (100.00%)
 GePol: Number of points                             =    2192
 GePol: Average weight of points                     =       0.12
 GePol: Minimum weight of points                     =   0.92D-10
 GePol: Maximum weight of points                     =    0.22001
 GePol: Number of points with low weight             =     105
 GePol: Fraction of low-weight points (<1% of avg)   =       4.79%
 GePol: Cavity surface area                          =    264.395 Ang**2
 GePol: Cavity volume                                =    209.827 Ang**3
 ------------------------------------------------------------------------------
 Atomic radii for non-electrostatic terms: SMD-CDS.
 ------------------------------------------------------------------------------
 PCM non-electrostatic energy =         0.0002455089 Hartrees.
 Nuclear repulsion after PCM non-electrostatic terms =      809.5186429518 Hartrees.
 Leave Link  301 at Tue Nov 12 06:35:10 2019, MaxMem=  1342177280 cpu:               2.2 elap:               0.1
 (Enter /usr/g16/l302.exe)
 NPDir=0 NMtPBC=     1 NCelOv=     1 NCel=       1 NClECP=     1 NCelD=      1
         NCelK=      1 NCelE2=     1 NClLst=     1 CellRange=     0.0.
 One-electron integrals computed using PRISM.
 One-electron integral symmetry used in STVInt
   1 Symmetry operations used in ECPInt.
 ECPInt:  NShTT=   17391 NPrTT=   50365 LenC2=   15718 LenP2D=   34129.
 LDataN:  DoStor=T MaxTD1= 8 Len=  415
 NBasis=   420 RedAO= T EigKep=  6.78D-04  NBF=   420
 NBsUse=   420 1.00D-06 EigRej= -1.00D+00 NBFU=   420
 Precomputing XC quadrature grid using
 IXCGrd= 4 IRadAn=           5 IRanWt=          -1 IRanGd=           0 AccXCQ= 0.00D+00.
 Defaulting to unpruned grid for atomic number  78.
 Generated NRdTot=       0 NPtTot=           0 NUsed=           0 NTot=          32
 NSgBfM=   464   464   464   464   464 MxSgAt=    29 MxSgA2=    29.
 Leave Link  302 at Tue Nov 12 06:35:11 2019, MaxMem=  1342177280 cpu:              16.7 elap:               0.7
 (Enter /usr/g16/l303.exe)
 DipDrv:  MaxL=1.
 Leave Link  303 at Tue Nov 12 06:35:11 2019, MaxMem=  1342177280 cpu:               1.8 elap:               0.1
 (Enter /usr/g16/l401.exe)
 Initial guess from the checkpoint file:  "Pt_tst.chk"
 B after Tr=    -0.000000   -0.000000    0.000000
         Rot=    0.999915   -0.013019    0.000018   -0.000239 Ang=  -1.49 deg.
 Guess basis will be translated and rotated to current coordinates.
 JPrj=2 DoOrth=T DoCkMO=T.
 Initial guess <Sx>= 0.0000 <Sy>= 0.0000 <Sz>= 1.0000 <S**2>= 2.0035 S= 1.0012
 Generating alternative initial guess.
 ExpMin= 4.92D-02 ExpMax= 5.24D+04 ExpMxC= 1.79D+03 IAcc=2 IRadAn=         4 AccDes= 0.00D+00
 Harris functional with IExCor= 1009 and IRadAn=       4 diagonalized for initial guess.
 HarFok:  IExCor= 1009 AccDes= 0.00D+00 IRadAn=         4 IDoV= 1 UseB2=F ITyADJ=14
 ICtDFT=  3500011 ScaDFX=  1.000000  1.000000  1.000000  1.000000
 Defaulting to unpruned grid for atomic number  78.
 FoFCou: FMM=F IPFlag=           0 FMFlag=      100000 FMFlg1=           0
         NFxFlg=           0 DoJE=T BraDBF=F KetDBF=T FulRan=T
         wScrn=  0.000000 ICntrl=       500 IOpCl=  0 I1Cent=   200000004 NGrid=           0
         NMat0=    1 NMatS0=      1 NMatT0=    0 NMatD0=    1 NMtDS0=    0 NMtDT0=    0
 Petite list used in FoFCou.
 Harris En= -1042.38726033835    
 Leave Link  401 at Tue Nov 12 06:35:12 2019, MaxMem=  1342177280 cpu:              38.3 elap:               1.6
 (Enter /usr/g16/l502.exe)
 Integral symmetry usage will be decided dynamically.
 UHF open shell SCF:
 Using DIIS extrapolation, IDIIS=  1040.
 NGot=  1342177280 LenX=  1341727311 LenY=  1341509689
 Requested convergence on RMS density matrix=1.00D-08 within 128 cycles.
 Requested convergence on MAX density matrix=1.00D-06.
 Requested convergence on             energy=1.00D-06.
 No special actions if energy rises.
 Fock matrices will be formed incrementally for  20 cycles.

 Cycle   1  Pass 1  IDiag  1:
 FoFJK:  IHMeth= 1 ICntrl=       0 DoSepK=F KAlg= 0 I1Cent=           0 FoldK=F
 IRaf= 840000000 NMat=       1 IRICut=       1 DoRegI=T DoRafI=F ISym2E= 0 IDoP0=0 IntGTp=1.
 FoFCou: FMM=F IPFlag=           0 FMFlag=      100000 FMFlg1=           0
         NFxFlg=           0 DoJE=F BraDBF=F KetDBF=F FulRan=T
         wScrn=  0.000000 ICntrl=         0 IOpCl=  1 I1Cent=           0 NGrid=           0
         NMat0=    1 NMatS0=      1 NMatT0=    0 NMatD0=    1 NMtDS0=    0 NMtDT0=    0
 Symmetry not used in FoFCou.
 Defaulting to unpruned grid for atomic number  78.
 Defaulting to unpruned grid for atomic number  78.
 Defaulting to unpruned grid for atomic number  78.
 Defaulting to unpruned grid for atomic number  78.
 Defaulting to unpruned grid for atomic number  78.
 Defaulting to unpruned grid for atomic number  78.
 Defaulting to unpruned grid for atomic number  78.
 Defaulting to unpruned grid for atomic number  78.
 Defaulting to unpruned grid for atomic number  78.
 Defaulting to unpruned grid for atomic number  78.
 Defaulting to unpruned grid for atomic number  78.
 Defaulting to unpruned grid for atomic number  78.
 Defaulting to unpruned grid for atomic number  78.
 Defaulting to unpruned grid for atomic number  78.
 Defaulting to unpruned grid for atomic number  78.
 Defaulting to unpruned grid for atomic number  78.
 Defaulting to unpruned grid for atomic number  78.
 Defaulting to unpruned grid for atomic number  78.
 Defaulting to unpruned grid for atomic number  78.
 Defaulting to unpruned grid for atomic number  78.
 Defaulting to unpruned grid for atomic number  78.
 Defaulting to unpruned grid for atomic number  78.
 Defaulting to unpruned grid for atomic number  78.
 Defaulting to unpruned grid for atomic number  78.
 Inv3:  Mode=1 IEnd=    14414592.
 Iteration    1 A*A^-1 deviation from unit magnitude is 6.22D-15 for    502.
 Iteration    1 A*A^-1 deviation from orthogonality  is 3.39D-15 for   1716    468.
 Iteration    1 A^-1*A deviation from unit magnitude is 5.33D-15 for    502.
 Iteration    1 A^-1*A deviation from orthogonality  is 9.83D-14 for   1508   1422.
 E= -1042.27988443150    
 DIIS: error= 3.73D-03 at cycle   1 NSaved=   1.
 NSaved= 1 IEnMin= 1 EnMin= -1042.27988443150     IErMin= 1 ErrMin= 3.73D-03
 ErrMax= 3.73D-03  0.00D+00 EMaxC= 1.00D-01 BMatC= 2.08D-03 BMatP= 2.08D-03
 IDIUse=3 WtCom= 9.63D-01 WtEn= 3.73D-02
 Coeff-Com:  0.100D+01
 Coeff-En:   0.100D+01
 Coeff:      0.100D+01
 Gap=     0.356 Goal=   None    Shift=    0.000
 Gap=     0.507 Goal=   None    Shift=    0.000
 GapD=    0.356 DampG=1.000 DampE=1.000 DampFc=1.0000 IDamp=-1.
 RMSDP=9.98D-05 MaxDP=7.11D-03              OVMax= 7.29D-03

 Cycle   2  Pass 1  IDiag  1:
 RMSU=  9.98D-05    CP:  1.00D+00
 E= -1042.28047393582     Delta-E=       -0.000589504324 Rises=F Damp=F
 DIIS: error= 2.96D-04 at cycle   2 NSaved=   2.
 NSaved= 2 IEnMin= 2 EnMin= -1042.28047393582     IErMin= 2 ErrMin= 2.96D-04
 ErrMax= 2.96D-04  0.00D+00 EMaxC= 1.00D-01 BMatC= 1.94D-05 BMatP= 2.08D-03
 IDIUse=3 WtCom= 9.97D-01 WtEn= 2.96D-03
 Coeff-Com: -0.671D-01 0.107D+01
 Coeff-En:   0.000D+00 0.100D+01
 Coeff:     -0.669D-01 0.107D+01
 Gap=     0.060 Goal=   None    Shift=    0.000
 Gap=     0.098 Goal=   None    Shift=    0.000
 RMSDP=1.80D-05 MaxDP=1.65D-03 DE=-5.90D-04 OVMax= 1.57D-03

 Cycle   3  Pass 1  IDiag  1:
 RMSU=  1.43D-05    CP:  1.00D+00  1.11D+00
