 Entering Gaussian System, Link 0=g16
 Input=PMe3_ts.gjf
 Output=PMe3_ts.log
 Initial command:
 /usr/g16/l1.exe "/scratch/wsr/gaussian/Gau-32713.inp" -scrdir="/scratch/wsr/gaussian/"
 Entering Link 1 = /usr/g16/l1.exe PID=     32714.
  
 Copyright (c) 1988,1990,1992,1993,1995,1998,2003,2009,2016,
            Gaussian, Inc.  All Rights Reserved.
  
 This is part of the Gaussian(R) 16 program.  It is based on
 the Gaussian(R) 09 system (copyright 2009, Gaussian, Inc.),
 the Gaussian(R) 03 system (copyright 2003, Gaussian, Inc.),
 the Gaussian(R) 98 system (copyright 1998, Gaussian, Inc.),
 the Gaussian(R) 94 system (copyright 1995, Gaussian, Inc.),
 the Gaussian 92(TM) system (copyright 1992, Gaussian, Inc.),
 the Gaussian 90(TM) system (copyright 1990, Gaussian, Inc.),
 the Gaussian 88(TM) system (copyright 1988, Gaussian, Inc.),
 the Gaussian 86(TM) system (copyright 1986, Carnegie Mellon
 University), and the Gaussian 82(TM) system (copyright 1983,
 Carnegie Mellon University). Gaussian is a federally registered
 trademark of Gaussian, Inc.
  
 This software contains proprietary and confidential information,
 including trade secrets, belonging to Gaussian, Inc.
  
 This software is provided under written license and may be
 used, copied, transmitted, or stored only in accord with that
 written license.
  
 The following legend is applicable only to US Government
 contracts under FAR:
  
                    RESTRICTED RIGHTS LEGEND
  
 Use, reproduction and disclosure by the US Government is
 subject to restrictions as set forth in subparagraphs (a)
 and (c) of the Commercial Computer Software - Restricted
 Rights clause in FAR 52.227-19.
  
 Gaussian, Inc.
 340 Quinnipiac St., Bldg. 40, Wallingford CT 06492
  
  
 ---------------------------------------------------------------
 Warning -- This program may not be used in any manner that
 competes with the business of Gaussian, Inc. or will provide
 assistance to any competitor of Gaussian, Inc.  The licensee
 of this program is prohibited from giving any competitor of
 Gaussian, Inc. access to this program.  By using this program,
 the user acknowledges that Gaussian, Inc. is engaged in the
 business of creating and licensing software in the field of
 computational chemistry and represents and warrants to the
 licensee that it is not a competitor of Gaussian, Inc. and that
 it will not use this program in any manner prohibited above.
 ---------------------------------------------------------------
  

 Cite this work as:
 Gaussian 16, Revision A.03,
 M. J. Frisch, G. W. Trucks, H. B. Schlegel, G. E. Scuseria, 
 M. A. Robb, J. R. Cheeseman, G. Scalmani, V. Barone, 
 G. A. Petersson, H. Nakatsuji, X. Li, M. Caricato, A. V. Marenich, 
 J. Bloino, B. G. Janesko, R. Gomperts, B. Mennucci, H. P. Hratchian, 
 J. V. Ortiz, A. F. Izmaylov, J. L. Sonnenberg, D. Williams-Young, 
 F. Ding, F. Lipparini, F. Egidi, J. Goings, B. Peng, A. Petrone, 
 T. Henderson, D. Ranasinghe, V. G. Zakrzewski, J. Gao, N. Rega, 
 G. Zheng, W. Liang, M. Hada, M. Ehara, K. Toyota, R. Fukuda, 
 J. Hasegawa, M. Ishida, T. Nakajima, Y. Honda, O. Kitao, H. Nakai, 
 T. Vreven, K. Throssell, J. A. Montgomery, Jr., J. E. Peralta, 
 F. Ogliaro, M. J. Bearpark, J. J. Heyd, E. N. Brothers, K. N. Kudin, 
 V. N. Staroverov, T. A. Keith, R. Kobayashi, J. Normand, 
 K. Raghavachari, A. P. Rendell, J. C. Burant, S. S. Iyengar, 
 J. Tomasi, M. Cossi, J. M. Millam, M. Klene, C. Adamo, R. Cammi, 
 J. W. Ochterski, R. L. Martin, K. Morokuma, O. Farkas, 
 J. B. Foresman, and D. J. Fox, Gaussian, Inc., Wallingford CT, 2016.
 
 ******************************************
 Gaussian 16:  ES64L-G16RevA.03 25-Dec-2016
                 1-Nov-2019 
 ******************************************
 %chk=PMe3_ts.chk
 %nprocshared=24
 Will use up to   24 processors via shared memory.
 ----------------------------------------------------------------------
 #p opt=(ts,calcfc,noeigen,restart,maxcycle=300) b3lyp/6-31g(d) em=gd3b
 j scrf=(smd,solvent=benzene)
 ----------------------------------------------------------------------
 1/5=1,6=300,10=4,11=1,18=20,26=3,35=1/3;
 2/9=110,12=2,17=6,18=5,40=1/2;
 3/5=1,6=6,7=1,11=2,25=1,30=1,70=32205,71=2,72=12,74=-5,124=41,140=1/1,2,3;
 4/5=5,16=3,69=1/1;
 5/5=2,38=5,53=12/2;
 8/6=4,10=90,11=11/1;
 11/6=1,8=1,9=11,15=111,16=1/1,2,10;
 10/6=1,13=1/2;
 6/7=2,8=2,9=2,10=2,28=1/1;
 7/10=1,18=20,25=1/1,2,3,16;
 1/5=1,6=300,10=4,11=1,18=20,26=3/3(2);
 2/9=110/2;
 99//99;
 2/9=110/2;
 3/5=1,6=6,7=1,11=2,25=1,30=1,70=32205,71=1,72=12,74=-5,124=41/1,2,3;
 4/5=5,16=3,69=1/1;
 5/5=2,38=5,53=12/2;
 7//1,2,3,16;
 1/5=1,6=300,11=1,18=20,26=3/3(-5);
 2/9=110/2;
 6/7=2,8=2,9=2,10=2,19=2,28=1/1;
 99/9=1/99;
 Leave Link    1 at Fri Nov  1 04:23:12 2019, MaxMem=           0 cpu:               3.7 elap:               0.2
 (Enter /usr/g16/l103.exe)

 GradGradGradGradGradGradGradGradGradGradGradGradGradGradGradGradGradGrad
 Berny optimization.
 Restoring state from the checkpoint file "PMe3_ts.chk".
 ONIOM results not found on unit 2.
 Title:  Title Card Required
 Route:  #p opt=(ts,calcfc,noeigen) b3lyp/6-31g(d) em=gd3bj scrf=(smd,solvent=ben
 zene)
 FncErr=1.00D-07 GrdErr=1.00D-06 EigMax=2.50D+02 EigMin=1.00D-04
 FormGI is forming the generalized inverse of G from B-inverse, IUseBI=4.
 Internal  Forces:  Max     0.000565096 RMS     0.000181690
 Number of steps in this run=    300 maximum allowed number of steps=    100.
 Search for a saddle point.
 Step number  88 out of a maximum of  300
 All quantities printed in internal units (Hartrees-Bohrs-Radians)
 Swapping is turned off.
 Second derivative matrix not updated -- analytic derivatives used.
 ITU=  0  0  0  0  0  0  0  0  0  0  0  0  0  0  0  0  0  0  0  0
 ITU=  0  0  0  0  0  0  0  0  0  0  0  0  0  0  0  0  0  0  0  0
 ITU=  0  0  0  0  0  0  0  0  0  0  0  0  0  0  0  0  0  0  0  0
 ITU=  0  0  0  0  0  0  0  0  0  0  0  0  0  0  0  0  0  0  0
     Eigenvalues ---    0.00014   0.00030   0.00042   0.00457   0.02037
     Eigenvalues ---    0.02566   0.02880   0.03159   0.03271   0.03381
     Eigenvalues ---    0.03427   0.03808   0.03825   0.04487   0.06159
     Eigenvalues ---    0.10079   0.10496   0.10678   0.11119   0.11288
     Eigenvalues ---    0.11483   0.12049   0.12173   0.13227   0.13572
     Eigenvalues ---    0.14501   0.17541   0.18588   0.20198   0.21053
     Eigenvalues ---    0.33228   0.33299   0.33949   0.34073   0.34153
     Eigenvalues ---    0.34419   0.34524   0.35041   0.35097
 Eigenvectors required to have negative eigenvalues:
                          D7        D9        D8        D25       D26
   1                   -0.50802  -0.50744  -0.50120  -0.15130  -0.14963
                          D28       D27       D34       D29       D35
   1                   -0.13746  -0.13707  -0.13693  -0.13579  -0.13526
 Eigenvalue     1 is   1.36D-04 should be less than     0.000000 Eigenvector:
                          D7        D9        D8        D25       D26
   1                   -0.50802  -0.50744  -0.50120  -0.15130  -0.14963
                          D28       D27       D34       D29       D35
   1                   -0.13746  -0.13707  -0.13693  -0.13579  -0.13526
 RFO step:  Lambda0=1.513382974D-04 Lambda=-5.35594343D-05.
 Linear search not attempted -- option 19 set.
 Iteration  1 RMS(Cart)=  0.01342738 RMS(Int)=  0.00127150
 Iteration  2 RMS(Cart)=  0.00024064 RMS(Int)=  0.00006097
 Iteration  3 RMS(Cart)=  0.00000056 RMS(Int)=  0.00006097
 ITry= 1 IFail=0 DXMaxC= 5.76D-02 DCOld= 1.00D+10 DXMaxT= 3.00D-01 DXLimC= 3.00D+00 Rises=F
 Variable       Old X    -DE/DX   Delta X   Delta X   Delta X     New X
                                 (Linear)    (Quad)   (Total)
    R1        3.65103   0.00047   0.00000   0.00604   0.00604   3.65706
    R2        3.52215   0.00010   0.00000   0.00024   0.00024   3.52239
    R3        3.50559   0.00004   0.00000  -0.00080  -0.00080   3.50480
    R4        2.86145  -0.00057   0.00000  -0.00999  -0.00997   2.85148
    R5        2.70368   0.00007   0.00000   0.00035   0.00037   2.70405
    R6        2.07706   0.00028   0.00000   0.00067   0.00067   2.07774
    R7        2.07646   0.00008   0.00000   0.00035   0.00035   2.07681
    R8        2.07628  -0.00000   0.00000   0.00009   0.00009   2.07637
    R9        2.07051   0.00005   0.00000   0.00043   0.00043   2.07094
   R10        2.07100   0.00003   0.00000   0.00006   0.00006   2.07106
   R11        2.06597   0.00020   0.00000   0.00037   0.00037   2.06634
   R12        2.07096  -0.00024   0.00000  -0.00084  -0.00084   2.07012
   R13        2.06918   0.00008   0.00000   0.00046   0.00046   2.06964
   R14        2.06574   0.00015   0.00000   0.00006   0.00006   2.06580
   R15        3.86221  -0.00051   0.00000  -0.01526  -0.01528   3.84693
    A1        1.63981   0.00008   0.00000  -0.00079  -0.00057   1.63924
    A2        1.65607  -0.00028   0.00000  -0.00159  -0.00177   1.65430
    A3        3.08458  -0.00019   0.00000  -0.00949  -0.00947   3.07512
    A4        1.55657  -0.00009   0.00000  -0.00526  -0.00531   1.55126
    A5        2.11617   0.00030   0.00000   0.00200   0.00199   2.11816
    A6        1.50748  -0.00007   0.00000   0.00420   0.00438   1.51186
    A7        2.09995   0.00002   0.00000   0.00940   0.00939   2.10935
    A8        1.53080   0.00043   0.00000   0.00758   0.00743   1.53823
    A9        2.05553  -0.00028   0.00000  -0.01018  -0.01019   2.04534
   A10        1.92706   0.00000   0.00000  -0.00137  -0.00137   1.92569
   A11        1.91254  -0.00016   0.00000  -0.00210  -0.00210   1.91044
   A12        1.96584  -0.00007   0.00000   0.00125   0.00125   1.96709
   A13        1.88026   0.00015   0.00000   0.00198   0.00198   1.88224
   A14        1.88807   0.00007   0.00000   0.00186   0.00186   1.88992
   A15        1.88768   0.00001   0.00000  -0.00153  -0.00153   1.88615
   A16        1.88381   0.00027   0.00000   0.00100   0.00100   1.88481
   A17        1.87907  -0.00022   0.00000  -0.00028  -0.00028   1.87879
   A18        1.99031   0.00004   0.00000  -0.00033  -0.00033   1.98999
   A19        1.87232  -0.00005   0.00000  -0.00094  -0.00094   1.87138
   A20        1.91534  -0.00011   0.00000  -0.00111  -0.00111   1.91423
   A21        1.91893   0.00007   0.00000   0.00162   0.00162   1.92055
   A22        1.87947   0.00023   0.00000   0.00577   0.00577   1.88524
   A23        1.89407  -0.00029   0.00000  -0.00354  -0.00355   1.89053
   A24        1.97901   0.00001   0.00000  -0.00232  -0.00233   1.97668
   A25        1.87513   0.00003   0.00000   0.00038   0.00038   1.87551
   A26        1.91333  -0.00008   0.00000   0.00056   0.00056   1.91389
   A27        1.91962   0.00010   0.00000  -0.00062  -0.00063   1.91898
    D1       -3.11189   0.00012   0.00000   0.01123   0.01123  -3.10066
    D2       -1.04355   0.00020   0.00000   0.01153   0.01154  -1.03202
    D3        1.05853   0.00007   0.00000   0.00896   0.00896   1.06750
    D4        1.04451  -0.00016   0.00000   0.00952   0.00953   1.05404
    D5        3.11285  -0.00008   0.00000   0.00983   0.00984   3.12268
    D6       -1.06825  -0.00021   0.00000   0.00726   0.00726  -1.06099
    D7       -1.44280  -0.00004   0.00000   0.05446   0.05444  -1.38836
    D8        0.62554   0.00005   0.00000   0.05476   0.05475   0.68029
    D9        2.72762  -0.00009   0.00000   0.05219   0.05218   2.77980
   D10       -1.01162   0.00013   0.00000   0.02026   0.02026  -0.99136
   D11        1.05672   0.00022   0.00000   0.02056   0.02057   1.07729
   D12       -3.12438   0.00008   0.00000   0.01799   0.01800  -3.10638
   D13        2.07706   0.00004   0.00000  -0.03338  -0.03332   2.04374
   D14       -2.19012  -0.00000   0.00000  -0.03411  -0.03406  -2.22418
   D15       -0.05597  -0.00005   0.00000  -0.03247  -0.03241  -0.08838
   D16       -2.49305  -0.00020   0.00000  -0.03543  -0.03545  -2.52850
   D17       -0.47705  -0.00024   0.00000  -0.03617  -0.03619  -0.51323
   D18        1.65711  -0.00028   0.00000  -0.03452  -0.03454   1.62257
   D19       -1.00769   0.00023   0.00000  -0.02417  -0.02424  -1.03193
   D20        1.00831   0.00019   0.00000  -0.02491  -0.02498   0.98334
   D21       -3.14071   0.00014   0.00000  -0.02326  -0.02333   3.11914
   D22        0.48235   0.00009   0.00000  -0.02759  -0.02756   0.45479
   D23        2.49835   0.00005   0.00000  -0.02832  -0.02829   2.47006
   D24       -1.65067   0.00001   0.00000  -0.02668  -0.02665  -1.67732
   D25        2.09281   0.00011   0.00000   0.01101   0.01114   2.10395
   D26       -2.16562   0.00012   0.00000   0.01266   0.01279  -2.15283
   D27       -0.02719   0.00004   0.00000   0.00773   0.00786  -0.01932
   D28        0.38879   0.00014   0.00000   0.01260   0.01258   0.40138
   D29        2.41356   0.00015   0.00000   0.01425   0.01423   2.42779
   D30       -1.73120   0.00007   0.00000   0.00932   0.00931  -1.72189
   D31       -1.08349  -0.00001   0.00000   0.00321   0.00306  -1.08043
   D32        0.94127  -0.00000   0.00000   0.00487   0.00471   0.94598
   D33        3.07969  -0.00008   0.00000  -0.00006  -0.00021   3.07948
   D34       -2.59069  -0.00017   0.00000   0.00317   0.00321  -2.58748
   D35       -0.56593  -0.00016   0.00000   0.00483   0.00486  -0.56107
   D36        1.57250  -0.00024   0.00000  -0.00010  -0.00007   1.57243
         Item               Value     Threshold  Converged?
 Maximum Force            0.000565     0.000450     NO 
 RMS     Force            0.000182     0.000300     YES
 Maximum Displacement     0.057626     0.001800     NO 
 RMS     Displacement     0.013432     0.001200     NO 
 Predicted change in Energy=-2.109314D-05
 GradGradGradGradGradGradGradGradGradGradGradGradGradGradGradGradGradGrad

 Leave Link  103 at Fri Nov  1 04:23:21 2019, MaxMem=   280000000 cpu:             143.4 elap:               8.5
 (Enter /usr/g16/l202.exe)
                          Input orientation:                          
 ---------------------------------------------------------------------
 Center     Atomic      Atomic             Coordinates (Angstroms)
 Number     Number       Type             X           Y           Z
 ---------------------------------------------------------------------
      1         15           0        0.262292   -0.215441    0.806011
      2          6           0       -0.925955    1.288227    0.537330
      3          1           0       -1.809068    1.197997    1.186060
      4          1           0       -0.405432    2.218526    0.804543
      5          1           0       -1.269680    1.376646   -0.502535
      6          6           0        1.545634    0.421574   -0.386307
      7          1           0        2.466613    0.610567    0.176782
      8          1           0        1.761442   -0.380121   -1.101731
      9          1           0        1.246992    1.328670   -0.918889
     10          6           0       -0.983215   -1.490400    0.293226
     11          1           0       -0.575417   -2.036783   -0.564213
     12          1           0       -1.100515   -2.206491    1.113548
     13          1           0       -1.954281   -1.063421    0.029129
     14          1           0        1.222296   -1.342309    1.098322
     15          1           0        0.323108    0.117044    2.196438
 ---------------------------------------------------------------------
                    Distance matrix (angstroms):
                    1          2          3          4          5
     1  P    0.000000
     2  C    1.935235   0.000000
     3  H    2.536291   1.099491   0.000000
     4  H    2.523896   1.099001   1.776859   0.000000
     5  H    2.567873   1.098765   1.781631   1.778803   0.000000
     6  C    1.863968   2.777219   3.785392   2.907545   2.975175
     7  H    2.436648   3.478324   4.432287   3.350859   3.874047
     8  H    2.431883   3.562585   4.524709   3.883580   3.554289
     9  H    2.515789   2.616087   3.713138   2.548051   2.551331
    10  C    1.854659   2.789916   2.950706   3.788326   2.989190
    11  H    2.428283   3.520222   3.879324   4.473258   3.483863
    12  H    2.432304   3.546203   3.478196   4.489922   3.934364
    13  H    2.497160   2.616480   2.544324   3.710980   2.589454
    14  H    1.508936   3.442298   3.956011   3.926239   4.020623
    15  H    1.430920   2.384212   2.595284   2.623808   3.377578
                    6          7          8          9         10
     6  C    0.000000
     7  H    1.095897   0.000000
     8  H    1.095957   1.764462   0.000000
     9  H    1.093460   1.789872   1.793895   0.000000
    10  C    3.242297   4.040909   3.272884   3.793443   0.000000
    11  H    3.251773   4.100181   2.914509   3.843598   1.095461
    12  H    4.019751   4.640879   4.053873   4.705206   1.095205
    13  H    3.824553   4.729518   3.943646   4.107188   1.093173
    14  H    2.328079   2.492245   2.461039   3.347220   2.352529
    15  H    2.873653   2.986167   3.632341   3.467977   2.812930
                   11         12         13         14         15
    11  H    0.000000
    12  H    1.766186   0.000000
    13  H    1.789066   1.792063   0.000000
    14  H    2.545209   2.478406   3.363272   0.000000
    15  H    3.614902   2.932264   3.358158   2.035709   0.000000
 Stoichiometry    C3H11P
 Framework group  C1[X(C3H11P)]
 Deg. of freedom    39
 Full point group                 C1      NOp   1
 RotChk:  IX=0 Diff= 1.69D+00
 Largest Abelian subgroup         C1      NOp   1
 Largest concise Abelian subgroup C1      NOp   1
                         Standard orientation:                         
 ---------------------------------------------------------------------
 Center     Atomic      Atomic             Coordinates (Angstroms)
 Number     Number       Type             X           Y           Z
 ---------------------------------------------------------------------
      1         15           0       -0.009004   -0.205393    0.434734
      2          6           0        0.028576    1.646660   -0.125286
      3          1           0       -0.844670    2.183742    0.272036
      4          1           0        0.931409    2.131112    0.272209
      5          1           0        0.034550    1.759221   -1.218254
      6          6           0        1.615213   -0.618294   -0.381239
      7          1           0        2.321836   -0.914883    0.402157
      8          1           0        1.452913   -1.493778   -1.020228
      9          1           0        2.039143    0.200838   -0.968571
     10          6           0       -1.626887   -0.583426   -0.389466
     11          1           0       -1.458108   -1.386973   -1.114629
     12          1           0       -2.318651   -0.965200    0.368942
     13          1           0       -2.066587    0.280916   -0.894050
     14          1           0       -0.002562   -1.619835    0.960281
     15          1           0       -0.055622    0.236092    1.795046
 ---------------------------------------------------------------------
 Rotational constants (GHZ):           6.0484969           4.6775485           3.3226813
 Leave Link  202 at Fri Nov  1 04:23:21 2019, MaxMem=   280000000 cpu:               3.1 elap:               0.2
 (Enter /usr/g16/l301.exe)
 Standard basis: 6-31G(d) (6D, 7F)
 Ernie: Thresh=  0.10000D-02 Tol=  0.10000D-05 Strict=F.
 There are    86 symmetry adapted cartesian basis functions of A   symmetry.
 There are    86 symmetry adapted basis functions of A   symmetry.
    86 basis functions,   180 primitive gaussians,    86 cartesian basis functions
    22 alpha electrons       22 beta electrons
       nuclear repulsion energy       195.3638678240 Hartrees.
 IExCor=  402 DFT=T Ex+Corr=B3LYP ExCW=0 ScaHFX=  0.200000
 ScaDFX=  0.800000  0.720000  1.000000  0.810000 ScalE2=  1.000000  1.000000
 IRadAn=      5 IRanWt=     -1 IRanGd=            0 ICorTp=0 IEmpDi=141
 NAtoms=   15 NActive=   15 NUniq=   15 SFac= 1.00D+00 NAtFMM=   60 NAOKFM=F Big=F
 Integral buffers will be    131072 words long.
 Raffenetti 2 integral format.
 Two-electron integral symmetry is turned on.
 R6Disp:  Grimme-D3(BJ) Dispersion energy=       -0.0210726773 Hartrees.
 Nuclear repulsion after empirical dispersion term =      195.3427951468 Hartrees.
 Force inversion solution in PCM.
 ------------------------------------------------------------------------------
 Polarizable Continuum Model (PCM)
 =================================
 Model                : PCM.
 Atomic radii         : SMD-Coulomb.
 Polarization charges : Total charges.
 Charge compensation  : None.
 Solution method      : Matrix inversion.
 Cavity type          : VdW (van der Waals Surface) (Alpha=1.000).
 Cavity algorithm     : GePol (No added spheres)
                        Default sphere list used, NSphG=   15.
                        Lebedev-Laikov grids with approx.  5.0 points / Ang**2.
                        Smoothing algorithm: York/Karplus (Gamma=1.0000).
                        Polarization charges: spherical gaussians, with
                                              point-specific exponents (IZeta= 3).
                        Self-potential: point-specific (ISelfS= 7).
                        Self-field    : sphere-specific E.n sum rule (ISelfD= 2).
 1st derivatives      : Analytical E(r).r(x)/FMM algorithm (CHGder, D1EAlg=3).
                        Cavity 1st derivative terms included.
 2nd derivatives      : Analytical E(r).r(xy)/FMM algorithm (CHGder, D2EAlg=3).
                        Cavity 2nd derivative terms included.
 Solvent              : Benzene, Eps=   2.270600 Eps(inf)=   2.253301
 ------------------------------------------------------------------------------
 Spheres list:
 ISph  on   Nord     Re0    Alpha      Xe            Ye            Ze
    1   P      1    2.1200  1.000     -0.009004     -0.205393      0.434734
    2   C      2    1.8500  1.000      0.028576      1.646660     -0.125286
    3   H      3    1.2000  1.000     -0.844670      2.183742      0.272036
    4   H      4    1.2000  1.000      0.931409      2.131112      0.272209
    5   H      5    1.2000  1.000      0.034550      1.759221     -1.218254
    6   C      6    1.8500  1.000      1.615213     -0.618294     -0.381239
    7   H      7    1.2000  1.000      2.321836     -0.914883      0.402157
    8   H      8    1.2000  1.000      1.452913     -1.493778     -1.020228
    9   H      9    1.2000  1.000      2.039143      0.200838     -0.968571
   10   C     10    1.8500  1.000     -1.626887     -0.583426     -0.389466
   11   H     11    1.2000  1.000     -1.458108     -1.386973     -1.114629
   12   H     12    1.2000  1.000     -2.318651     -0.965200      0.368942
   13   H     13    1.2000  1.000     -2.066587      0.280916     -0.894050
   14   H     14    1.2000  1.000     -0.002562     -1.619835      0.960281
   15   H     15    1.2000  1.000     -0.055622      0.236092      1.795046
 ------------------------------------------------------------------------------
 GePol: Number of generator spheres                  =      15
 GePol: Total number of spheres                      =      15
 GePol: Number of exposed spheres                    =      15 (100.00%)
 GePol: Number of points                             =    1077
 GePol: Average weight of points                     =       0.12
 GePol: Minimum weight of points                     =   0.22D-11
 GePol: Maximum weight of points                     =    0.20615
 GePol: Number of points with low weight             =      55
 GePol: Fraction of low-weight points (<1% of avg)   =       5.11%
 GePol: Cavity surface area                          =    125.768 Ang**2
 GePol: Cavity volume                                =     99.657 Ang**3
 ------------------------------------------------------------------------------
 Atomic radii for non-electrostatic terms: SMD-CDS.
 ------------------------------------------------------------------------------
 PCM non-electrostatic energy =         0.0003767891 Hartrees.
 Nuclear repulsion after PCM non-electrostatic terms =      195.3431719359 Hartrees.
 Leave Link  301 at Fri Nov  1 04:23:21 2019, MaxMem=   280000000 cpu:               4.4 elap:               0.3
 (Enter /usr/g16/l302.exe)
 NPDir=0 NMtPBC=     1 NCelOv=     1 NCel=       1 NClECP=     1 NCelD=      1
         NCelK=      1 NCelE2=     1 NClLst=     1 CellRange=     0.0.
 One-electron integrals computed using PRISM.
 One-electron integral symmetry used in STVInt
 NBasis=    86 RedAO= T EigKep=  4.97D-03  NBF=    86
 NBsUse=    86 1.00D-06 EigRej= -1.00D+00 NBFU=    86
 Precomputing XC quadrature grid using
 IXCGrd= 4 IRadAn=           5 IRanWt=          -1 IRanGd=           0 AccXCQ= 0.00D+00.
 Generated NRdTot=       0 NPtTot=           0 NUsed=           0 NTot=          32
 NSgBfM=    86    86    86    86    86 MxSgAt=    15 MxSgA2=    15.
 Leave Link  302 at Fri Nov  1 04:23:23 2019, MaxMem=   280000000 cpu:              27.7 elap:               1.5
 (Enter /usr/g16/l303.exe)
 DipDrv:  MaxL=1.
 Leave Link  303 at Fri Nov  1 04:23:23 2019, MaxMem=   280000000 cpu:               5.6 elap:               0.3
 (Enter /usr/g16/l401.exe)
 Initial guess from the checkpoint file:  "PMe3_ts.chk"
 B after Tr=    -0.000000    0.000000    0.000000
         Rot=    0.001348   -0.000064    0.000467    0.999999 Ang=-179.85 deg.
 Guess basis will be translated and rotated to current coordinates.
 JPrj=2 DoOrth=T DoCkMO=T.
 Generating alternative initial guess.
 ExpMin= 9.98D-02 ExpMax= 1.94D+04 ExpMxC= 2.91D+03 IAcc=2 IRadAn=         4 AccDes= 0.00D+00
 Harris functional with IExCor=  402 and IRadAn=       4 diagonalized for initial guess.
 HarFok:  IExCor=  402 AccDes= 0.00D+00 IRadAn=         4 IDoV= 1 UseB2=F ITyADJ=14
 ICtDFT=  3500011 ScaDFX=  1.000000  1.000000  1.000000  1.000000
 FoFCou: FMM=F IPFlag=           0 FMFlag=      100000 FMFlg1=           0
         NFxFlg=           0 DoJE=T BraDBF=F KetDBF=T FulRan=T
         wScrn=  0.000000 ICntrl=       500 IOpCl=  0 I1Cent=   200000004 NGrid=           0
         NMat0=    1 NMatS0=      1 NMatT0=    0 NMatD0=    1 NMtDS0=    0 NMtDT0=    0
 Petite list used in FoFCou.
 Harris En= -462.315116455729    
 Leave Link  401 at Fri Nov  1 04:23:26 2019, MaxMem=   280000000 cpu:              54.3 elap:               3.0
 (Enter /usr/g16/l502.exe)
 Integral symmetry usage will be decided dynamically.
 Closed shell SCF:
 Using DIIS extrapolation, IDIIS=  1040.
 NGot=   280000000 LenX=   279981836 LenY=   279973999
 Requested convergence on RMS density matrix=1.00D-08 within 128 cycles.
 Requested convergence on MAX density matrix=1.00D-06.
 Requested convergence on             energy=1.00D-06.
 No special actions if energy rises.
 Fock matrices will be formed incrementally for  20 cycles.

 Cycle   1  Pass 1  IDiag  1:
 FoFJK:  IHMeth= 1 ICntrl=       0 DoSepK=F KAlg= 0 I1Cent=           0 FoldK=F
 IRaf= 990000000 NMat=       1 IRICut=       1 DoRegI=T DoRafI=F ISym2E= 0 IDoP0=0 IntGTp=1.
 FoFCou: FMM=F IPFlag=           0 FMFlag=      100000 FMFlg1=           0
         NFxFlg=           0 DoJE=F BraDBF=F KetDBF=F FulRan=T
         wScrn=  0.000000 ICntrl=         0 IOpCl=  0 I1Cent=           0 NGrid=           0
         NMat0=    1 NMatS0=      1 NMatT0=    0 NMatD0=    1 NMtDS0=    0 NMtDT0=    0
 Symmetry not used in FoFCou.
 Inv3:  Mode=1 IEnd=     3479787.
 Iteration    1 A*A^-1 deviation from unit magnitude is 3.77D-15 for   1072.
 Iteration    1 A*A^-1 deviation from orthogonality  is 3.56D-15 for    726    472.
 Iteration    1 A^-1*A deviation from unit magnitude is 3.77D-15 for   1072.
 Iteration    1 A^-1*A deviation from orthogonality  is 1.85D-15 for    910    834.
 E= -462.242928946220    
 DIIS: error= 8.43D-04 at cycle   1 NSaved=   1.
 NSaved= 1 IEnMin= 1 EnMin= -462.242928946220     IErMin= 1 ErrMin= 8.43D-04
 ErrMax= 8.43D-04  0.00D+00 EMaxC= 1.00D-01 BMatC= 1.19D-04 BMatP= 1.19D-04
 IDIUse=3 WtCom= 9.92D-01 WtEn= 8.43D-03
 Coeff-Com:  0.100D+01
 Coeff-En:   0.100D+01
 Coeff:      0.100D+01
 Gap=     1.349 Goal=   None    Shift=    0.000
 RMSDP=2.07D-04 MaxDP=3.46D-03              OVMax= 4.02D-03

 Cycle   2  Pass 1  IDiag  1:
 RMSU=  2.07D-04    CP:  1.00D+00
 E= -462.243188085781     Delta-E=       -0.000259139560 Rises=F Damp=F
 DIIS: error= 1.14D-04 at cycle   2 NSaved=   2.
 NSaved= 2 IEnMin= 2 EnMin= -462.243188085781     IErMin= 2 ErrMin= 1.14D-04
 ErrMax= 1.14D-04  0.00D+00 EMaxC= 1.00D-01 BMatC= 1.91D-06 BMatP= 1.19D-04
 IDIUse=3 WtCom= 9.99D-01 WtEn= 1.14D-03
 Coeff-Com: -0.786D-01 0.108D+01
 Coeff-En:   0.000D+00 0.100D+01
 Coeff:     -0.786D-01 0.108D+01
 Gap=     0.268 Goal=   None    Shift=    0.000
 RMSDP=4.02D-05 MaxDP=5.45D-04 DE=-2.59D-04 OVMax= 8.36D-04

 Cycle   3  Pass 1  IDiag  1:
 RMSU=  3.41D-05    CP:  1.00D+00  1.10D+00
 E= -462.243190106125     Delta-E=       -0.000002020345 Rises=F Damp=F
 DIIS: error= 1.43D-04 at cycle   3 NSaved=   3.
 NSaved= 3 IEnMin= 3 EnMin= -462.243190106125     IErMin= 2 ErrMin= 1.14D-04
 ErrMax= 1.43D-04  0.00D+00 EMaxC= 1.00D-01 BMatC= 1.71D-06 BMatP= 1.91D-06
 IDIUse=3 WtCom= 9.99D-01 WtEn= 1.43D-03
 Coeff-Com: -0.528D-01 0.586D+00 0.467D+00
 Coeff-En:   0.000D+00 0.889D-01 0.911D+00
 Coeff:     -0.528D-01 0.585D+00 0.468D+00
 Gap=     0.268 Goal=   None    Shift=    0.000
 RMSDP=1.84D-05 MaxDP=3.69D-04 DE=-2.02D-06 OVMax= 4.60D-04

 Cycle   4  Pass 1  IDiag  1:
 RMSU=  9.87D-06    CP:  1.00D+00  1.12D+00  5.59D-01
 E= -462.243191870188     Delta-E=       -0.000001764062 Rises=F Damp=F
 DIIS: error= 1.32D-05 at cycle   4 NSaved=   4.
 NSaved= 4 IEnMin= 4 EnMin= -462.243191870188     IErMin= 4 ErrMin= 1.32D-05
 ErrMax= 1.32D-05  0.00D+00 EMaxC= 1.00D-01 BMatC= 1.66D-08 BMatP= 1.71D-06
 IDIUse=1 WtCom= 1.00D+00 WtEn= 0.00D+00
 Coeff-Com: -0.788D-02 0.749D-01 0.120D+00 0.813D+00
 Coeff:     -0.788D-02 0.749D-01 0.120D+00 0.813D+00
 Gap=     0.268 Goal=   None    Shift=    0.000
 RMSDP=2.35D-06 MaxDP=3.74D-05 DE=-1.76D-06 OVMax= 5.06D-05

 Cycle   5  Pass 1  IDiag  1:
 RMSU=  1.90D-06    CP:  1.00D+00  1.12D+00  5.94D-01  9.51D-01
 E= -462.243191887688     Delta-E=       -0.000000017500 Rises=F Damp=F
 DIIS: error= 2.97D-06 at cycle   5 NSaved=   5.
 NSaved= 5 IEnMin= 5 EnMin= -462.243191887688     IErMin= 5 ErrMin= 2.97D-06
 ErrMax= 2.97D-06  0.00D+00 EMaxC= 1.00D-01 BMatC= 1.51D-09 BMatP= 1.66D-08
 IDIUse=1 WtCom= 1.00D+00 WtEn= 0.00D+00
 Coeff-Com: -0.358D-03-0.976D-03 0.217D-01 0.301D+00 0.678D+00
 Coeff:     -0.358D-03-0.976D-03 0.217D-01 0.301D+00 0.678D+00
 Gap=     0.268 Goal=   None    Shift=    0.000
 RMSDP=7.28D-07 MaxDP=2.50D-05 DE=-1.75D-08 OVMax= 1.23D-05

 Cycle   6  Pass 1  IDiag  1:
 RMSU=  4.56D-07    CP:  1.00D+00  1.12D+00  5.99D-01  9.79D-01  7.59D-01
 E= -462.243191889295     Delta-E=       -0.000000001607 Rises=F Damp=F
 DIIS: error= 1.01D-06 at cycle   6 NSaved=   6.
 NSaved= 6 IEnMin= 6 EnMin= -462.243191889295     IErMin= 6 ErrMin= 1.01D-06
 ErrMax= 1.01D-06  0.00D+00 EMaxC= 1.00D-01 BMatC= 1.60D-10 BMatP= 1.51D-09
 IDIUse=1 WtCom= 1.00D+00 WtEn= 0.00D+00
 Coeff-Com:  0.406D-03-0.594D-02 0.118D-02 0.796D-01 0.303D+00 0.622D+00
 Coeff:      0.406D-03-0.594D-02 0.118D-02 0.796D-01 0.303D+00 0.622D+00
 Gap=     0.268 Goal=   None    Shift=    0.000
 RMSDP=1.77D-07 MaxDP=5.05D-06 DE=-1.61D-09 OVMax= 2.97D-06

 Cycle   7  Pass 1  IDiag  1:
 RMSU=  1.11D-07    CP:  1.00D+00  1.12D+00  6.00D-01  9.82D-01  7.98D-01
                    CP:  7.71D-01
 E= -462.243191889468     Delta-E=       -0.000000000173 Rises=F Damp=F
 DIIS: error= 1.87D-07 at cycle   7 NSaved=   7.
 NSaved= 7 IEnMin= 7 EnMin= -462.243191889468     IErMin= 7 ErrMin= 1.87D-07
 ErrMax= 1.87D-07  0.00D+00 EMaxC= 1.00D-01 BMatC= 3.59D-12 BMatP= 1.60D-10
 IDIUse=1 WtCom= 1.00D+00 WtEn= 0.00D+00
 Coeff-Com:  0.155D-03-0.203D-02-0.526D-03 0.159D-01 0.764D-01 0.210D+00
 Coeff-Com:  0.700D+00
 Coeff:      0.155D-03-0.203D-02-0.526D-03 0.159D-01 0.764D-01 0.210D+00
 Coeff:      0.700D+00
 Gap=     0.268 Goal=   None    Shift=    0.000
 RMSDP=3.49D-08 MaxDP=5.33D-07 DE=-1.73D-10 OVMax= 7.11D-07

 Cycle   8  Pass 1  IDiag  1:
 RMSU=  2.96D-08    CP:  1.00D+00  1.12D+00  6.00D-01  9.83D-01  8.03D-01
                    CP:  7.94D-01  9.71D-01
 E= -462.243191889467     Delta-E=        0.000000000001 Rises=F Damp=F
 DIIS: error= 5.92D-08 at cycle   8 NSaved=   8.
 NSaved= 8 IEnMin= 7 EnMin= -462.243191889468     IErMin= 8 ErrMin= 5.92D-08
 ErrMax= 5.92D-08  0.00D+00 EMaxC= 1.00D-01 BMatC= 4.84D-13 BMatP= 3.59D-12
 IDIUse=1 WtCom= 1.00D+00 WtEn= 0.00D+00
 Coeff-Com:  0.402D-04-0.486D-03-0.343D-03 0.136D-02 0.124D-01 0.490D-01
 Coeff-Com:  0.314D+00 0.624D+00
 Coeff:      0.402D-04-0.486D-03-0.343D-03 0.136D-02 0.124D-01 0.490D-01
 Coeff:      0.314D+00 0.624D+00
 Gap=     0.268 Goal=   None    Shift=    0.000
 RMSDP=1.28D-08 MaxDP=2.44D-07 DE= 1.02D-12 OVMax= 2.30D-07

 Cycle   9  Pass 1  IDiag  1:
 RMSU=  7.60D-09    CP:  1.00D+00  1.12D+00  6.00D-01  9.84D-01  8.03D-01
                    CP:  8.03D-01  1.00D+00  7.38D-01
 E= -462.243191889470     Delta-E=       -0.000000000003 Rises=F Damp=F
 DIIS: error= 9.23D-09 at cycle   9 NSaved=   9.
 NSaved= 9 IEnMin= 9 EnMin= -462.243191889470     IErMin= 9 ErrMin= 9.23D-09
 ErrMax= 9.23D-09  0.00D+00 EMaxC= 1.00D-01 BMatC= 1.50D-14 BMatP= 4.84D-13
 IDIUse=1 WtCom= 1.00D+00 WtEn= 0.00D+00
 Coeff-Com: -0.250D-05 0.452D-04-0.485D-04-0.105D-02-0.316D-02-0.537D-02
 Coeff-Com:  0.193D-01 0.166D+00 0.824D+00
 Coeff:     -0.250D-05 0.452D-04-0.485D-04-0.105D-02-0.316D-02-0.537D-02
 Coeff:      0.193D-01 0.166D+00 0.824D+00
 Gap=     0.268 Goal=   None    Shift=    0.000
 RMSDP=3.52D-09 MaxDP=4.63D-08 DE=-2.73D-12 OVMax= 9.54D-08

 Error on total polarization charges =  0.02709
 SCF Done:  E(RB3LYP) =  -462.243191889     A.U. after    9 cycles
            NFock=  9  Conv=0.35D-08     -V/T= 2.0057
 KE= 4.596351858334D+02 PE=-1.479834557147D+03 EE= 3.626130074882D+02
 SMD-CDS (non-electrostatic) energy       (kcal/mol) =       0.24
 (included in total energy above)
 Leave Link  502 at Fri Nov  1 04:23:49 2019, MaxMem=   280000000 cpu:             441.3 elap:              23.0
 (Enter /usr/g16/l801.exe)
 DoSCS=F DFT=T ScalE2(SS,OS)=  1.000000  1.000000
 Range of M.O.s used for correlation:     1    86
 NBasis=    86 NAE=    22 NBE=    22 NFC=     0 NFV=     0
 NROrb=     86 NOA=    22 NOB=    22 NVA=    64 NVB=    64
 Leave Link  801 at Fri Nov  1 04:23:49 2019, MaxMem=   280000000 cpu:               1.3 elap:               0.1
 (Enter /usr/g16/l1101.exe)
 Using compressed storage, NAtomX=    15.
 Will process     16 centers per pass.
 R6Disp: Adding Grimme-D3(BJ) dispersion energy 1st derivatives to the gradient.
 Leave Link 1101 at Fri Nov  1 04:23:50 2019, MaxMem=   280000000 cpu:              14.1 elap:               0.8
 (Enter /usr/g16/l1102.exe)
 Symmetrizing basis deriv contribution to polar:
 IMax=3 JMax=2 DiffMx= 0.00D+00
 Leave Link 1102 at Fri Nov  1 04:23:50 2019, MaxMem=   280000000 cpu:               2.1 elap:               0.1
 (Enter /usr/g16/l1110.exe)
 Forming Gx(P) for the SCF density, NAtomX=    15.
 Integral derivatives from FoFJK, PRISM(SPDF).
 Do as many integral derivatives as possible in FoFJK.
 G2DrvN: MDV=     279998754.
 G2DrvN: will do    16 centers at a time, making    1 passes.
 Calling FoFCou, ICntrl=  3107 FMM=F I1Cent=   0 AccDes= 0.00D+00.
 FoFJK:  IHMeth= 1 ICntrl=    3107 DoSepK=F KAlg= 0 I1Cent=           0 FoldK=F
 IRaf=         0 NMat=       1 IRICut=       1 DoRegI=T DoRafI=F ISym2E= 0 IDoP0=0 IntGTp=1.
 FoFCou: FMM=F IPFlag=           0 FMFlag=      100000 FMFlg1=           0
         NFxFlg=           0 DoJE=F BraDBF=F KetDBF=F FulRan=T
         wScrn=  0.000000 ICntrl=      3107 IOpCl=  0 I1Cent=           0 NGrid=           0
         NMat0=    1 NMatS0=      1 NMatT0=    0 NMatD0=    1 NMtDS0=    0 NMtDT0=    0
 Symmetry not used in FoFCou.
 NEqPCM:  Using equilibrium solvation (IEInf=0, Eps=   2.2706, EpsInf=   2.2533)
 G2PCM: DoFxE=T DoFxN=T DoGrad=T DoDP/DQ/DG/TGxP=FFFF NFrqRd=   0 IEInf=0 SqF1=F DoCFld=F IF1Alg=4.
 GePol: Maximum number of non-zero 1st derivatives   =     242
 End of G2Drv F.D. properties file   721 does not exist.
 End of G2Drv F.D. properties file   722 does not exist.
 End of G2Drv F.D. properties file   788 does not exist.
 Leave Link 1110 at Fri Nov  1 04:24:13 2019, MaxMem=   280000000 cpu:             432.7 elap:              22.3
 (Enter /usr/g16/l1002.exe)
 Minotr:  Closed shell wavefunction.
          IDoAtm=111111111111111
 NEqPCM:  Using equilibrium solvation (IEInf=0, Eps=   2.2706, EpsInf=   2.2533)
          Direct CPHF calculation.
          Differentiating once with respect to nuclear coordinates.
          Requested convergence is 1.0D-08 RMS, and 1.0D-07 maximum.
          Secondary convergence is 1.0D-12 RMS, and 1.0D-12 maximum.
          NewPWx=T KeepS1=F KeepF1=F KeepIn=T MapXYZ=F SortEE=F KeepMc=T.
         4429 words used for storage of precomputed grid.
 Keep R1 ints in memory in canonical form, NReq=28745078.
 FoFCou: FMM=F IPFlag=           0 FMFlag=           0 FMFlg1=           0
         NFxFlg=           0 DoJE=F BraDBF=F KetDBF=F FulRan=T
         wScrn=  0.000000 ICntrl=       600 IOpCl=  0 I1Cent=           0 NGrid=           0
         NMat0=    1 NMatS0=   3741 NMatT0=    0 NMatD0=    1 NMtDS0=    0 NMtDT0=    0
 Symmetry not used in FoFCou.
 Two-electron integral symmetry not used.
          MDV=     280000000 using IRadAn=       1.
          Solving linear equations simultaneously, MaxMat=       0.
          There are    48 degrees of freedom in the 1st order CPHF.  IDoFFX=6 NUNeed=     0.
     42 vectors produced by pass  0 Test12= 2.93D-15 2.08D-09 XBig12= 8.72D-02 1.27D-01.
 AX will form    42 AO Fock derivatives at one time.
     42 vectors produced by pass  1 Test12= 2.93D-15 2.08D-09 XBig12= 8.54D-03 3.24D-02.
     42 vectors produced by pass  2 Test12= 2.93D-15 2.08D-09 XBig12= 3.46D-05 1.29D-03.
     42 vectors produced by pass  3 Test12= 2.93D-15 2.08D-09 XBig12= 4.85D-08 6.29D-05.
     42 vectors produced by pass  4 Test12= 2.93D-15 2.08D-09 XBig12= 6.10D-11 1.27D-06.
     12 vectors produced by pass  5 Test12= 2.93D-15 2.08D-09 XBig12= 2.97D-14 3.10D-08.
 InvSVY:  IOpt=1 It=  1 EMax= 2.00D-15
 Solved reduced A of dimension   222 with    42 vectors.
 End of Minotr F.D. properties file   721 does not exist.
 End of Minotr F.D. properties file   722 does not exist.
 End of Minotr F.D. properties file   788 does not exist.
 Leave Link 1002 at Fri Nov  1 04:24:31 2019, MaxMem=   280000000 cpu:             358.3 elap:              18.6
 (Enter /usr/g16/l601.exe)
 Copying SCF densities to generalized density rwf, IOpCl= 0 IROHF=0.

 **********************************************************************

            Population analysis using the SCF density.

 **********************************************************************

 Orbital symmetries:
       Occupied  (A) (A) (A) (A) (A) (A) (A) (A) (A) (A) (A) (A)
                 (A) (A) (A) (A) (A) (A) (A) (A) (A) (A)
       Virtual   (A) (A) (A) (A) (A) (A) (A) (A) (A) (A) (A) (A)
                 (A) (A) (A) (A) (A) (A) (A) (A) (A) (A) (A) (A)
                 (A) (A) (A) (A) (A) (A) (A) (A) (A) (A) (A) (A)
                 (A) (A) (A) (A) (A) (A) (A) (A) (A) (A) (A) (A)
                 (A) (A) (A) (A) (A) (A) (A) (A) (A) (A) (A) (A)
                 (A) (A) (A) (A)
 The electronic state is 1-A.
 Alpha  occ. eigenvalues --  -77.13151 -10.17592 -10.17447 -10.14098  -6.58766
 Alpha  occ. eigenvalues --   -4.75119  -4.75075  -4.74811  -0.75556  -0.69229
 Alpha  occ. eigenvalues --   -0.66037  -0.56960  -0.43373  -0.42944  -0.41426
 Alpha  occ. eigenvalues --   -0.40266  -0.38421  -0.37310  -0.34840  -0.33755
 Alpha  occ. eigenvalues --   -0.32772  -0.19601
 Alpha virt. eigenvalues --    0.07193   0.07991   0.09779   0.11067   0.14020
 Alpha virt. eigenvalues --    0.15016   0.16428   0.17504   0.18061   0.18294
 Alpha virt. eigenvalues --    0.19472   0.20384   0.26285   0.33912   0.36912
 Alpha virt. eigenvalues --    0.39742   0.46036   0.48409   0.53652   0.58742
 Alpha virt. eigenvalues --    0.60193   0.61533   0.66721   0.67636   0.73073
 Alpha virt. eigenvalues --    0.73577   0.74890   0.82702   0.82791   0.84517
 Alpha virt. eigenvalues --    0.87694   0.88404   0.90105   0.90705   0.91231
 Alpha virt. eigenvalues --    0.92396   0.94473   0.95408   1.00187   1.00425
 Alpha virt. eigenvalues --    1.07750   1.16561   1.22060   1.31097   1.49845
 Alpha virt. eigenvalues --    1.68480   1.72523   1.72901   1.75855   1.76722
 Alpha virt. eigenvalues --    1.86050   2.07510   2.19455   2.20715   2.26422
 Alpha virt. eigenvalues --    2.26874   2.27687   2.28035   2.28868   2.29734
 Alpha virt. eigenvalues --    3.49052   4.20111   4.22147   4.25636
          Condensed to atoms (all electrons):
               1          2          3          4          5          6
     1  P   13.077136   0.235088  -0.018306  -0.020730  -0.021036   0.354285
     2  C    0.235088   5.627865   0.347446   0.349640   0.347685  -0.103452
     3  H   -0.018306   0.347446   0.578167  -0.026582  -0.025510   0.003132
     4  H   -0.020730   0.349640  -0.026582   0.578428  -0.025661   0.001112
     5  H   -0.021036   0.347685  -0.025510  -0.025661   0.580839   0.002856
     6  C    0.354285  -0.103452   0.003132   0.001112   0.002856   5.362869
     7  H   -0.022543   0.001957  -0.000083  -0.000104   0.000052   0.362407
     8  H   -0.023772   0.002573  -0.000080   0.000048  -0.000078   0.358008
     9  H   -0.038704   0.010533   0.000173   0.000027  -0.000908   0.359460
    10  C    0.357436  -0.096621   0.000827   0.003013   0.002570   0.001918
    11  H   -0.023082   0.001986   0.000042  -0.000078   0.000009  -0.002665
    12  H   -0.022997   0.002243  -0.000119  -0.000080   0.000042   0.000678
    13  H   -0.039838   0.010401   0.000296   0.000175  -0.001076  -0.000690
    14  H    0.276399   0.027803  -0.000363  -0.000370  -0.000621  -0.096230
    15  H    0.379576  -0.100180   0.001920   0.001634   0.003238   0.004828
               7          8          9         10         11         12
     1  P   -0.022543  -0.023772  -0.038704   0.357436  -0.023082  -0.022997
     2  C    0.001957   0.002573   0.010533  -0.096621   0.001986   0.002243
     3  H   -0.000083  -0.000080   0.000173   0.000827   0.000042  -0.000119
     4  H   -0.000104   0.000048   0.000027   0.003013  -0.000078  -0.000080
     5  H    0.000052  -0.000078  -0.000908   0.002570   0.000009   0.000042
     6  C    0.362407   0.358008   0.359460   0.001918  -0.002665   0.000678
     7  H    0.516696  -0.020448  -0.022782   0.000760   0.000032  -0.000015
     8  H   -0.020448   0.525695  -0.022850  -0.002732   0.001384   0.000048
     9  H   -0.022782  -0.022850   0.539643  -0.000758  -0.000036  -0.000011
    10  C    0.000760  -0.002732  -0.000758   5.338081   0.360490   0.362786
    11  H    0.000032   0.001384  -0.000036   0.360490   0.521977  -0.020338
    12  H   -0.000015   0.000048  -0.000011   0.362786  -0.020338   0.514875
    13  H   -0.000012  -0.000024   0.000189   0.361637  -0.022731  -0.022553
    14  H    0.001441   0.002839   0.004567  -0.086392   0.001175   0.001781
    15  H   -0.001984   0.000619  -0.000881   0.002754   0.000829  -0.002218
              13         14         15
     1  P   -0.039838   0.276399   0.379576
     2  C    0.010401   0.027803  -0.100180
     3  H    0.000296  -0.000363   0.001920
     4  H    0.000175  -0.000370   0.001634
     5  H   -0.001076  -0.000621   0.003238
     6  C   -0.000690  -0.096230   0.004828
     7  H   -0.000012   0.001441  -0.001984
     8  H   -0.000024   0.002839   0.000619
     9  H    0.000189   0.004567  -0.000881
    10  C    0.361637  -0.086392   0.002754
    11  H   -0.022731   0.001175   0.000829
    12  H   -0.022553   0.001781  -0.002218
    13  H    0.536298   0.004341  -0.001177
    14  H    0.004341   1.121955  -0.090802
    15  H   -0.001177  -0.090802   0.799714
 Mulliken charges:
               1
     1  P    0.551090
     2  C   -0.664966
     3  H    0.139040
     4  H    0.139528
     5  H    0.137599
     6  C   -0.608517
     7  H    0.184625
     8  H    0.178772
     9  H    0.172339
    10  C   -0.605766
    11  H    0.181006
    12  H    0.185879
    13  H    0.174764
    14  H   -0.167524
    15  H    0.002130
 Sum of Mulliken charges =  -0.00000
 Mulliken charges with hydrogens summed into heavy atoms:
               1
     1  P    0.385695
     2  C   -0.248797
     6  C   -0.072781
    10  C   -0.064117
 APT charges:
               1
     1  P   -0.218381
     2  C   -1.242320
     3  H    0.395818
     4  H    0.391867
     5  H    0.339471
     6  C   -1.253773
     7  H    0.486642
     8  H    0.411678
     9  H    0.386082
    10  C   -1.258437
    11  H    0.412125
    12  H    0.490296
    13  H    0.389105
    14  H    0.002471
    15  H    0.267356
 Sum of APT charges =  -0.00000
 APT charges with hydrogens summed into heavy atoms:
               1
     1  P    0.051445
     2  C   -0.115164
     6  C    0.030630
    10  C    0.033089
 Electronic spatial extent (au):  <R**2>=            488.3720
 Charge=             -0.0000 electrons
 Dipole moment (field-independent basis, Debye):
    X=             -0.0437    Y=             -0.0063    Z=             -0.8521  Tot=              0.8533
 Quadrupole moment (field-independent basis, Debye-Ang):
   XX=            -33.8710   YY=            -40.1674   ZZ=            -36.5685
   XY=             -0.0111   XZ=              0.1071   YZ=              2.0529
 Traceless Quadrupole moment (field-independent basis, Debye-Ang):
   XX=              2.9980   YY=             -3.2984   ZZ=              0.3005
   XY=             -0.0111   XZ=              0.1071   YZ=              2.0529
 Octapole moment (field-independent basis, Debye-Ang**2):
  XXX=             -0.2455  YYY=             -0.1939  ZZZ=             -3.5412  XYY=             -0.2547
  XXY=             -0.7999  XXZ=              1.3962  XZZ=              0.0275  YZZ=              0.7744
  YYZ=             -4.2575  XYZ=             -0.0203
 Hexadecapole moment (field-independent basis, Debye-Ang**3):
 XXXX=           -309.6209 YYYY=           -283.2602 ZZZZ=           -117.5775 XXXY=              0.3240
 XXXZ=              0.4161 YYYX=             -0.5592 YYYZ=             13.3511 ZZZX=              0.2637
 ZZZY=              3.6465 XXYY=            -92.1719 XXZZ=            -69.5058 YYZZ=            -64.1178
 XXYZ=             -2.1164 YYXZ=              0.0343 ZZXY=              0.2257
 N-N= 1.953431719359D+02 E-N=-1.479834558248D+03  KE= 4.596351858334D+02
  Exact polarizability:   0.000   0.000   0.000   0.000   0.000   0.000
 Approx polarizability:  75.661  -0.288  81.323  -0.400  -2.879  73.902
 No NMR shielding tensors so no spin-rotation constants.
 Leave Link  601 at Fri Nov  1 04:24:33 2019, MaxMem=   280000000 cpu:              28.7 elap:               1.6
 (Enter /usr/g16/l701.exe)
 ... and contract with generalized density number  0.
 Compute integral second derivatives.
 R6Disp: Adding Grimme-D3(BJ) dispersion energy 2nd derivatives to the Hessian.
 D2PCM: PCM CHGder 2nd derivatives, FixD1E=F FixD2E=F DoIter=F DoCFld=F I1PDM=0
 GePol: Maximum number of non-zero 2nd derivatives   =     242
 Leave Link  701 at Fri Nov  1 04:24:47 2019, MaxMem=   280000000 cpu:             267.9 elap:              14.4
 (Enter /usr/g16/l702.exe)
 L702 exits ... SP integral derivatives will be done elsewhere.
 Leave Link  702 at Fri Nov  1 04:24:47 2019, MaxMem=   280000000 cpu:               1.7 elap:               0.1
 (Enter /usr/g16/l703.exe)
 Integral derivatives from FoFJK, PRISM(SPDF).
 Compute integral second derivatives, UseDBF=F ICtDFT=           0.
 Calling FoFJK, ICntrl=    100147 FMM=F ISym2X=0 I1Cent= 0 IOpClX= 0 NMat=1 NMatS=1 NMatT=0.
 FoFJK:  IHMeth= 1 ICntrl=  100147 DoSepK=F KAlg= 0 I1Cent=           0 FoldK=F
 IRaf=         0 NMat=       1 IRICut=       1 DoRegI=T DoRafI=F ISym2E= 0 IDoP0=0 IntGTp=1.
 FoFCou: FMM=F IPFlag=           0 FMFlag=      100000 FMFlg1=         800
         NFxFlg=           0 DoJE=F BraDBF=F KetDBF=F FulRan=T
         wScrn=  0.000000 ICntrl=    100147 IOpCl=  0 I1Cent=           0 NGrid=           0
         NMat0=    1 NMatS0=      1 NMatT0=    0 NMatD0=    1 NMtDS0=    0 NMtDT0=    0
 Symmetry not used in FoFCou.
 Leave Link  703 at Fri Nov  1 04:24:58 2019, MaxMem=   280000000 cpu:             210.9 elap:              11.1
 (Enter /usr/g16/l716.exe)
 Dipole        =-1.71930469D-02-2.46817381D-03-3.35244772D-01
 Polarizability= 0.00000000D+00 0.00000000D+00 0.00000000D+00
                 0.00000000D+00 0.00000000D+00 0.00000000D+00
 ***** Axes restored to original set *****
 -------------------------------------------------------------------
 Center     Atomic                   Forces (Hartrees/Bohr)
 Number     Number              X              Y              Z
 -------------------------------------------------------------------
      1       15           0.000193079    0.003064992    0.000859054
      2        6           0.000309027   -0.000623301   -0.000394103
      3        1           0.000436738   -0.000169523   -0.000086103
      4        1          -0.000287173    0.000152001    0.000134368
      5        1          -0.000168863    0.000095086    0.000045723
      6        6          -0.000290211   -0.000521366    0.000102510
      7        1          -0.000226526    0.000113738    0.000125697
      8        1           0.000056619    0.000111521    0.000027424
      9        1          -0.000178745   -0.000232741    0.000114687
     10        6          -0.000023754   -0.000429030   -0.000112580
     11        1           0.000164146   -0.000218867   -0.000137980
     12        1          -0.000094269    0.000032466   -0.000114073
     13        1           0.000118830   -0.000172780   -0.000108002
     14        1          -0.000575190   -0.001385187   -0.000406580
     15        1           0.000566292    0.000182994   -0.000050043
 -------------------------------------------------------------------
 Cartesian Forces:  Max     0.003064992 RMS     0.000575471
 FormGI is forming the generalized inverse of G from B-inverse, IUseBI=4.
 Leave Link  716 at Fri Nov  1 04:24:59 2019, MaxMem=   280000000 cpu:               6.2 elap:               0.4
 (Enter /usr/g16/l103.exe)

 GradGradGradGradGradGradGradGradGradGradGradGradGradGradGradGradGradGrad
 Berny optimization.
 Red2BG is reusing G-inverse.
 Internal  Forces:  Max     0.000855808 RMS     0.000289828
 Search for a saddle point.
 Step number  89 out of a maximum of  300
 All quantities printed in internal units (Hartrees-Bohrs-Radians)
 Swapping is turned off.
 Second derivative matrix not updated -- analytic derivatives used.
 ITU=  0  0  0  0  0  0  0  0  0  0  0  0  0  0  0  0  0  0  0  0
 ITU=  0  0  0  0  0  0  0  0  0  0  0  0  0  0  0  0  0  0  0  0
 ITU=  0  0  0  0  0  0  0  0  0  0  0  0  0  0  0  0  0  0  0  0
 ITU=  0  0  0  0  0  0  0  0  0  0  0  0  0  0  0  0  0  0  0
     Eigenvalues ---    0.00017   0.00029   0.00041   0.00457   0.02022
     Eigenvalues ---    0.02578   0.02895   0.03152   0.03261   0.03383
     Eigenvalues ---    0.03448   0.03800   0.03821   0.04470   0.06148
     Eigenvalues ---    0.10225   0.10506   0.10648   0.11112   0.11284
     Eigenvalues ---    0.11474   0.12026   0.12142   0.13200   0.13470
     Eigenvalues ---    0.14514   0.17488   0.18566   0.20149   0.21055
     Eigenvalues ---    0.33177   0.33269   0.33912   0.34055   0.34200
     Eigenvalues ---    0.34389   0.34510   0.35015   0.35094
 Eigenvectors required to have negative eigenvalues:
                          D7        D9        D8        D25       D26
   1                   -0.43220  -0.43202  -0.42583  -0.21042  -0.20753
                          D34       D28       D35       D29       D27
   1                   -0.19739  -0.19683  -0.19450  -0.19394  -0.18990
 Eigenvalue     1 is   1.74D-04 should be less than     0.000000 Eigenvector:
                          D7        D9        D8        D25       D26
   1                   -0.43220  -0.43202  -0.42583  -0.21042  -0.20753
                          D34       D28       D35       D29       D27
   1                   -0.19739  -0.19683  -0.19450  -0.19394  -0.18990
 RFO step:  Lambda0=3.190338750D-04 Lambda=-1.46722154D-04.
 Linear search not attempted -- option 19 set.
 Iteration  1 RMS(Cart)=  0.02652763 RMS(Int)=  0.00335296
 Iteration  2 RMS(Cart)=  0.00283019 RMS(Int)=  0.00029119
 Iteration  3 RMS(Cart)=  0.00001620 RMS(Int)=  0.00028941
 Iteration  4 RMS(Cart)=  0.00000004 RMS(Int)=  0.00028941
 ITry= 1 IFail=0 DXMaxC= 1.05D-01 DCOld= 1.00D+10 DXMaxT= 3.00D-01 DXLimC= 3.00D+00 Rises=F
 Variable       Old X    -DE/DX   Delta X   Delta X   Delta X     New X
                                 (Linear)    (Quad)   (Total)
    R1        3.65706  -0.00056   0.00000  -0.00646  -0.00646   3.65060
    R2        3.52239  -0.00086   0.00000  -0.00179  -0.00179   3.52060
    R3        3.50480   0.00056   0.00000   0.00178   0.00178   3.50658
    R4        2.85148   0.00029   0.00000   0.00673   0.00684   2.85832
    R5        2.70405  -0.00027   0.00000  -0.00130  -0.00120   2.70285
    R6        2.07774  -0.00039   0.00000  -0.00065  -0.00065   2.07708
    R7        2.07681   0.00003   0.00000  -0.00000  -0.00000   2.07681
    R8        2.07637   0.00001   0.00000  -0.00043  -0.00043   2.07594
    R9        2.07094  -0.00011   0.00000   0.00046   0.00046   2.07140
   R10        2.07106  -0.00009   0.00000  -0.00114  -0.00114   2.06992
   R11        2.06634  -0.00020   0.00000  -0.00029  -0.00029   2.06605
   R12        2.07012   0.00028   0.00000   0.00104   0.00104   2.07116
   R13        2.06964  -0.00010   0.00000  -0.00078  -0.00078   2.06886
   R14        2.06580  -0.00015   0.00000  -0.00012  -0.00012   2.06568
   R15        3.84693   0.00042   0.00000   0.01666   0.01650   3.86343
    A1        1.63924  -0.00032   0.00000  -0.00607  -0.00511   1.63413
    A2        1.65430   0.00035   0.00000   0.00494   0.00412   1.65842
    A3        3.07512   0.00051   0.00000   0.01021   0.00954   3.08466
    A4        1.55126   0.00027   0.00000   0.00795   0.00770   1.55896
    A5        2.11816  -0.00043   0.00000  -0.00813  -0.00815   2.11001
    A6        1.51186   0.00025   0.00000  -0.00815  -0.00727   1.50460
    A7        2.10935  -0.00015   0.00000  -0.00367  -0.00367   2.10568
    A8        1.53823  -0.00073   0.00000  -0.00416  -0.00499   1.53324
    A9        2.04534   0.00054   0.00000   0.01087   0.01086   2.05621
   A10        1.92569  -0.00055   0.00000  -0.00224  -0.00224   1.92345
   A11        1.91044   0.00044   0.00000   0.00469   0.00469   1.91513
   A12        1.96709   0.00030   0.00000  -0.00022  -0.00023   1.96686
   A13        1.88224  -0.00006   0.00000  -0.00250  -0.00250   1.87974
   A14        1.88992   0.00007   0.00000  -0.00096  -0.00096   1.88896
   A15        1.88615  -0.00021   0.00000   0.00113   0.00112   1.88727
   A16        1.88481  -0.00021   0.00000  -0.00558  -0.00559   1.87921
   A17        1.87879   0.00024   0.00000   0.00699   0.00699   1.88578
   A18        1.98999  -0.00032   0.00000  -0.00202  -0.00204   1.98795
   A19        1.87138   0.00007   0.00000   0.00151   0.00153   1.87291
   A20        1.91423   0.00021   0.00000  -0.00409  -0.00412   1.91011
   A21        1.92055   0.00003   0.00000   0.00341   0.00340   1.92395
   A22        1.88524  -0.00008   0.00000  -0.00694  -0.00694   1.87830
   A23        1.89053   0.00013   0.00000   0.00510   0.00509   1.89561
   A24        1.97668   0.00019   0.00000   0.00244   0.00243   1.97911
   A25        1.87551  -0.00006   0.00000  -0.00013  -0.00011   1.87540
   A26        1.91389  -0.00006   0.00000  -0.00208  -0.00209   1.91180
   A27        1.91898  -0.00012   0.00000   0.00143   0.00141   1.92039
    D1       -3.10066  -0.00011   0.00000   0.00001   0.00003  -3.10063
    D2       -1.03202  -0.00025   0.00000  -0.00153  -0.00151  -1.03353
    D3        1.06750  -0.00002   0.00000   0.00299   0.00301   1.07051
    D4        1.05404   0.00032   0.00000   0.00844   0.00847   1.06251
    D5        3.12268   0.00018   0.00000   0.00690   0.00693   3.12961
    D6       -1.06099   0.00041   0.00000   0.01142   0.01145  -1.04954
    D7       -1.38836   0.00006   0.00000  -0.19361  -0.19367  -1.58202
    D8        0.68029  -0.00008   0.00000  -0.19515  -0.19521   0.48508
    D9        2.77980   0.00015   0.00000  -0.19063  -0.19069   2.58911
   D10       -0.99136  -0.00025   0.00000  -0.00324  -0.00324  -0.99459
   D11        1.07729  -0.00039   0.00000  -0.00478  -0.00478   1.07251
   D12       -3.10638  -0.00015   0.00000  -0.00026  -0.00026  -3.10664
   D13        2.04374  -0.00000   0.00000  -0.06946  -0.06913   1.97461
   D14       -2.22418   0.00010   0.00000  -0.06695  -0.06663  -2.29081
   D15       -0.08838   0.00010   0.00000  -0.05882  -0.05850  -0.14688
   D16       -2.52850   0.00014   0.00000  -0.06868  -0.06868  -2.59718
   D17       -0.51323   0.00025   0.00000  -0.06616  -0.06618  -0.57941
   D18        1.62257   0.00024   0.00000  -0.05803  -0.05805   1.56452
   D19       -1.03193  -0.00051   0.00000  -0.07774  -0.07807  -1.11000
   D20        0.98334  -0.00041   0.00000  -0.07522  -0.07557   0.90776
   D21        3.11914  -0.00041   0.00000  -0.06709  -0.06744   3.05170
   D22        0.45479  -0.00011   0.00000  -0.07482  -0.07478   0.38002
   D23        2.47006  -0.00001   0.00000  -0.07231  -0.07228   2.39778
   D24       -1.67732  -0.00001   0.00000  -0.06417  -0.06415  -1.74147
   D25        2.10395  -0.00022   0.00000  -0.04475  -0.04415   2.05980
   D26       -2.15283  -0.00027   0.00000  -0.04589  -0.04530  -2.19813
   D27       -0.01932  -0.00021   0.00000  -0.03880  -0.03819  -0.05752
   D28        0.40138   0.00001   0.00000  -0.03933  -0.03932   0.36205
   D29        2.42779  -0.00004   0.00000  -0.04047  -0.04047   2.38731
   D30       -1.72189   0.00002   0.00000  -0.03337  -0.03337  -1.75526
   D31       -1.08043   0.00013   0.00000  -0.02790  -0.02852  -1.10895
   D32        0.94598   0.00008   0.00000  -0.02904  -0.02967   0.91631
   D33        3.07948   0.00014   0.00000  -0.02195  -0.02256   3.05692
   D34       -2.58748   0.00032   0.00000  -0.03221  -0.03219  -2.61967
   D35       -0.56107   0.00026   0.00000  -0.03335  -0.03334  -0.59441
   D36        1.57243   0.00033   0.00000  -0.02625  -0.02623   1.54620
         Item               Value     Threshold  Converged?
 Maximum Force            0.000856     0.000450     NO 
 RMS     Force            0.000290     0.000300     YES
 Maximum Displacement     0.105213     0.001800     NO 
 RMS     Displacement     0.029178     0.001200     NO 
 Predicted change in Energy=-6.728851D-06
 GradGradGradGradGradGradGradGradGradGradGradGradGradGradGradGradGradGrad

 Leave Link  103 at Fri Nov  1 04:25:08 2019, MaxMem=   280000000 cpu:             158.5 elap:               9.6
 (Enter /usr/g16/l202.exe)
                          Input orientation:                          
 ---------------------------------------------------------------------
 Center     Atomic      Atomic             Coordinates (Angstroms)
 Number     Number       Type             X           Y           Z
 ---------------------------------------------------------------------
      1         15           0        0.257726   -0.215882    0.812435
      2          6           0       -0.917250    1.292892    0.538669
      3          1           0       -1.799513    1.209888    1.188931
      4          1           0       -0.394319    2.222928    0.802063
      5          1           0       -1.263056    1.377654   -0.500571
      6          6           0        1.539159    0.413929   -0.384272
      7          1           0        2.436911    0.666243    0.191833
      8          1           0        1.805134   -0.406489   -1.059527
      9          1           0        1.217848    1.287130   -0.958375
     10          6           0       -0.988224   -1.488579    0.291755
     11          1           0       -0.589577   -2.001360   -0.591069
     12          1           0       -1.081803   -2.232679    1.089334
     13          1           0       -1.968590   -1.065724    0.057301
     14          1           0        1.218209   -1.351507    1.087483
     15          1           0        0.332158    0.115841    2.201728
 ---------------------------------------------------------------------
                    Distance matrix (angstroms):
                    1          2          3          4          5
     1  P    0.000000
     2  C    1.931816   0.000000
     3  H    2.531166   1.099145   0.000000
     4  H    2.524492   1.098999   1.774961   0.000000
     5  H    2.564395   1.098538   1.780547   1.779339   0.000000
     6  C    1.863019   2.767370   3.775612   2.901414   2.965586
     7  H    2.431489   3.429778   4.386005   3.288086   3.830834
     8  H    2.436195   3.585177   4.545516   3.900890   3.592963
     9  H    2.513294   2.607646   3.704235   2.563970   2.524414
    10  C    1.855602   2.793311   2.957167   3.793208   2.986404
    11  H    2.423980   3.497967   3.865806   4.452364   3.446665
    12  H    2.436900   3.572108   3.517995   4.517476   3.949070
    13  H    2.499788   2.626804   2.547073   3.721321   2.603669
    14  H    1.512555   3.442997   3.959505   3.931704   4.015833
    15  H    1.430285   2.390028   2.601292   2.631852   3.382204
                    6          7          8          9         10
     6  C    0.000000
     7  H    1.096138   0.000000
     8  H    1.095353   1.765163   0.000000
     9  H    1.093304   1.787343   1.795406   0.000000
    10  C    3.234844   4.047814   3.286295   3.759541   0.000000
    11  H    3.226128   4.109583   2.915082   3.770393   1.096012
    12  H    4.005683   4.646570   4.035713   4.676598   1.094794
    13  H    3.832579   4.735636   3.990349   4.089121   1.093111
    14  H    2.320741   2.521655   2.418097   3.338853   2.349536
    15  H    2.869339   2.961859   3.616389   3.484626   2.822334
                   11         12         13         14         15
    11  H    0.000000
    12  H    1.766225   0.000000
    13  H    1.788149   1.792559   0.000000
    14  H    2.551065   2.463031   3.361344   0.000000
    15  H    3.623789   2.958420   3.359777   2.044441   0.000000
 Stoichiometry    C3H11P
 Framework group  C1[X(C3H11P)]
 Deg. of freedom    39
 Full point group                 C1      NOp   1
 RotChk:  IX=0 Diff= 1.70D-02
 Largest Abelian subgroup         C1      NOp   1
 Largest concise Abelian subgroup C1      NOp   1
                         Standard orientation:                         
 ---------------------------------------------------------------------
 Center     Atomic      Atomic             Coordinates (Angstroms)
 Number     Number       Type             X           Y           Z
 ---------------------------------------------------------------------
      1         15           0       -0.013571   -0.201965    0.438595
      2          6           0        0.058496    1.643513   -0.127912
      3          1           0       -0.802954    2.197148    0.271476
      4          1           0        0.970149    2.116364    0.263367
      5          1           0        0.059540    1.751517   -1.221128
      6          6           0        1.599146   -0.640995   -0.384350
      7          1           0        2.321905   -0.877663    0.405034
      8          1           0        1.444245   -1.554289   -0.968899
      9          1           0        2.001857    0.151542   -1.020765
     10          6           0       -1.634747   -0.562693   -0.389005
     11          1           0       -1.458101   -1.341952   -1.139201
     12          1           0       -2.323403   -0.974190    0.355976
     13          1           0       -2.081281    0.312132   -0.868777
     14          1           0       -0.023706   -1.624924    0.951342
     15          1           0       -0.042054    0.234851    1.800247
 ---------------------------------------------------------------------
 Rotational constants (GHZ):           6.0460527           4.6870792           3.3330942
 Leave Link  202 at Fri Nov  1 04:25:09 2019, MaxMem=   280000000 cpu:               2.6 elap:               0.2
 (Enter /usr/g16/l301.exe)
 Standard basis: 6-31G(d) (6D, 7F)
 Ernie: Thresh=  0.10000D-02 Tol=  0.10000D-05 Strict=F.
 There are    86 symmetry adapted cartesian basis functions of A   symmetry.
 There are    86 symmetry adapted basis functions of A   symmetry.
    86 basis functions,   180 primitive gaussians,    86 cartesian basis functions
    22 alpha electrons       22 beta electrons
       nuclear repulsion energy       195.4673554187 Hartrees.
 IExCor=  402 DFT=T Ex+Corr=B3LYP ExCW=0 ScaHFX=  0.200000
 ScaDFX=  0.800000  0.720000  1.000000  0.810000 ScalE2=  1.000000  1.000000
 IRadAn=      5 IRanWt=     -1 IRanGd=            0 ICorTp=0 IEmpDi=141
 NAtoms=   15 NActive=   15 NUniq=   15 SFac= 1.00D+00 NAtFMM=   60 NAOKFM=F Big=F
 Integral buffers will be    131072 words long.
 Raffenetti 2 integral format.
 Two-electron integral symmetry is turned on.
 R6Disp:  Grimme-D3(BJ) Dispersion energy=       -0.0210917430 Hartrees.
 Nuclear repulsion after empirical dispersion term =      195.4462636757 Hartrees.
 ------------------------------------------------------------------------------
 Polarizable Continuum Model (PCM)
 =================================
 Model                : PCM.
 Atomic radii         : SMD-Coulomb.
 Polarization charges : Total charges.
 Charge compensation  : None.
 Solution method      : Matrix inversion.
 Cavity type          : VdW (van der Waals Surface) (Alpha=1.000).
 Cavity algorithm     : GePol (No added spheres)
                        Default sphere list used, NSphG=   15.
                        Lebedev-Laikov grids with approx.  5.0 points / Ang**2.
                        Smoothing algorithm: York/Karplus (Gamma=1.0000).
                        Polarization charges: spherical gaussians, with
                                              point-specific exponents (IZeta= 3).
                        Self-potential: point-specific (ISelfS= 7).
                        Self-field    : sphere-specific E.n sum rule (ISelfD= 2).
 1st derivatives      : Analytical E(r).r(x)/FMM algorithm (CHGder, D1EAlg=3).
                        Cavity 1st derivative terms included.
 Solvent              : Benzene, Eps=   2.270600 Eps(inf)=   2.253301
 ------------------------------------------------------------------------------
 Spheres list:
 ISph  on   Nord     Re0    Alpha      Xe            Ye            Ze
    1   P      1    2.1200  1.000     -0.013571     -0.201965      0.438595
    2   C      2    1.8500  1.000      0.058496      1.643513     -0.127912
    3   H      3    1.2000  1.000     -0.802954      2.197148      0.271476
    4   H      4    1.2000  1.000      0.970149      2.116364      0.263367
    5   H      5    1.2000  1.000      0.059540      1.751517     -1.221128
    6   C      6    1.8500  1.000      1.599146     -0.640995     -0.384350
    7   H      7    1.2000  1.000      2.321905     -0.877663      0.405034
    8   H      8    1.2000  1.000      1.444245     -1.554289     -0.968899
    9   H      9    1.2000  1.000      2.001857      0.151542     -1.020765
   10   C     10    1.8500  1.000     -1.634747     -0.562693     -0.389005
   11   H     11    1.2000  1.000     -1.458101     -1.341952     -1.139201
   12   H     12    1.2000  1.000     -2.323403     -0.974190      0.355976
   13   H     13    1.2000  1.000     -2.081281      0.312132     -0.868777
   14   H     14    1.2000  1.000     -0.023706     -1.624924      0.951342
   15   H     15    1.2000  1.000     -0.042054      0.234851      1.800247
 ------------------------------------------------------------------------------
 GePol: Number of generator spheres                  =      15
 GePol: Total number of spheres                      =      15
 GePol: Number of exposed spheres                    =      15 (100.00%)
 GePol: Number of points                             =    1083
 GePol: Average weight of points                     =       0.12
 GePol: Minimum weight of points                     =   0.22D-08
 GePol: Maximum weight of points                     =    0.20615
 GePol: Number of points with low weight             =      60
 GePol: Fraction of low-weight points (<1% of avg)   =       5.54%
 GePol: Cavity surface area                          =    125.665 Ang**2
 GePol: Cavity volume                                =     99.591 Ang**3
 ------------------------------------------------------------------------------
 Atomic radii for non-electrostatic terms: SMD-CDS.
 ------------------------------------------------------------------------------
 PCM non-electrostatic energy =         0.0003647003 Hartrees.
 Nuclear repulsion after PCM non-electrostatic terms =      195.4466283761 Hartrees.
 Leave Link  301 at Fri Nov  1 04:25:09 2019, MaxMem=   280000000 cpu:               4.1 elap:               0.3
 (Enter /usr/g16/l302.exe)
 NPDir=0 NMtPBC=     1 NCelOv=     1 NCel=       1 NClECP=     1 NCelD=      1
         NCelK=      1 NCelE2=     1 NClLst=     1 CellRange=     0.0.
 One-electron integrals computed using PRISM.
 One-electron integral symmetry used in STVInt
 NBasis=    86 RedAO= T EigKep=  4.93D-03  NBF=    86
 NBsUse=    86 1.00D-06 EigRej= -1.00D+00 NBFU=    86
 Precomputing XC quadrature grid using
 IXCGrd= 4 IRadAn=           5 IRanWt=          -1 IRanGd=           0 AccXCQ= 0.00D+00.
 Generated NRdTot=       0 NPtTot=           0 NUsed=           0 NTot=          32
 NSgBfM=    86    86    86    86    86 MxSgAt=    15 MxSgA2=    15.
 Leave Link  302 at Fri Nov  1 04:25:11 2019, MaxMem=   280000000 cpu:              32.6 elap:               1.8
 (Enter /usr/g16/l303.exe)
 DipDrv:  MaxL=1.
 Leave Link  303 at Fri Nov  1 04:25:11 2019, MaxMem=   280000000 cpu:               4.7 elap:               0.3
 (Enter /usr/g16/l401.exe)
 Initial guess from the checkpoint file:  "PMe3_ts.chk"
 B after Tr=     0.000000    0.000000   -0.000000
         Rot=    0.999977    0.001282   -0.000771    0.006670 Ang=   0.78 deg.
 Guess basis will be translated and rotated to current coordinates.
 JPrj=2 DoOrth=T DoCkMO=T.
 Generating alternative initial guess.
 ExpMin= 9.98D-02 ExpMax= 1.94D+04 ExpMxC= 2.91D+03 IAcc=2 IRadAn=         4 AccDes= 0.00D+00
 Harris functional with IExCor=  402 and IRadAn=       4 diagonalized for initial guess.
 HarFok:  IExCor=  402 AccDes= 0.00D+00 IRadAn=         4 IDoV= 1 UseB2=F ITyADJ=14
 ICtDFT=  3500011 ScaDFX=  1.000000  1.000000  1.000000  1.000000
 FoFCou: FMM=F IPFlag=           0 FMFlag=      100000 FMFlg1=           0
         NFxFlg=           0 DoJE=T BraDBF=F KetDBF=T FulRan=T
         wScrn=  0.000000 ICntrl=       500 IOpCl=  0 I1Cent=   200000004 NGrid=           0
         NMat0=    1 NMatS0=      1 NMatT0=    0 NMatD0=    1 NMtDS0=    0 NMtDT0=    0
 Petite list used in FoFCou.
 Harris En= -462.315171678130    
 Leave Link  401 at Fri Nov  1 04:25:14 2019, MaxMem=   280000000 cpu:              56.0 elap:               3.1
 (Enter /usr/g16/l502.exe)
 Integral symmetry usage will be decided dynamically.
 Closed shell SCF:
 Using DIIS extrapolation, IDIIS=  1040.
 NGot=   280000000 LenX=   279981836 LenY=   279973999
 Requested convergence on RMS density matrix=1.00D-08 within 128 cycles.
 Requested convergence on MAX density matrix=1.00D-06.
 Requested convergence on             energy=1.00D-06.
 No special actions if energy rises.
 Fock matrices will be formed incrementally for  20 cycles.

 Cycle   1  Pass 1  IDiag  1:
 FoFJK:  IHMeth= 1 ICntrl=       0 DoSepK=F KAlg= 0 I1Cent=           0 FoldK=F
 IRaf= 990000000 NMat=       1 IRICut=       1 DoRegI=T DoRafI=F ISym2E= 0 IDoP0=0 IntGTp=1.
 FoFCou: FMM=F IPFlag=           0 FMFlag=      100000 FMFlg1=           0
         NFxFlg=           0 DoJE=F BraDBF=F KetDBF=F FulRan=T
         wScrn=  0.000000 ICntrl=         0 IOpCl=  0 I1Cent=           0 NGrid=           0
         NMat0=    1 NMatS0=      1 NMatT0=    0 NMatD0=    1 NMtDS0=    0 NMtDT0=    0
 Symmetry not used in FoFCou.
 Inv3:  Mode=1 IEnd=     3518667.
 Iteration    1 A*A^-1 deviation from unit magnitude is 3.33D-15 for    114.
 Iteration    1 A*A^-1 deviation from orthogonality  is 1.52D-15 for    641    353.
 Iteration    1 A^-1*A deviation from unit magnitude is 3.55D-15 for    114.
 Iteration    1 A^-1*A deviation from orthogonality  is 2.18D-15 for   1057    159.
 E= -462.242006062509    
 DIIS: error= 2.34D-03 at cycle   1 NSaved=   1.
 NSaved= 1 IEnMin= 1 EnMin= -462.242006062509     IErMin= 1 ErrMin= 2.34D-03
 ErrMax= 2.34D-03  0.00D+00 EMaxC= 1.00D-01 BMatC= 5.52D-04 BMatP= 5.52D-04
 IDIUse=3 WtCom= 9.77D-01 WtEn= 2.34D-02
 Coeff-Com:  0.100D+01
 Coeff-En:   0.100D+01
 Coeff:      0.100D+01
 Gap=     1.348 Goal=   None    Shift=    0.000
 GapD=    1.348 DampG=2.000 DampE=1.000 DampFc=2.0000 IDamp=-1.
 RMSDP=4.13D-04 MaxDP=7.34D-03              OVMax= 9.20D-03

 Cycle   2  Pass 1  IDiag  1:
 RMSU=  4.12D-04    CP:  1.00D+00
 E= -462.243189627330     Delta-E=       -0.001183564821 Rises=F Damp=F
 DIIS: error= 2.47D-04 at cycle   2 NSaved=   2.
 NSaved= 2 IEnMin= 2 EnMin= -462.243189627330     IErMin= 2 ErrMin= 2.47D-04
 ErrMax= 2.47D-04  0.00D+00 EMaxC= 1.00D-01 BMatC= 5.94D-06 BMatP= 5.52D-04
 IDIUse=3 WtCom= 9.98D-01 WtEn= 2.47D-03
 Coeff-Com: -0.924D-01 0.109D+01
 Coeff-En:   0.000D+00 0.100D+01
 Coeff:     -0.921D-01 0.109D+01
 Gap=     0.268 Goal=   None    Shift=    0.000
 RMSDP=6.63D-05 MaxDP=1.08D-03 DE=-1.18D-03 OVMax= 1.36D-03

 Cycle   3  Pass 1  IDiag  1:
 RMSU=  4.40D-05    CP:  1.00D+00  1.12D+00
 E= -462.243201340740     Delta-E=       -0.000011713410 Rises=F Damp=F
 DIIS: error= 1.56D-04 at cycle   3 NSaved=   3.
 NSaved= 3 IEnMin= 3 EnMin= -462.243201340740     IErMin= 3 ErrMin= 1.56D-04
 ErrMax= 1.56D-04  0.00D+00 EMaxC= 1.00D-01 BMatC= 2.28D-06 BMatP= 5.94D-06
 IDIUse=3 WtCom= 9.98D-01 WtEn= 1.56D-03
 Coeff-Com: -0.513D-01 0.567D+00 0.484D+00
 Coeff-En:   0.000D+00 0.000D+00 0.100D+01
 Coeff:     -0.512D-01 0.567D+00 0.485D+00
 Gap=     0.268 Goal=   None    Shift=    0.000
 RMSDP=2.17D-05 MaxDP=3.66D-04 DE=-1.17D-05 OVMax= 5.49D-04

 Cycle   4  Pass 1  IDiag  1:
 RMSU=  1.63D-05    CP:  1.00D+00  1.13D+00  6.78D-01
 E= -462.243203652074     Delta-E=       -0.000002311333 Rises=F Damp=F
 DIIS: error= 2.24D-05 at cycle   4 NSaved=   4.
 NSaved= 4 IEnMin= 4 EnMin= -462.243203652074     IErMin= 4 ErrMin= 2.24D-05
 ErrMax= 2.24D-05  0.00D+00 EMaxC= 1.00D-01 BMatC= 4.81D-08 BMatP= 2.28D-06
 IDIUse=1 WtCom= 1.00D+00 WtEn= 0.00D+00
 Coeff-Com: -0.915D-03 0.514D-03 0.121D+00 0.879D+00
 Coeff:     -0.915D-03 0.514D-03 0.121D+00 0.879D+00
 Gap=     0.268 Goal=   None    Shift=    0.000
 RMSDP=3.57D-06 MaxDP=5.21D-05 DE=-2.31D-06 OVMax= 7.78D-05

 Cycle   5  Pass 1  IDiag  1:
 RMSU=  1.83D-06    CP:  1.00D+00  1.13D+00  7.40D-01  9.27D-01
 E= -462.243203704402     Delta-E=       -0.000000052329 Rises=F Damp=F
 DIIS: error= 2.75D-06 at cycle   5 NSaved=   5.
 NSaved= 5 IEnMin= 5 EnMin= -462.243203704402     IErMin= 5 ErrMin= 2.75D-06
 ErrMax= 2.75D-06  0.00D+00 EMaxC= 1.00D-01 BMatC= 1.56D-09 BMatP= 4.81D-08
 IDIUse=1 WtCom= 1.00D+00 WtEn= 0.00D+00
 Coeff-Com:  0.860D-03-0.129D-01 0.291D-01 0.302D+00 0.681D+00
 Coeff:      0.860D-03-0.129D-01 0.291D-01 0.302D+00 0.681D+00
 Gap=     0.268 Goal=   None    Shift=    0.000
 RMSDP=7.76D-07 MaxDP=2.31D-05 DE=-5.23D-08 OVMax= 1.10D-05

 Cycle   6  Pass 1  IDiag  1:
 RMSU=  4.47D-07    CP:  1.00D+00  1.13D+00  7.42D-01  9.41D-01  6.84D-01
 E= -462.243203706126     Delta-E=       -0.000000001724 Rises=F Damp=F
 DIIS: error= 8.58D-07 at cycle   6 NSaved=   6.
 NSaved= 6 IEnMin= 6 EnMin= -462.243203706126     IErMin= 6 ErrMin= 8.58D-07
 ErrMax= 8.58D-07  0.00D+00 EMaxC= 1.00D-01 BMatC= 1.34D-10 BMatP= 1.56D-09
 IDIUse=1 WtCom= 1.00D+00 WtEn= 0.00D+00
 Coeff-Com:  0.424D-03-0.578D-02 0.759D-02 0.983D-01 0.305D+00 0.595D+00
 Coeff:      0.424D-03-0.578D-02 0.759D-02 0.983D-01 0.305D+00 0.595D+00
 Gap=     0.268 Goal=   None    Shift=    0.000
 RMSDP=2.04D-07 MaxDP=5.57D-06 DE=-1.72D-09 OVMax= 2.92D-06

 Cycle   7  Pass 1  IDiag  1:
 RMSU=  1.16D-07    CP:  1.00D+00  1.13D+00  7.43D-01  9.42D-01  7.26D-01
                    CP:  6.76D-01
 E= -462.243203706283     Delta-E=       -0.000000000157 Rises=F Damp=F
 DIIS: error= 1.52D-07 at cycle   7 NSaved=   7.
 NSaved= 7 IEnMin= 7 EnMin= -462.243203706283     IErMin= 7 ErrMin= 1.52D-07
 ErrMax= 1.52D-07  0.00D+00 EMaxC= 1.00D-01 BMatC= 2.67D-12 BMatP= 1.34D-10
 IDIUse=1 WtCom= 1.00D+00 WtEn= 0.00D+00
 Coeff-Com:  0.820D-04-0.108D-02 0.696D-03 0.142D-01 0.564D-01 0.175D+00
 Coeff-Com:  0.755D+00
 Coeff:      0.820D-04-0.108D-02 0.696D-03 0.142D-01 0.564D-01 0.175D+00
 Coeff:      0.755D+00
 Gap=     0.268 Goal=   None    Shift=    0.000
 RMSDP=3.42D-08 MaxDP=5.18D-07 DE=-1.57D-10 OVMax= 7.24D-07

 Cycle   8  Pass 1  IDiag  1:
 RMSU=  2.55D-08    CP:  1.00D+00  1.13D+00  7.43D-01  9.43D-01  7.29D-01
                    CP:  7.13D-01  9.19D-01
 E= -462.243203706284     Delta-E=       -0.000000000001 Rises=F Damp=F
 DIIS: error= 5.98D-08 at cycle   8 NSaved=   8.
 NSaved= 8 IEnMin= 8 EnMin= -462.243203706284     IErMin= 8 ErrMin= 5.98D-08
 ErrMax= 5.98D-08  0.00D+00 EMaxC= 1.00D-01 BMatC= 3.66D-13 BMatP= 2.67D-12
 IDIUse=1 WtCom= 1.00D+00 WtEn= 0.00D+00
 Coeff-Com:  0.107D-04-0.128D-03-0.147D-03 0.297D-03 0.665D-02 0.407D-01
 Coeff-Com:  0.324D+00 0.628D+00
 Coeff:      0.107D-04-0.128D-03-0.147D-03 0.297D-03 0.665D-02 0.407D-01
 Coeff:      0.324D+00 0.628D+00
 Gap=     0.268 Goal=   None    Shift=    0.000
 RMSDP=9.64D-09 MaxDP=2.40D-07 DE=-7.96D-13 OVMax= 1.70D-07

 Error on total polarization charges =  0.02703
 SCF Done:  E(RB3LYP) =  -462.243203706     A.U. after    8 cycles
            NFock=  8  Conv=0.96D-08     -V/T= 2.0057
 KE= 4.596377100967D+02 PE=-1.480041492757D+03 EE= 3.627139505778D+02
 SMD-CDS (non-electrostatic) energy       (kcal/mol) =       0.23
 (included in total energy above)
 Leave Link  502 at Fri Nov  1 04:25:38 2019, MaxMem=   280000000 cpu:             450.3 elap:              24.2
 (Enter /usr/g16/l701.exe)
 ... and contract with generalized density number  0.
 Compute integral first derivatives.
 R6Disp: Adding Grimme-D3(BJ) dispersion energy 1st derivatives to the gradient.
 D1PCM: PCM CHGder 1st derivatives, ID1Alg=3 FixD1E=F DoIter=F DoCFld=F I1PDM=0.
 GePol: Maximum number of non-zero 1st derivatives   =     241
 Leave Link  701 at Fri Nov  1 04:25:43 2019, MaxMem=   280000000 cpu:              86.7 elap:               4.7
 (Enter /usr/g16/l702.exe)
 L702 exits ... SP integral derivatives will be done elsewhere.
 Leave Link  702 at Fri Nov  1 04:25:43 2019, MaxMem=   280000000 cpu:               2.5 elap:               0.2
 (Enter /usr/g16/l703.exe)
 Integral derivatives from FoFJK, PRISM(SPDF).
 Compute integral first derivatives, UseDBF=F ICtDFT=           0.
 Calling FoFJK, ICntrl=      2127 FMM=F ISym2X=0 I1Cent= 0 IOpClX= 0 NMat=1 NMatS=1 NMatT=0.
 FoFJK:  IHMeth= 1 ICntrl=    2127 DoSepK=F KAlg= 0 I1Cent=           0 FoldK=F
 IRaf=         0 NMat=       1 IRICut=       1 DoRegI=T DoRafI=F ISym2E= 0 IDoP0=0 IntGTp=1.
 FoFCou: FMM=F IPFlag=           0 FMFlag=      100000 FMFlg1=         800
         NFxFlg=           0 DoJE=F BraDBF=F KetDBF=F FulRan=T
         wScrn=  0.000000 ICntrl=      2127 IOpCl=  0 I1Cent=           0 NGrid=           0
         NMat0=    1 NMatS0=      1 NMatT0=    0 NMatD0=    1 NMtDS0=    0 NMtDT0=    0
 Symmetry not used in FoFCou.
 Leave Link  703 at Fri Nov  1 04:25:46 2019, MaxMem=   280000000 cpu:              47.2 elap:               2.5
 (Enter /usr/g16/l716.exe)
 Dipole        =-2.28621547D-02 2.29667823D-02-3.27379140D-01
 ***** Axes restored to original set *****
 -------------------------------------------------------------------
[...]
    14  H    2.321622   2.448086   2.489933   3.341699   2.323962
    15  H    2.834504   2.960006   3.622627   3.393692   2.832870
                   11         12         13         14         15
    11  H    0.000000
    12  H    1.765111   0.000000
    13  H    1.791200   1.791072   0.000000
    14  H    2.466005   2.478038   3.343612   0.000000
    15  H    3.612866   2.943398   3.408336   2.065324   0.000000
 Stoichiometry    C3H11P
 Framework group  C1[X(C3H11P)]
 Deg. of freedom    39
 Full point group                 C1      NOp   1
 RotChk:  IX=0 Diff= 1.11D-02
 Largest Abelian subgroup         C1      NOp   1
 Largest concise Abelian subgroup C1      NOp   1
                         Standard orientation:                         
 ---------------------------------------------------------------------
 Center     Atomic      Atomic             Coordinates (Angstroms)
 Number     Number       Type             X           Y           Z
 ---------------------------------------------------------------------
      1         15           0       -0.000711   -0.215706    0.433086
      2          6           0        0.001408    1.637832   -0.112410
      3          1           0       -0.890088    2.154154    0.270320
      4          1           0        0.885279    2.153626    0.287991
      5          1           0        0.012031    1.739672   -1.206070
      6          6           0        1.633021   -0.582979   -0.383378
      7          1           0        2.305793   -1.004501    0.371177
      8          1           0        1.457506   -1.361394   -1.134947
      9          1           0        2.098919    0.285891   -0.855699
     10          6           0       -1.632736   -0.581680   -0.384837
     11          1           0       -1.472074   -1.397780   -1.098270
     12          1           0       -2.322272   -0.950443    0.382496
     13          1           0       -2.073446    0.277458   -0.897459
     14          1           0        0.000818   -1.668049    0.860996
     15          1           0       -0.001956    0.167919    1.806922
 ---------------------------------------------------------------------
 Rotational constants (GHZ):           6.1330856           4.6386605           3.3162668
 Leave Link  202 at Fri Nov  1 04:34:13 2019, MaxMem=   280000000 cpu:               3.2 elap:               0.2
 (Enter /usr/g16/l301.exe)
 Standard basis: 6-31G(d) (6D, 7F)
 Ernie: Thresh=  0.10000D-02 Tol=  0.10000D-05 Strict=F.
 There are    86 symmetry adapted cartesian basis functions of A   symmetry.
 There are    86 symmetry adapted basis functions of A   symmetry.
    86 basis functions,   180 primitive gaussians,    86 cartesian basis functions
    22 alpha electrons       22 beta electrons
       nuclear repulsion energy       195.3781847429 Hartrees.
 IExCor=  402 DFT=T Ex+Corr=B3LYP ExCW=0 ScaHFX=  0.200000
 ScaDFX=  0.800000  0.720000  1.000000  0.810000 ScalE2=  1.000000  1.000000
 IRadAn=      5 IRanWt=     -1 IRanGd=            0 ICorTp=0 IEmpDi=141
 NAtoms=   15 NActive=   15 NUniq=   15 SFac= 1.00D+00 NAtFMM=   60 NAOKFM=F Big=F
 Integral buffers will be    131072 words long.
 Raffenetti 2 integral format.
 Two-electron integral symmetry is turned on.
 R6Disp:  Grimme-D3(BJ) Dispersion energy=       -0.0210901937 Hartrees.
 Nuclear repulsion after empirical dispersion term =      195.3570945492 Hartrees.
 ------------------------------------------------------------------------------
 Polarizable Continuum Model (PCM)
 =================================
 Model                : PCM.
 Atomic radii         : SMD-Coulomb.
 Polarization charges : Total charges.
 Charge compensation  : None.
 Solution method      : Matrix inversion.
 Cavity type          : VdW (van der Waals Surface) (Alpha=1.000).
 Cavity algorithm     : GePol (No added spheres)
                        Default sphere list used, NSphG=   15.
                        Lebedev-Laikov grids with approx.  5.0 points / Ang**2.
                        Smoothing algorithm: York/Karplus (Gamma=1.0000).
                        Polarization charges: spherical gaussians, with
                                              point-specific exponents (IZeta= 3).
                        Self-potential: point-specific (ISelfS= 7).
                        Self-field    : sphere-specific E.n sum rule (ISelfD= 2).
 1st derivatives      : Analytical E(r).r(x)/FMM algorithm (CHGder, D1EAlg=3).
                        Cavity 1st derivative terms included.
 Solvent              : Benzene, Eps=   2.270600 Eps(inf)=   2.253301
 ------------------------------------------------------------------------------
 Spheres list:
 ISph  on   Nord     Re0    Alpha      Xe            Ye            Ze
    1   P      1    2.1200  1.000     -0.000711     -0.215706      0.433086
    2   C      2    1.8500  1.000      0.001408      1.637832     -0.112410
    3   H      3    1.2000  1.000     -0.890088      2.154154      0.270320
    4   H      4    1.2000  1.000      0.885279      2.153626      0.287991
    5   H      5    1.2000  1.000      0.012031      1.739672     -1.206070
    6   C      6    1.8500  1.000      1.633021     -0.582979     -0.383378
    7   H      7    1.2000  1.000      2.305793     -1.004501      0.371177
    8   H      8    1.2000  1.000      1.457506     -1.361394     -1.134947
    9   H      9    1.2000  1.000      2.098919      0.285891     -0.855699
   10   C     10    1.8500  1.000     -1.632736     -0.581680     -0.384837
   11   H     11    1.2000  1.000     -1.472074     -1.397780     -1.098270
   12   H     12    1.2000  1.000     -2.322272     -0.950443      0.382496
   13   H     13    1.2000  1.000     -2.073446      0.277458     -0.897459
   14   H     14    1.2000  1.000      0.000818     -1.668049      0.860996
   15   H     15    1.2000  1.000     -0.001956      0.167919      1.806922
 ------------------------------------------------------------------------------
 GePol: Number of generator spheres                  =      15
 GePol: Total number of spheres                      =      15
 GePol: Number of exposed spheres                    =      15 (100.00%)
 GePol: Number of points                             =    1080
 GePol: Average weight of points                     =       0.12
 GePol: Minimum weight of points                     =   0.45D-09
 GePol: Maximum weight of points                     =    0.20615
 GePol: Number of points with low weight             =      50
 GePol: Fraction of low-weight points (<1% of avg)   =       4.63%
 GePol: Cavity surface area                          =    125.348 Ang**2
 GePol: Cavity volume                                =     99.307 Ang**3
 ------------------------------------------------------------------------------
 Atomic radii for non-electrostatic terms: SMD-CDS.
 ------------------------------------------------------------------------------
 PCM non-electrostatic energy =         0.0003859894 Hartrees.
 Nuclear repulsion after PCM non-electrostatic terms =      195.3574805387 Hartrees.
 Leave Link  301 at Fri Nov  1 04:34:14 2019, MaxMem=   280000000 cpu:               3.7 elap:               0.2
 (Enter /usr/g16/l302.exe)
 NPDir=0 NMtPBC=     1 NCelOv=     1 NCel=       1 NClECP=     1 NCelD=      1
         NCelK=      1 NCelE2=     1 NClLst=     1 CellRange=     0.0.
 One-electron integrals computed using PRISM.
 One-electron integral symmetry used in STVInt
 NBasis=    86 RedAO= T EigKep=  5.09D-03  NBF=    86
 NBsUse=    86 1.00D-06 EigRej= -1.00D+00 NBFU=    86
 Precomputing XC quadrature grid using
 IXCGrd= 4 IRadAn=           5 IRanWt=          -1 IRanGd=           0 AccXCQ= 0.00D+00.
 Generated NRdTot=       0 NPtTot=           0 NUsed=           0 NTot=          32
 NSgBfM=    86    86    86    86    86 MxSgAt=    15 MxSgA2=    15.
 Leave Link  302 at Fri Nov  1 04:34:15 2019, MaxMem=   280000000 cpu:              27.4 elap:               1.5
 (Enter /usr/g16/l303.exe)
 DipDrv:  MaxL=1.
 Leave Link  303 at Fri Nov  1 04:34:15 2019, MaxMem=   280000000 cpu:               6.0 elap:               0.3
 (Enter /usr/g16/l401.exe)
 Initial guess from the checkpoint file:  "PMe3_ts.chk"
 B after Tr=    -0.000000   -0.000000   -0.000000
         Rot=    0.999996   -0.002618   -0.001004   -0.000753 Ang=  -0.33 deg.
 Guess basis will be translated and rotated to current coordinates.
 JPrj=2 DoOrth=T DoCkMO=T.
 Generating alternative initial guess.
 ExpMin= 9.98D-02 ExpMax= 1.94D+04 ExpMxC= 2.91D+03 IAcc=2 IRadAn=         4 AccDes= 0.00D+00
 Harris functional with IExCor=  402 and IRadAn=       4 diagonalized for initial guess.
 HarFok:  IExCor=  402 AccDes= 0.00D+00 IRadAn=         4 IDoV= 1 UseB2=F ITyADJ=14
 ICtDFT=  3500011 ScaDFX=  1.000000  1.000000  1.000000  1.000000
 FoFCou: FMM=F IPFlag=           0 FMFlag=      100000 FMFlg1=           0
         NFxFlg=           0 DoJE=T BraDBF=F KetDBF=T FulRan=T
         wScrn=  0.000000 ICntrl=       500 IOpCl=  0 I1Cent=   200000004 NGrid=           0
         NMat0=    1 NMatS0=      1 NMatT0=    0 NMatD0=    1 NMtDS0=    0 NMtDT0=    0
 Petite list used in FoFCou.
 Harris En= -462.315263324908    
 Leave Link  401 at Fri Nov  1 04:34:18 2019, MaxMem=   280000000 cpu:              40.7 elap:               2.3
 (Enter /usr/g16/l502.exe)
 Integral symmetry usage will be decided dynamically.
 Closed shell SCF:
 Using DIIS extrapolation, IDIIS=  1040.
 NGot=   280000000 LenX=   279981836 LenY=   279973999
 Requested convergence on RMS density matrix=1.00D-08 within 128 cycles.
 Requested convergence on MAX density matrix=1.00D-06.
 Requested convergence on             energy=1.00D-06.
 No special actions if energy rises.
 Fock matrices will be formed incrementally for  20 cycles.

 Cycle   1  Pass 1  IDiag  1:
 FoFJK:  IHMeth= 1 ICntrl=       0 DoSepK=F KAlg= 0 I1Cent=           0 FoldK=F
 IRaf= 990000000 NMat=       1 IRICut=       1 DoRegI=T DoRafI=F ISym2E= 0 IDoP0=0 IntGTp=1.
 FoFCou: FMM=F IPFlag=           0 FMFlag=      100000 FMFlg1=           0
         NFxFlg=           0 DoJE=F BraDBF=F KetDBF=F FulRan=T
         wScrn=  0.000000 ICntrl=         0 IOpCl=  0 I1Cent=           0 NGrid=           0
         NMat0=    1 NMatS0=      1 NMatT0=    0 NMatD0=    1 NMtDS0=    0 NMtDT0=    0
 Symmetry not used in FoFCou.
 Inv3:  Mode=1 IEnd=     3499200.
 Iteration    1 A*A^-1 deviation from unit magnitude is 5.11D-15 for   1070.
 Iteration    1 A*A^-1 deviation from orthogonality  is 1.74D-15 for    804    500.
 Iteration    1 A^-1*A deviation from unit magnitude is 5.11D-15 for   1070.
 Iteration    1 A^-1*A deviation from orthogonality  is 1.33D-15 for   1001    679.
 E= -462.241497908073    
 DIIS: error= 2.34D-03 at cycle   1 NSaved=   1.
 NSaved= 1 IEnMin= 1 EnMin= -462.241497908073     IErMin= 1 ErrMin= 2.34D-03
 ErrMax= 2.34D-03  0.00D+00 EMaxC= 1.00D-01 BMatC= 6.86D-04 BMatP= 6.86D-04
 IDIUse=3 WtCom= 9.77D-01 WtEn= 2.34D-02
 Coeff-Com:  0.100D+01
 Coeff-En:   0.100D+01
 Coeff:      0.100D+01
 Gap=     1.349 Goal=   None    Shift=    0.000
 GapD=    1.349 DampG=2.000 DampE=1.000 DampFc=2.0000 IDamp=-1.
 RMSDP=4.46D-04 MaxDP=8.47D-03              OVMax= 1.05D-02

 Cycle   2  Pass 1  IDiag  1:
 RMSU=  4.46D-04    CP:  1.00D+00
 E= -462.242971921840     Delta-E=       -0.001474013766 Rises=F Damp=F
 DIIS: error= 2.35D-04 at cycle   2 NSaved=   2.
 NSaved= 2 IEnMin= 2 EnMin= -462.242971921840     IErMin= 2 ErrMin= 2.35D-04
 ErrMax= 2.35D-04  0.00D+00 EMaxC= 1.00D-01 BMatC= 6.57D-06 BMatP= 6.86D-04
 IDIUse=3 WtCom= 9.98D-01 WtEn= 2.35D-03
 Coeff-Com: -0.966D-01 0.110D+01
 Coeff-En:   0.000D+00 0.100D+01
 Coeff:     -0.964D-01 0.110D+01
 Gap=     0.271 Goal=   None    Shift=    0.000
 RMSDP=6.87D-05 MaxDP=1.21D-03 DE=-1.47D-03 OVMax= 1.57D-03

 Cycle   3  Pass 1  IDiag  1:
 RMSU=  3.79D-05    CP:  1.00D+00  1.13D+00
 E= -462.242987814509     Delta-E=       -0.000015892669 Rises=F Damp=F
 DIIS: error= 9.34D-05 at cycle   3 NSaved=   3.
 NSaved= 3 IEnMin= 3 EnMin= -462.242987814509     IErMin= 3 ErrMin= 9.34D-05
 ErrMax= 9.34D-05  0.00D+00 EMaxC= 1.00D-01 BMatC= 8.31D-07 BMatP= 6.57D-06
 IDIUse=1 WtCom= 1.00D+00 WtEn= 0.00D+00
 Coeff-Com: -0.437D-01 0.479D+00 0.565D+00
 Coeff:     -0.437D-01 0.479D+00 0.565D+00
 Gap=     0.270 Goal=   None    Shift=    0.000
 RMSDP=1.37D-05 MaxDP=2.73D-04 DE=-1.59D-05 OVMax= 2.65D-04

 Cycle   4  Pass 1  IDiag  1:
 RMSU=  1.28D-05    CP:  1.00D+00  1.13D+00  8.81D-01
 E= -462.242988602402     Delta-E=       -0.000000787893 Rises=F Damp=F
 DIIS: error= 2.90D-05 at cycle   4 NSaved=   4.
 NSaved= 4 IEnMin= 4 EnMin= -462.242988602402     IErMin= 4 ErrMin= 2.90D-05
 ErrMax= 2.90D-05  0.00D+00 EMaxC= 1.00D-01 BMatC= 7.86D-08 BMatP= 8.31D-07
 IDIUse=1 WtCom= 1.00D+00 WtEn= 0.00D+00
 Coeff-Com:  0.150D-02-0.249D-01 0.224D+00 0.799D+00
 Coeff:      0.150D-02-0.249D-01 0.224D+00 0.799D+00
 Gap=     0.270 Goal=   None    Shift=    0.000
 RMSDP=3.76D-06 MaxDP=6.56D-05 DE=-7.88D-07 OVMax= 7.34D-05

 Cycle   5  Pass 1  IDiag  1:
 RMSU=  1.25D-06    CP:  1.00D+00  1.13D+00  9.51D-01  8.30D-01
 E= -462.242988686572     Delta-E=       -0.000000084169 Rises=F Damp=F
 DIIS: error= 2.28D-06 at cycle   5 NSaved=   5.
 NSaved= 5 IEnMin= 5 EnMin= -462.242988686572     IErMin= 5 ErrMin= 2.28D-06
 ErrMax= 2.28D-06  0.00D+00 EMaxC= 1.00D-01 BMatC= 9.91D-10 BMatP= 7.86D-08
 IDIUse=1 WtCom= 1.00D+00 WtEn= 0.00D+00
 Coeff-Com:  0.109D-02-0.152D-01 0.744D-01 0.296D+00 0.644D+00
 Coeff:      0.109D-02-0.152D-01 0.744D-01 0.296D+00 0.644D+00
 Gap=     0.270 Goal=   None    Shift=    0.000
 RMSDP=5.47D-07 MaxDP=7.78D-06 DE=-8.42D-08 OVMax= 9.44D-06

 Cycle   6  Pass 1  IDiag  1:
 RMSU=  4.14D-07    CP:  1.00D+00  1.13D+00  9.54D-01  8.38D-01  7.42D-01
 E= -462.242988687546     Delta-E=       -0.000000000974 Rises=F Damp=F
 DIIS: error= 1.20D-06 at cycle   6 NSaved=   6.
 NSaved= 6 IEnMin= 6 EnMin= -462.242988687546     IErMin= 6 ErrMin= 1.20D-06
 ErrMax= 1.20D-06  0.00D+00 EMaxC= 1.00D-01 BMatC= 1.21D-10 BMatP= 9.91D-10
 IDIUse=1 WtCom= 1.00D+00 WtEn= 0.00D+00
 Coeff-Com:  0.443D-03-0.593D-02 0.219D-01 0.945D-01 0.315D+00 0.574D+00
 Coeff:      0.443D-03-0.593D-02 0.219D-01 0.945D-01 0.315D+00 0.574D+00
 Gap=     0.270 Goal=   None    Shift=    0.000
 RMSDP=1.58D-07 MaxDP=2.75D-06 DE=-9.74D-10 OVMax= 2.67D-06

 Cycle   7  Pass 1  IDiag  1:
 RMSU=  8.75D-08    CP:  1.00D+00  1.13D+00  9.54D-01  8.40D-01  7.83D-01
                    CP:  7.21D-01
 E= -462.242988687676     Delta-E=       -0.000000000131 Rises=F Damp=F
 DIIS: error= 1.07D-07 at cycle   7 NSaved=   7.
 NSaved= 7 IEnMin= 7 EnMin= -462.242988687676     IErMin= 7 ErrMin= 1.07D-07
 ErrMax= 1.07D-07  0.00D+00 EMaxC= 1.00D-01 BMatC= 1.42D-12 BMatP= 1.21D-10
 IDIUse=1 WtCom= 1.00D+00 WtEn= 0.00D+00
 Coeff-Com:  0.468D-04-0.602D-03 0.132D-02 0.692D-02 0.391D-01 0.127D+00
 Coeff-Com:  0.826D+00
 Coeff:      0.468D-04-0.602D-03 0.132D-02 0.692D-02 0.391D-01 0.127D+00
 Coeff:      0.826D+00
 Gap=     0.270 Goal=   None    Shift=    0.000
 RMSDP=3.01D-08 MaxDP=4.87D-07 DE=-1.31D-10 OVMax= 7.01D-07

 Cycle   8  Pass 1  IDiag  1:
 RMSU=  2.09D-08    CP:  1.00D+00  1.13D+00  9.54D-01  8.41D-01  7.92D-01
                    CP:  7.55D-01  1.00D+00
 E= -462.242988687677     Delta-E=       -0.000000000000 Rises=F Damp=F
 DIIS: error= 4.51D-08 at cycle   8 NSaved=   8.
 NSaved= 8 IEnMin= 8 EnMin= -462.242988687677     IErMin= 8 ErrMin= 4.51D-08
 ErrMax= 4.51D-08  0.00D+00 EMaxC= 1.00D-01 BMatC= 2.64D-13 BMatP= 1.42D-12
 IDIUse=1 WtCom= 1.00D+00 WtEn= 0.00D+00
 Coeff-Com: -0.594D-05 0.890D-04-0.669D-03-0.255D-02-0.214D-02 0.178D-01
 Coeff-Com:  0.342D+00 0.646D+00
 Coeff:     -0.594D-05 0.890D-04-0.669D-03-0.255D-02-0.214D-02 0.178D-01
 Coeff:      0.342D+00 0.646D+00
 Gap=     0.270 Goal=   None    Shift=    0.000
 RMSDP=9.67D-09 MaxDP=3.24D-07 DE=-3.41D-13 OVMax= 1.67D-07

 Error on total polarization charges =  0.02710
 SCF Done:  E(RB3LYP) =  -462.242988688     A.U. after    8 cycles
            NFock=  8  Conv=0.97D-08     -V/T= 2.0057
 KE= 4.596363041176D+02 PE=-1.479870679161D+03 EE= 3.626339058172D+02
 SMD-CDS (non-electrostatic) energy       (kcal/mol) =       0.24
 (included in total energy above)
 Leave Link  502 at Fri Nov  1 04:34:42 2019, MaxMem=   280000000 cpu:             443.3 elap:              24.7
 (Enter /usr/g16/l701.exe)
 ... and contract with generalized density number  0.
 Compute integral first derivatives.
 R6Disp: Adding Grimme-D3(BJ) dispersion energy 1st derivatives to the gradient.
 D1PCM: PCM CHGder 1st derivatives, ID1Alg=3 FixD1E=F DoIter=F DoCFld=F I1PDM=0.
 GePol: Maximum number of non-zero 1st derivatives   =     235
 Leave Link  701 at Fri Nov  1 04:34:47 2019, MaxMem=   280000000 cpu:              78.6 elap:               4.4
 (Enter /usr/g16/l702.exe)
 L702 exits ... SP integral derivatives will be done elsewhere.
 Leave Link  702 at Fri Nov  1 04:34:47 2019, MaxMem=   280000000 cpu:               1.9 elap:               0.1
 (Enter /usr/g16/l703.exe)
 Integral derivatives from FoFJK, PRISM(SPDF).
 Compute integral first derivatives, UseDBF=F ICtDFT=           0.
 Calling FoFJK, ICntrl=      2127 FMM=F ISym2X=0 I1Cent= 0 IOpClX= 0 NMat=1 NMatS=1 NMatT=0.
 FoFJK:  IHMeth= 1 ICntrl=    2127 DoSepK=F KAlg= 0 I1Cent=           0 FoldK=F
 IRaf=         0 NMat=       1 IRICut=       1 DoRegI=T DoRafI=F ISym2E= 0 IDoP0=0 IntGTp=1.
 FoFCou: FMM=F IPFlag=           0 FMFlag=      100000 FMFlg1=         800
         NFxFlg=           0 DoJE=F BraDBF=F KetDBF=F FulRan=T
         wScrn=  0.000000 ICntrl=      2127 IOpCl=  0 I1Cent=           0 NGrid=           0
         NMat0=    1 NMatS0=      1 NMatT0=    0 NMatD0=    1 NMtDS0=    0 NMtDT0=    0
 Symmetry not used in FoFCou.
 Leave Link  703 at Fri Nov  1 04:34:49 2019, MaxMem=   280000000 cpu:              42.1 elap:               2.3
 (Enter /usr/g16/l716.exe)
 Dipole        =-3.89419764D-03 4.76145634D-02-2.88685211D-01
 ***** Axes restored to original set *****
 -------------------------------------------------------------------
 Center     Atomic                   Forces (Hartrees/Bohr)
 Number     Number              X              Y              Z
 -------------------------------------------------------------------
      1       15           0.000054519   -0.001083607   -0.005547184
      2        6           0.000125525    0.000557844    0.002441100
      3        1           0.000070568   -0.000058660    0.000030631
      4        1          -0.000005844    0.000040554   -0.000023459
      5        1          -0.000037581    0.000030642   -0.000011907
      6        6          -0.000116064   -0.000094384    0.000100984
      7        1          -0.000024086    0.000042508    0.000017765
      8        1           0.000026967   -0.000017652    0.000039905
      9        1          -0.000064198   -0.000019860    0.000000036
     10        6          -0.000033540   -0.000014780   -0.000084219
     11        1           0.000006223   -0.000025645   -0.000008736
     12        1           0.000042437   -0.000013049   -0.000002926
     13        1          -0.000005370   -0.000037539   -0.000000588
     14        1          -0.000108940    0.000744830    0.003168488
     15        1           0.000069383   -0.000051202   -0.000119889
 -------------------------------------------------------------------
 Cartesian Forces:  Max     0.005547184 RMS     0.001042766
 Leave Link  716 at Fri Nov  1 04:34:49 2019, MaxMem=   280000000 cpu:               1.7 elap:               0.1
 (Enter /usr/g16/l103.exe)

 GradGradGradGradGradGradGradGradGradGradGradGradGradGradGradGradGradGrad
 Berny optimization.
 Step requested is out of bounds
 IStep =    101 but MinStp =      1 and MaxStp =    100
 RdWrOT:  IStep out of bounds
 Error termination via Lnk1e in /usr/g16/l103.exe at Fri Nov  1 04:34:49 2019.
 Job cpu time:       0 days  3 hours 31 minutes 46.0 seconds.
 Elapsed time:       0 days  0 hours 11 minutes 36.2 seconds.
 File lengths (MBytes):  RWF=     55 Int=      0 D2E=      0 Chk=      8 Scr=      1
