 Entering Gaussian System, Link 0=g16
 Input=PMe3_ts2.gjf
 Output=PMe3_ts2.log
 Initial command:
 /usr/g16/l1.exe "/scratch/wsr/gaussian/Gau-36667.inp" -scrdir="/scratch/wsr/gaussian/"
 Entering Link 1 = /usr/g16/l1.exe PID=     36668.
  
 Copyright (c) 1988,1990,1992,1993,1995,1998,2003,2009,2016,
            Gaussian, Inc.  All Rights Reserved.
  
 This is part of the Gaussian(R) 16 program.  It is based on
 the Gaussian(R) 09 system (copyright 2009, Gaussian, Inc.),
 the Gaussian(R) 03 system (copyright 2003, Gaussian, Inc.),
 the Gaussian(R) 98 system (copyright 1998, Gaussian, Inc.),
 the Gaussian(R) 94 system (copyright 1995, Gaussian, Inc.),
 the Gaussian 92(TM) system (copyright 1992, Gaussian, Inc.),
 the Gaussian 90(TM) system (copyright 1990, Gaussian, Inc.),
 the Gaussian 88(TM) system (copyright 1988, Gaussian, Inc.),
 the Gaussian 86(TM) system (copyright 1986, Carnegie Mellon
 University), and the Gaussian 82(TM) system (copyright 1983,
 Carnegie Mellon University). Gaussian is a federally registered
 trademark of Gaussian, Inc.
  
 This software contains proprietary and confidential information,
 including trade secrets, belonging to Gaussian, Inc.
  
 This software is provided under written license and may be
 used, copied, transmitted, or stored only in accord with that
 written license.
  
 The following legend is applicable only to US Government
 contracts under FAR:
  
                    RESTRICTED RIGHTS LEGEND
  
 Use, reproduction and disclosure by the US Government is
 subject to restrictions as set forth in subparagraphs (a)
 and (c) of the Commercial Computer Software - Restricted
 Rights clause in FAR 52.227-19.
  
 Gaussian, Inc.
 340 Quinnipiac St., Bldg. 40, Wallingford CT 06492
  
  
 ---------------------------------------------------------------
 Warning -- This program may not be used in any manner that
 competes with the business of Gaussian, Inc. or will provide
 assistance to any competitor of Gaussian, Inc.  The licensee
 of this program is prohibited from giving any competitor of
 Gaussian, Inc. access to this program.  By using this program,
 the user acknowledges that Gaussian, Inc. is engaged in the
 business of creating and licensing software in the field of
 computational chemistry and represents and warrants to the
 licensee that it is not a competitor of Gaussian, Inc. and that
 it will not use this program in any manner prohibited above.
 ---------------------------------------------------------------
  

 Cite this work as:
 Gaussian 16, Revision A.03,
 M. J. Frisch, G. W. Trucks, H. B. Schlegel, G. E. Scuseria, 
 M. A. Robb, J. R. Cheeseman, G. Scalmani, V. Barone, 
 G. A. Petersson, H. Nakatsuji, X. Li, M. Caricato, A. V. Marenich, 
 J. Bloino, B. G. Janesko, R. Gomperts, B. Mennucci, H. P. Hratchian, 
 J. V. Ortiz, A. F. Izmaylov, J. L. Sonnenberg, D. Williams-Young, 
 F. Ding, F. Lipparini, F. Egidi, J. Goings, B. Peng, A. Petrone, 
 T. Henderson, D. Ranasinghe, V. G. Zakrzewski, J. Gao, N. Rega, 
 G. Zheng, W. Liang, M. Hada, M. Ehara, K. Toyota, R. Fukuda, 
 J. Hasegawa, M. Ishida, T. Nakajima, Y. Honda, O. Kitao, H. Nakai, 
 T. Vreven, K. Throssell, J. A. Montgomery, Jr., J. E. Peralta, 
 F. Ogliaro, M. J. Bearpark, J. J. Heyd, E. N. Brothers, K. N. Kudin, 
 V. N. Staroverov, T. A. Keith, R. Kobayashi, J. Normand, 
 K. Raghavachari, A. P. Rendell, J. C. Burant, S. S. Iyengar, 
 J. Tomasi, M. Cossi, J. M. Millam, M. Klene, C. Adamo, R. Cammi, 
 J. W. Ochterski, R. L. Martin, K. Morokuma, O. Farkas, 
 J. B. Foresman, and D. J. Fox, Gaussian, Inc., Wallingford CT, 2016.
 
 ******************************************
 Gaussian 16:  ES64L-G16RevA.03 25-Dec-2016
                 1-Nov-2019 
 ******************************************
 %chk=PMe3_ts2.chk
 %nprocshared=24
 Will use up to   24 processors via shared memory.
 ----------------------------------------------------------------------
 #p opt=(calcfc,ts,noeigen) freq b3lyp/6-31g(d) scrf=(smd,solvent=benze
 ne) em=gd3bj
 ----------------------------------------------------------------------
 1/5=1,10=4,11=1,18=20,26=3,38=1/1,3;
 2/9=110,12=2,17=6,18=5,40=1/2;
 3/5=1,6=6,7=1,11=2,25=1,30=1,70=32201,71=2,72=12,74=-5,124=41,140=1/1,2,3;
 4//1;
 5/5=2,38=5,53=12/2;
 8/6=4,10=90,11=11/1;
 11/6=1,8=1,9=11,15=111,16=1/1,2,10;
 10/6=1,13=1/2;
 6/7=2,8=2,9=2,10=2,28=1/1;
 7/10=1,18=20,25=1/1,2,3,16;
 1/5=1,10=4,11=1,18=20,26=3/3(2);
 2/9=110/2;
 99//99;
 2/9=110/2;
 3/5=1,6=6,7=1,11=2,25=1,30=1,70=32205,71=1,72=12,74=-5,124=41/1,2,3;
 4/5=5,16=3,69=1/1;
 5/5=2,38=5,53=12/2;
 7//1,2,3,16;
 1/5=1,11=1,18=20,26=3/3(-5);
 2/9=110/2;
 6/7=2,8=2,9=2,10=2,19=2,28=1/1;
 99/9=1/99;
 Leave Link    1 at Fri Nov  1 04:47:08 2019, MaxMem=           0 cpu:               2.4 elap:               0.1
 (Enter /usr/g16/l101.exe)
 -----
 title
 -----
 Symbolic Z-matrix:
 Charge =  0 Multiplicity = 1
 P                    -0.00071  -0.21571   0.43309 
 C                     0.00141   1.63783  -0.11241 
 H                    -0.89009   2.15415   0.27032 
 H                     0.88528   2.15363   0.28799 
 H                     0.01203   1.73967  -1.20607 
 C                     1.63302  -0.58298  -0.38338 
 H                     2.30579  -1.0045    0.37118 
 H                     1.45751  -1.36139  -1.13495 
 H                     2.09892   0.28589  -0.8557 
 C                    -1.63274  -0.58168  -0.38484 
 H                    -1.47207  -1.39778  -1.09827 
 H                    -2.32227  -0.95044   0.3825 
 H                    -2.07345   0.27746  -0.89746 
 H                     0.00082  -1.66805   0.861 
 H                    -0.00196   0.16792   1.80692 
 
 ITRead=  0  0  0  0  0  0  0  0  0  0  0  0  0  0  0
 MicOpt= -1 -1 -1 -1 -1 -1 -1 -1 -1 -1 -1 -1 -1 -1 -1
 NAtoms=     15 NQM=       15 NQMF=       0 NMMI=      0 NMMIF=      0
                NMic=       0 NMicF=      0.
                    Isotopes and Nuclear Properties:
 (Nuclear quadrupole moments (NQMom) in fm**2, nuclear magnetic moments (NMagM)
  in nuclear magnetons)

  Atom         1           2           3           4           5           6           7           8           9          10
 IAtWgt=          31          12           1           1           1          12           1           1           1          12
 AtmWgt=  30.9737634  12.0000000   1.0078250   1.0078250   1.0078250  12.0000000   1.0078250   1.0078250   1.0078250  12.0000000
 NucSpn=           1           0           1           1           1           0           1           1           1           0
 AtZEff=  -0.0000000  -0.0000000  -0.0000000  -0.0000000  -0.0000000  -0.0000000  -0.0000000  -0.0000000  -0.0000000  -0.0000000
 NQMom=    0.0000000   0.0000000   0.0000000   0.0000000   0.0000000   0.0000000   0.0000000   0.0000000   0.0000000   0.0000000
 NMagM=    1.1316000   0.0000000   2.7928460   2.7928460   2.7928460   0.0000000   2.7928460   2.7928460   2.7928460   0.0000000
 AtZNuc=  15.0000000   6.0000000   1.0000000   1.0000000   1.0000000   6.0000000   1.0000000   1.0000000   1.0000000   6.0000000

  Atom        11          12          13          14          15
 IAtWgt=           1           1           1           1           1
 AtmWgt=   1.0078250   1.0078250   1.0078250   1.0078250   1.0078250
 NucSpn=           1           1           1           1           1
 AtZEff=  -0.0000000  -0.0000000  -0.0000000  -0.0000000  -0.0000000
 NQMom=    0.0000000   0.0000000   0.0000000   0.0000000   0.0000000
 NMagM=    2.7928460   2.7928460   2.7928460   2.7928460   2.7928460
 AtZNuc=   1.0000000   1.0000000   1.0000000   1.0000000   1.0000000
 Leave Link  101 at Fri Nov  1 04:47:09 2019, MaxMem=   280000000 cpu:               6.4 elap:               0.4
 (Enter /usr/g16/l103.exe)

 GradGradGradGradGradGradGradGradGradGradGradGradGradGradGradGradGradGrad
 Berny optimization.
 Initialization pass.
                           ----------------------------
                           !    Initial Parameters    !
                           ! (Angstroms and Degrees)  !
 --------------------------                            --------------------------
 ! Name  Definition              Value          Derivative Info.                !
 --------------------------------------------------------------------------------
 ! R1    R(1,2)                  1.9321         calculate D2E/DX2 analytically  !
 ! R2    R(1,6)                  1.863          calculate D2E/DX2 analytically  !
 ! R3    R(1,10)                 1.8618         calculate D2E/DX2 analytically  !
 ! R4    R(1,14)                 1.5141         calculate D2E/DX2 analytically  !
 ! R5    R(1,15)                 1.4264         calculate D2E/DX2 analytically  !
 ! R6    R(2,3)                  1.099          calculate D2E/DX2 analytically  !
 ! R7    R(2,4)                  1.0989         calculate D2E/DX2 analytically  !
 ! R8    R(2,5)                  1.0984         calculate D2E/DX2 analytically  !
 ! R9    R(6,7)                  1.0953         calculate D2E/DX2 analytically  !
 ! R10   R(6,8)                  1.0962         calculate D2E/DX2 analytically  !
 ! R11   R(6,9)                  1.0932         calculate D2E/DX2 analytically  !
 ! R12   R(10,11)                1.0958         calculate D2E/DX2 analytically  !
 ! R13   R(10,12)                1.0956         calculate D2E/DX2 analytically  !
 ! R14   R(10,13)                1.0932         calculate D2E/DX2 analytically  !
 ! A1    A(2,1,6)               93.6941         calculate D2E/DX2 analytically  !
 ! A2    A(2,1,10)              93.7557         calculate D2E/DX2 analytically  !
 ! A3    A(2,1,15)              90.7975         calculate D2E/DX2 analytically  !
 ! A4    A(6,1,10)             122.5087         calculate D2E/DX2 analytically  !
 ! A5    A(6,1,14)              86.2082         calculate D2E/DX2 analytically  !
 ! A6    A(6,1,15)             118.4182         calculate D2E/DX2 analytically  !
 ! A7    A(10,1,14)             86.3588         calculate D2E/DX2 analytically  !
 ! A8    A(10,1,15)            118.3739         calculate D2E/DX2 analytically  !
 ! A9    A(14,1,15)             89.1849         calculate D2E/DX2 analytically  !
 ! A10   A(1,2,3)              110.578          calculate D2E/DX2 analytically  !
 ! A11   A(1,2,4)              110.3826         calculate D2E/DX2 analytically  !
 ! A12   A(1,2,5)              111.7187         calculate D2E/DX2 analytically  !
 ! A13   A(3,2,4)              107.7608         calculate D2E/DX2 analytically  !
 ! A14   A(3,2,5)              108.1207         calculate D2E/DX2 analytically  !
 ! A15   A(4,2,5)              108.1486         calculate D2E/DX2 analytically  !
 ! A16   A(1,6,7)              108.2167         calculate D2E/DX2 analytically  !
 ! A17   A(1,6,8)              107.4618         calculate D2E/DX2 analytically  !
 ! A18   A(1,6,9)              113.9792         calculate D2E/DX2 analytically  !
 ! A19   A(7,6,8)              107.3014         calculate D2E/DX2 analytically  !
 ! A20   A(7,6,9)              109.9834         calculate D2E/DX2 analytically  !
 ! A21   A(8,6,9)              109.6583         calculate D2E/DX2 analytically  !
 ! A22   A(1,10,11)            107.6912         calculate D2E/DX2 analytically  !
 ! A23   A(1,10,12)            108.0697         calculate D2E/DX2 analytically  !
 ! A24   A(1,10,13)            113.8843         calculate D2E/DX2 analytically  !
 ! A25   A(11,10,12)           107.3134         calculate D2E/DX2 analytically  !
 ! A26   A(11,10,13)           109.8218         calculate D2E/DX2 analytically  !
 ! A27   A(12,10,13)           109.8297         calculate D2E/DX2 analytically  !
 ! A28   L(2,1,14,6,-1)        179.9023         calculate D2E/DX2 analytically  !
 ! A29   L(2,1,14,6,-2)        179.9268         calculate D2E/DX2 analytically  !
 ! D1    D(6,1,2,3)           -178.5926         calculate D2E/DX2 analytically  !
 ! D2    D(6,1,2,4)            -59.4429         calculate D2E/DX2 analytically  !
 ! D3    D(6,1,2,5)             60.9333         calculate D2E/DX2 analytically  !
 ! D4    D(10,1,2,3)            58.4549         calculate D2E/DX2 analytically  !
 ! D5    D(10,1,2,4)           177.6045         calculate D2E/DX2 analytically  !
 ! D6    D(10,1,2,5)           -62.0192         calculate D2E/DX2 analytically  !
 ! D7    D(15,1,2,3)           -60.0482         calculate D2E/DX2 analytically  !
 ! D8    D(15,1,2,4)            59.1014         calculate D2E/DX2 analytically  !
 ! D9    D(15,1,2,5)           179.4777         calculate D2E/DX2 analytically  !
 ! D10   D(2,1,6,7)            124.9395         calculate D2E/DX2 analytically  !
 ! D11   D(2,1,6,8)           -119.4825         calculate D2E/DX2 analytically  !
 ! D12   D(2,1,6,9)              2.2457         calculate D2E/DX2 analytically  !
 ! D13   D(10,1,6,7)          -138.2273         calculate D2E/DX2 analytically  !
 ! D14   D(10,1,6,8)           -22.6493         calculate D2E/DX2 analytically  !
 ! D15   D(10,1,6,9)            99.0789         calculate D2E/DX2 analytically  !
 ! D16   D(14,1,6,7)           -54.9873         calculate D2E/DX2 analytically  !
 ! D17   D(14,1,6,8)            60.5907         calculate D2E/DX2 analytically  !
 ! D18   D(14,1,6,9)          -177.681          calculate D2E/DX2 analytically  !
 ! D19   D(15,1,6,7)            32.0278         calculate D2E/DX2 analytically  !
 ! D20   D(15,1,6,8)           147.6059         calculate D2E/DX2 analytically  !
 ! D21   D(15,1,6,9)           -90.6659         calculate D2E/DX2 analytically  !
 ! D22   D(2,1,10,11)          122.4841         calculate D2E/DX2 analytically  !
 ! D23   D(2,1,10,12)         -121.8804         calculate D2E/DX2 analytically  !
 ! D24   D(2,1,10,13)            0.4443         calculate D2E/DX2 analytically  !
 ! D25   D(6,1,10,11)           25.6844         calculate D2E/DX2 analytically  !
 ! D26   D(6,1,10,12)          141.3199         calculate D2E/DX2 analytically  !
 ! D27   D(6,1,10,13)          -96.3554         calculate D2E/DX2 analytically  !
 ! D28   D(14,1,10,11)         -57.4737         calculate D2E/DX2 analytically  !
 ! D29   D(14,1,10,12)          58.1619         calculate D2E/DX2 analytically  !
 ! D30   D(14,1,10,13)        -179.5134         calculate D2E/DX2 analytically  !
 ! D31   D(15,1,10,11)        -144.5749         calculate D2E/DX2 analytically  !
 ! D32   D(15,1,10,12)         -28.9394         calculate D2E/DX2 analytically  !
 ! D33   D(15,1,10,13)          93.3853         calculate D2E/DX2 analytically  !
 --------------------------------------------------------------------------------
 Trust Radius=3.00D-01 FncErr=1.00D-07 GrdErr=1.00D-06 EigMax=2.50D+02 EigMin=1.00D-04
 Number of steps in this run=     86 maximum allowed number of steps=    100.
 Search for a saddle point of order  1.
 GradGradGradGradGradGradGradGradGradGradGradGradGradGradGradGradGradGrad

 Leave Link  103 at Fri Nov  1 04:47:09 2019, MaxMem=   280000000 cpu:               1.8 elap:               0.1
 (Enter /usr/g16/l202.exe)
                          Input orientation:                          
 ---------------------------------------------------------------------
 Center     Atomic      Atomic             Coordinates (Angstroms)
 Number     Number       Type             X           Y           Z
 ---------------------------------------------------------------------
      1         15           0       -0.000711   -0.215706    0.433086
      2          6           0        0.001408    1.637832   -0.112410
      3          1           0       -0.890088    2.154154    0.270320
      4          1           0        0.885279    2.153626    0.287991
      5          1           0        0.012031    1.739672   -1.206070
      6          6           0        1.633021   -0.582979   -0.383378
      7          1           0        2.305793   -1.004501    0.371177
      8          1           0        1.457506   -1.361394   -1.134947
      9          1           0        2.098919    0.285891   -0.855699
     10          6           0       -1.632736   -0.581680   -0.384837
     11          1           0       -1.472074   -1.397780   -1.098270
     12          1           0       -2.322272   -0.950443    0.382496
     13          1           0       -2.073446    0.277458   -0.897459
     14          1           0        0.000818   -1.668049    0.860996
     15          1           0       -0.001956    0.167919    1.806922
 ---------------------------------------------------------------------
                    Distance matrix (angstroms):
                    1          2          3          4          5
     1  P    0.000000
     2  C    1.932142   0.000000
     3  H    2.536478   1.099016   0.000000
     4  H    2.533726   1.098905   1.775455   0.000000
     5  H    2.551568   1.098443   1.779141   1.779365   0.000000
     6  C    1.862950   2.769041   3.779590   2.915281   2.949430
     7  H    2.438440   3.539205   4.494544   3.463892   3.908905
     8  H    2.428523   3.487285   4.454778   3.835044   3.422144
     9  H    2.514162   2.603800   3.700336   2.503874   2.567361
    10  C    1.861838   2.769635   2.909561   3.778227   2.961141
    11  H    2.430485   3.515396   3.850712   4.482334   3.472433
    12  H    2.435579   3.513344   3.420856   4.464589   3.899901
    13  H    2.511930   2.602295   2.507196   3.698561   2.565643
    14  H    1.514071   3.446211   3.968860   3.964317   3.985656
    15  H    1.426392   2.417538   2.663654   2.652804   3.398341
                    6          7          8          9         10
     6  C    0.000000
     7  H    1.095288   0.000000
     8  H    1.096171   1.765042   0.000000
     9  H    1.093199   1.792521   1.789675   0.000000
    10  C    3.265758   4.032660   3.274174   3.860005   0.000000
    11  H    3.288858   4.072619   2.930036   3.955449   1.095818
    12  H    4.045483   4.628395   4.093682   4.754848   1.095557
    13  H    3.839600   4.736094   3.899982   4.172582   1.093218
    14  H    2.321622   2.448087   2.489933   3.341699   2.323961
    15  H    2.834504   2.960006   3.622626   3.393692   2.832869
                   11         12         13         14         15
    11  H    0.000000
    12  H    1.765110   0.000000
    13  H    1.791200   1.791072   0.000000
    14  H    2.466005   2.478037   3.343611   0.000000
    15  H    3.612866   2.943398   3.408335   2.065324   0.000000
 Stoichiometry    C3H11P
 Framework group  C1[X(C3H11P)]
 Deg. of freedom    39
 Full point group                 C1      NOp   1
 Largest Abelian subgroup         C1      NOp   1
 Largest concise Abelian subgroup C1      NOp   1
                         Standard orientation:                         
 ---------------------------------------------------------------------
 Center     Atomic      Atomic             Coordinates (Angstroms)
 Number     Number       Type             X           Y           Z
 ---------------------------------------------------------------------
      1         15           0       -0.000711   -0.215706    0.433086
      2          6           0        0.001408    1.637832   -0.112410
      3          1           0       -0.890087    2.154154    0.270320
      4          1           0        0.885280    2.153626    0.287991
      5          1           0        0.012031    1.739672   -1.206070
      6          6           0        1.633021   -0.582979   -0.383378
      7          1           0        2.305793   -1.004502    0.371177
      8          1           0        1.457506   -1.361394   -1.134947
      9          1           0        2.098919    0.285890   -0.855699
     10          6           0       -1.632736   -0.581680   -0.384837
     11          1           0       -1.472074   -1.397780   -1.098270
     12          1           0       -2.322272   -0.950442    0.382496
     13          1           0       -2.073446    0.277459   -0.897459
     14          1           0        0.000817   -1.668049    0.860996
     15          1           0       -0.001956    0.167919    1.806922
 ---------------------------------------------------------------------
 Rotational constants (GHZ):           6.1330877           4.6386609           3.3162674
 Leave Link  202 at Fri Nov  1 04:47:09 2019, MaxMem=   280000000 cpu:               3.4 elap:               0.2
 (Enter /usr/g16/l301.exe)
 Standard basis: 6-31G(d) (6D, 7F)
 Ernie: Thresh=  0.10000D-02 Tol=  0.10000D-05 Strict=F.
 There are    86 symmetry adapted cartesian basis functions of A   symmetry.
 There are    86 symmetry adapted basis functions of A   symmetry.
    86 basis functions,   180 primitive gaussians,    86 cartesian basis functions
    22 alpha electrons       22 beta electrons
       nuclear repulsion energy       195.3782059247 Hartrees.
 IExCor=  402 DFT=T Ex+Corr=B3LYP ExCW=0 ScaHFX=  0.200000
 ScaDFX=  0.800000  0.720000  1.000000  0.810000 ScalE2=  1.000000  1.000000
 IRadAn=      5 IRanWt=     -1 IRanGd=            0 ICorTp=0 IEmpDi=141
 NAtoms=   15 NActive=   15 NUniq=   15 SFac= 1.00D+00 NAtFMM=   60 NAOKFM=F Big=F
 Integral buffers will be    131072 words long.
 Raffenetti 2 integral format.
 Two-electron integral symmetry is turned on.
 R6Disp:  Grimme-D3(BJ) Dispersion energy=       -0.0210901962 Hartrees.
 Nuclear repulsion after empirical dispersion term =      195.3571157285 Hartrees.
 Force inversion solution in PCM.
 ------------------------------------------------------------------------------
 Polarizable Continuum Model (PCM)
 =================================
 Model                : PCM.
 Atomic radii         : SMD-Coulomb.
 Polarization charges : Total charges.
 Charge compensation  : None.
 Solution method      : Matrix inversion.
 Cavity type          : VdW (van der Waals Surface) (Alpha=1.000).
 Cavity algorithm     : GePol (No added spheres)
                        Default sphere list used, NSphG=   15.
                        Lebedev-Laikov grids with approx.  5.0 points / Ang**2.
                        Smoothing algorithm: York/Karplus (Gamma=1.0000).
                        Polarization charges: spherical gaussians, with
                                              point-specific exponents (IZeta= 3).
                        Self-potential: point-specific (ISelfS= 7).
                        Self-field    : sphere-specific E.n sum rule (ISelfD= 2).
 1st derivatives      : Analytical E(r).r(x)/FMM algorithm (CHGder, D1EAlg=3).
                        Cavity 1st derivative terms included.
 2nd derivatives      : Analytical E(r).r(xy)/FMM algorithm (CHGder, D2EAlg=3).
                        Cavity 2nd derivative terms included.
 Solvent              : Benzene, Eps=   2.270600 Eps(inf)=   2.253301
 ------------------------------------------------------------------------------
 Spheres list:
 ISph  on   Nord     Re0    Alpha      Xe            Ye            Ze
    1   P      1    2.1200  1.000     -0.000711     -0.215706      0.433086
    2   C      2    1.8500  1.000      0.001408      1.637832     -0.112410
    3   H      3    1.2000  1.000     -0.890087      2.154154      0.270320
    4   H      4    1.2000  1.000      0.885280      2.153626      0.287991
    5   H      5    1.2000  1.000      0.012031      1.739672     -1.206070
    6   C      6    1.8500  1.000      1.633021     -0.582979     -0.383378
    7   H      7    1.2000  1.000      2.305793     -1.004502      0.371177
    8   H      8    1.2000  1.000      1.457506     -1.361394     -1.134947
    9   H      9    1.2000  1.000      2.098919      0.285890     -0.855699
   10   C     10    1.8500  1.000     -1.632736     -0.581680     -0.384837
   11   H     11    1.2000  1.000     -1.472074     -1.397780     -1.098270
   12   H     12    1.2000  1.000     -2.322272     -0.950442      0.382496
   13   H     13    1.2000  1.000     -2.073446      0.277459     -0.897459
   14   H     14    1.2000  1.000      0.000817     -1.668049      0.860996
   15   H     15    1.2000  1.000     -0.001956      0.167919      1.806922
 ------------------------------------------------------------------------------
 GePol: Number of generator spheres                  =      15
 GePol: Total number of spheres                      =      15
 GePol: Number of exposed spheres                    =      15 (100.00%)
 GePol: Number of points                             =    1080
 GePol: Average weight of points                     =       0.12
 GePol: Minimum weight of points                     =   0.44D-09
 GePol: Maximum weight of points                     =    0.20615
 GePol: Number of points with low weight             =      50
 GePol: Fraction of low-weight points (<1% of avg)   =       4.63%
 GePol: Cavity surface area                          =    125.348 Ang**2
 GePol: Cavity volume                                =     99.307 Ang**3
 ------------------------------------------------------------------------------
 Atomic radii for non-electrostatic terms: SMD-CDS.
 ------------------------------------------------------------------------------
 PCM non-electrostatic energy =         0.0003859910 Hartrees.
 Nuclear repulsion after PCM non-electrostatic terms =      195.3575017195 Hartrees.
 Leave Link  301 at Fri Nov  1 04:47:09 2019, MaxMem=   280000000 cpu:               4.2 elap:               0.3
 (Enter /usr/g16/l302.exe)
 NPDir=0 NMtPBC=     1 NCelOv=     1 NCel=       1 NClECP=     1 NCelD=      1
         NCelK=      1 NCelE2=     1 NClLst=     1 CellRange=     0.0.
 One-electron integrals computed using PRISM.
 One-electron integral symmetry used in STVInt
 NBasis=    86 RedAO= T EigKep=  5.09D-03  NBF=    86
 NBsUse=    86 1.00D-06 EigRej= -1.00D+00 NBFU=    86
 Precomputing XC quadrature grid using
 IXCGrd= 4 IRadAn=           5 IRanWt=          -1 IRanGd=           0 AccXCQ= 0.00D+00.
 Generated NRdTot=       0 NPtTot=           0 NUsed=           0 NTot=          32
 NSgBfM=    86    86    86    86    86 MxSgAt=    15 MxSgA2=    15.
 Leave Link  302 at Fri Nov  1 04:47:11 2019, MaxMem=   280000000 cpu:              32.9 elap:               1.8
 (Enter /usr/g16/l303.exe)
 DipDrv:  MaxL=1.
 Leave Link  303 at Fri Nov  1 04:47:11 2019, MaxMem=   280000000 cpu:               4.4 elap:               0.3
 (Enter /usr/g16/l401.exe)
 ExpMin= 9.98D-02 ExpMax= 1.94D+04 ExpMxC= 2.91D+03 IAcc=3 IRadAn=         5 AccDes= 0.00D+00
 Harris functional with IExCor=  402 and IRadAn=       5 diagonalized for initial guess.
 HarFok:  IExCor=  402 AccDes= 0.00D+00 IRadAn=         5 IDoV= 1 UseB2=F ITyADJ=14
 ICtDFT=  3500011 ScaDFX=  1.000000  1.000000  1.000000  1.000000
 FoFCou: FMM=F IPFlag=           0 FMFlag=      100000 FMFlg1=           0
         NFxFlg=           0 DoJE=T BraDBF=F KetDBF=T FulRan=T
         wScrn=  0.000000 ICntrl=       500 IOpCl=  0 I1Cent=   200000004 NGrid=           0
         NMat0=    1 NMatS0=      1 NMatT0=    0 NMatD0=    1 NMtDS0=    0 NMtDT0=    0
 Petite list used in FoFCou.
 Harris En= -462.317115594261    
 JPrj=0 DoOrth=F DoCkMO=F.
 Leave Link  401 at Fri Nov  1 04:47:13 2019, MaxMem=   280000000 cpu:              38.9 elap:               2.2
 (Enter /usr/g16/l502.exe)
 Integral symmetry usage will be decided dynamically.
 Closed shell SCF:
 Using DIIS extrapolation, IDIIS=  1040.
 NGot=   280000000 LenX=   279981836 LenY=   279973999
 Requested convergence on RMS density matrix=1.00D-08 within 128 cycles.
 Requested convergence on MAX density matrix=1.00D-06.
 Requested convergence on             energy=1.00D-06.
 No special actions if energy rises.
 Fock matrices will be formed incrementally for  20 cycles.

 Cycle   1  Pass 1  IDiag  1:
 FoFJK:  IHMeth= 1 ICntrl=       0 DoSepK=F KAlg= 0 I1Cent=           0 FoldK=F
 IRaf= 990000000 NMat=       1 IRICut=       1 DoRegI=T DoRafI=F ISym2E= 0 IDoP0=0 IntGTp=1.
 FoFCou: FMM=F IPFlag=           0 FMFlag=      100000 FMFlg1=           0
         NFxFlg=           0 DoJE=F BraDBF=F KetDBF=F FulRan=T
         wScrn=  0.000000 ICntrl=         0 IOpCl=  0 I1Cent=           0 NGrid=           0
         NMat0=    1 NMatS0=      1 NMatT0=    0 NMatD0=    1 NMtDS0=    0 NMtDT0=    0
 Symmetry not used in FoFCou.
 Inv3:  Mode=1 IEnd=     3499200.
 Iteration    1 A*A^-1 deviation from unit magnitude is 3.33D-15 for    680.
 Iteration    1 A*A^-1 deviation from orthogonality  is 1.40D-15 for    614    307.
 Iteration    1 A^-1*A deviation from unit magnitude is 3.33D-15 for    680.
 Iteration    1 A^-1*A deviation from orthogonality  is 1.14D-15 for    808     61.
 E= -461.971277970053    
 DIIS: error= 6.12D-02 at cycle   1 NSaved=   1.
 NSaved= 1 IEnMin= 1 EnMin= -461.971277970053     IErMin= 1 ErrMin= 6.12D-02
 ErrMax= 6.12D-02  0.00D+00 EMaxC= 1.00D-01 BMatC= 2.64D-01 BMatP= 2.64D-01
 IDIUse=3 WtCom= 3.88D-01 WtEn= 6.12D-01
 Coeff-Com:  0.100D+01
 Coeff-En:   0.100D+01
 Coeff:      0.100D+01
 Gap=     0.295 Goal=   None    Shift=    0.000
 GapD=    0.295 DampG=1.000 DampE=0.500 DampFc=0.5000 IDamp=-1.
 Damping current iteration by 5.00D-01
 RMSDP=1.31D-02 MaxDP=1.96D-01              OVMax= 2.38D-01

 Cycle   2  Pass 1  IDiag  1:
 RMSU=  6.51D-03    CP:  9.86D-01
 E= -462.093813132050     Delta-E=       -0.122535161997 Rises=F Damp=T
 DIIS: error= 1.16D-02 at cycle   2 NSaved=   2.
 NSaved= 2 IEnMin= 2 EnMin= -462.093813132050     IErMin= 2 ErrMin= 1.16D-02
 ErrMax= 1.16D-02  0.00D+00 EMaxC= 1.00D-01 BMatC= 8.33D-03 BMatP= 2.64D-01
 IDIUse=3 WtCom= 8.84D-01 WtEn= 1.16D-01
 Coeff-Com:  0.712D-01 0.929D+00
 Coeff-En:   0.132D+00 0.868D+00
 Coeff:      0.783D-01 0.922D+00
 Gap=     0.282 Goal=   None    Shift=    0.000
 RMSDP=2.31D-03 MaxDP=4.33D-02 DE=-1.23D-01 OVMax= 1.30D-01

 Cycle   3  Pass 1  IDiag  1:
 RMSU=  2.12D-03    CP:  9.89D-01  8.60D-01
 E= -462.242339748796     Delta-E=       -0.148526616746 Rises=F Damp=F
 DIIS: error= 2.60D-03 at cycle   3 NSaved=   3.
 NSaved= 3 IEnMin= 3 EnMin= -462.242339748796     IErMin= 3 ErrMin= 2.60D-03
 ErrMax= 2.60D-03  0.00D+00 EMaxC= 1.00D-01 BMatC= 4.83D-04 BMatP= 8.33D-03
 IDIUse=3 WtCom= 9.74D-01 WtEn= 2.60D-02
 Coeff-Com:  0.339D-02 0.140D+00 0.856D+00
 Coeff-En:   0.000D+00 0.000D+00 0.100D+01
 Coeff:      0.330D-02 0.136D+00 0.860D+00
 Gap=     0.271 Goal=   None    Shift=    0.000
 RMSDP=6.63D-04 MaxDP=1.04D-02 DE=-1.49D-01 OVMax= 1.30D-02

 Cycle   4  Pass 1  IDiag  1:
 RMSU=  4.61D-04    CP:  9.88D-01  8.90D-01  7.97D-01
 E= -462.242865938264     Delta-E=       -0.000526189468 Rises=F Damp=F
 DIIS: error= 1.08D-03 at cycle   4 NSaved=   4.
 NSaved= 4 IEnMin= 4 EnMin= -462.242865938264     IErMin= 4 ErrMin= 1.08D-03
 ErrMax= 1.08D-03  0.00D+00 EMaxC= 1.00D-01 BMatC= 1.04D-04 BMatP= 4.83D-04
 IDIUse=3 WtCom= 9.89D-01 WtEn= 1.08D-02
 Coeff-Com:  0.695D-03 0.762D-02 0.313D+00 0.679D+00
 Coeff-En:   0.000D+00 0.000D+00 0.000D+00 0.100D+01
 Coeff:      0.688D-03 0.754D-02 0.309D+00 0.682D+00
 Gap=     0.271 Goal=   None    Shift=    0.000
 RMSDP=2.08D-04 MaxDP=4.42D-03 DE=-5.26D-04 OVMax= 3.51D-03

 Cycle   5  Pass 1  IDiag  1:
 RMSU=  9.68D-05    CP:  9.88D-01  8.80D-01  8.36D-01  6.76D-01
 E= -462.242977950966     Delta-E=       -0.000112012702 Rises=F Damp=F
 DIIS: error= 2.16D-04 at cycle   5 NSaved=   5.
 NSaved= 5 IEnMin= 5 EnMin= -462.242977950966     IErMin= 5 ErrMin= 2.16D-04
 ErrMax= 2.16D-04  0.00D+00 EMaxC= 1.00D-01 BMatC= 9.21D-06 BMatP= 1.04D-04
 IDIUse=3 WtCom= 9.98D-01 WtEn= 2.16D-03
 Coeff-Com:  0.642D-03-0.115D-02 0.115D+00 0.327D+00 0.559D+00
 Coeff-En:   0.000D+00 0.000D+00 0.000D+00 0.000D+00 0.100D+01
 Coeff:      0.640D-03-0.114D-02 0.114D+00 0.326D+00 0.560D+00
 Gap=     0.270 Goal=   None    Shift=    0.000
 RMSDP=4.98D-05 MaxDP=1.35D-03 DE=-1.12D-04 OVMax= 9.76D-04

 Cycle   6  Pass 1  IDiag  1:
 RMSU=  1.94D-05    CP:  9.88D-01  8.80D-01  8.42D-01  7.10D-01  5.74D-01
 E= -462.242988380214     Delta-E=       -0.000010429247 Rises=F Damp=F
 DIIS: error= 5.42D-05 at cycle   6 NSaved=   6.
 NSaved= 6 IEnMin= 6 EnMin= -462.242988380214     IErMin= 6 ErrMin= 5.42D-05
 ErrMax= 5.42D-05  0.00D+00 EMaxC= 1.00D-01 BMatC= 2.88D-07 BMatP= 9.21D-06
 IDIUse=1 WtCom= 1.00D+00 WtEn= 0.00D+00
 Coeff-Com:  0.296D-03-0.102D-02 0.316D-01 0.991D-01 0.227D+00 0.643D+00
 Coeff:      0.296D-03-0.102D-02 0.316D-01 0.991D-01 0.227D+00 0.643D+00
 Gap=     0.270 Goal=   None    Shift=    0.000
 RMSDP=8.93D-06 MaxDP=1.44D-04 DE=-1.04D-05 OVMax= 2.11D-04

 Cycle   7  Pass 1  IDiag  1:
 RMSU=  6.54D-06    CP:  9.88D-01  8.80D-01  8.43D-01  7.09D-01  5.91D-01
                    CP:  7.20D-01
 E= -462.242988653513     Delta-E=       -0.000000273300 Rises=F Damp=F
 DIIS: error= 1.53D-05 at cycle   7 NSaved=   7.
 NSaved= 7 IEnMin= 7 EnMin= -462.242988653513     IErMin= 7 ErrMin= 1.53D-05
 ErrMax= 1.53D-05  0.00D+00 EMaxC= 1.00D-01 BMatC= 3.03D-08 BMatP= 2.88D-07
 IDIUse=1 WtCom= 1.00D+00 WtEn= 0.00D+00
 Coeff-Com:  0.935D-04-0.519D-03 0.674D-02 0.233D-01 0.676D-01 0.304D+00
 Coeff-Com:  0.599D+00
 Coeff:      0.935D-04-0.519D-03 0.674D-02 0.233D-01 0.676D-01 0.304D+00
 Coeff:      0.599D+00
 Gap=     0.270 Goal=   None    Shift=    0.000
 RMSDP=2.63D-06 MaxDP=7.21D-05 DE=-2.73D-07 OVMax= 5.27D-05

 Cycle   8  Pass 1  IDiag  1:
 RMSU=  1.44D-06    CP:  9.88D-01  8.80D-01  8.43D-01  7.08D-01  5.95D-01
                    CP:  7.62D-01  7.09D-01
 E= -462.242988686618     Delta-E=       -0.000000033105 Rises=F Damp=F
 DIIS: error= 1.94D-06 at cycle   8 NSaved=   8.
 NSaved= 8 IEnMin= 8 EnMin= -462.242988686618     IErMin= 8 ErrMin= 1.94D-06
 ErrMax= 1.94D-06  0.00D+00 EMaxC= 1.00D-01 BMatC= 3.51D-10 BMatP= 3.03D-08
 IDIUse=1 WtCom= 1.00D+00 WtEn= 0.00D+00
 Coeff-Com: -0.776D-06-0.182D-04-0.790D-03-0.211D-02-0.118D-02 0.182D-01
 Coeff-Com:  0.118D+00 0.868D+00
 Coeff:     -0.776D-06-0.182D-04-0.790D-03-0.211D-02-0.118D-02 0.182D-01
 Coeff:      0.118D+00 0.868D+00
 Gap=     0.270 Goal=   None    Shift=    0.000
 RMSDP=3.52D-07 MaxDP=8.48D-06 DE=-3.31D-08 OVMax= 6.33D-06

 Cycle   9  Pass 1  IDiag  1:
 RMSU=  1.59D-07    CP:  9.88D-01  8.80D-01  8.43D-01  7.08D-01  5.95D-01
                    CP:  7.67D-01  7.48D-01  9.04D-01
 E= -462.242988687039     Delta-E=       -0.000000000420 Rises=F Damp=F
 DIIS: error= 1.96D-07 at cycle   9 NSaved=   9.
 NSaved= 9 IEnMin= 9 EnMin= -462.242988687039     IErMin= 9 ErrMin= 1.96D-07
 ErrMax= 1.96D-07  0.00D+00 EMaxC= 1.00D-01 BMatC= 4.68D-12 BMatP= 3.51D-10
 IDIUse=1 WtCom= 1.00D+00 WtEn= 0.00D+00
 Coeff-Com: -0.136D-05 0.185D-05-0.240D-03-0.694D-03-0.832D-03 0.124D-02
 Coeff-Com:  0.197D-01 0.197D+00 0.783D+00
 Coeff:     -0.136D-05 0.185D-05-0.240D-03-0.694D-03-0.832D-03 0.124D-02
 Coeff:      0.197D-01 0.197D+00 0.783D+00
 Gap=     0.270 Goal=   None    Shift=    0.000
 RMSDP=5.35D-08 MaxDP=9.15D-07 DE=-4.20D-10 OVMax= 7.63D-07

 Cycle  10  Pass 1  IDiag  1:
 RMSU=  3.78D-08    CP:  9.88D-01  8.80D-01  8.43D-01  7.08D-01  5.95D-01
                    CP:  7.67D-01  7.49D-01  9.22D-01  8.75D-01
 E= -462.242988687041     Delta-E=       -0.000000000002 Rises=F Damp=F
 DIIS: error= 3.46D-08 at cycle  10 NSaved=  10.
 NSaved=10 IEnMin=10 EnMin= -462.242988687041     IErMin=10 ErrMin= 3.46D-08
 ErrMax= 3.46D-08  0.00D+00 EMaxC= 1.00D-01 BMatC= 2.25D-13 BMatP= 4.68D-12
 IDIUse=1 WtCom= 1.00D+00 WtEn= 0.00D+00
 Coeff-Com: -0.293D-06 0.137D-05-0.171D-04-0.547D-04-0.128D-03-0.541D-03
 Coeff-Com: -0.131D-02 0.315D-02 0.178D+00 0.821D+00
 Coeff:     -0.293D-06 0.137D-05-0.171D-04-0.547D-04-0.128D-03-0.541D-03
 Coeff:     -0.131D-02 0.315D-02 0.178D+00 0.821D+00
 Gap=     0.270 Goal=   None    Shift=    0.000
 RMSDP=1.09D-08 MaxDP=1.37D-07 DE=-1.82D-12 OVMax= 2.39D-07

 Cycle  11  Pass 1  IDiag  1:
 RMSU=  5.88D-09    CP:  9.88D-01  8.80D-01  8.43D-01  7.08D-01  5.95D-01
                    CP:  7.67D-01  7.49D-01  9.24D-01  9.24D-01  9.19D-01
 E= -462.242988687043     Delta-E=       -0.000000000003 Rises=F Damp=F
 DIIS: error= 2.09D-08 at cycle  11 NSaved=  11.
 NSaved=11 IEnMin=11 EnMin= -462.242988687043     IErMin=11 ErrMin= 2.09D-08
 ErrMax= 2.09D-08  0.00D+00 EMaxC= 1.00D-01 BMatC= 4.24D-14 BMatP= 2.25D-13
 IDIUse=1 WtCom= 1.00D+00 WtEn= 0.00D+00
 Coeff-Com: -0.993D-07 0.581D-06-0.142D-05-0.578D-05-0.393D-04-0.302D-03
 Coeff-Com: -0.122D-02-0.462D-02 0.645D-01 0.408D+00 0.534D+00
 Coeff:     -0.993D-07 0.581D-06-0.142D-05-0.578D-05-0.393D-04-0.302D-03
 Coeff:     -0.122D-02-0.462D-02 0.645D-01 0.408D+00 0.534D+00
 Gap=     0.270 Goal=   None    Shift=    0.000
 RMSDP=2.85D-09 MaxDP=4.35D-08 DE=-2.50D-12 OVMax= 5.70D-08

 Error on total polarization charges =  0.02710
 SCF Done:  E(RB3LYP) =  -462.242988687     A.U. after   11 cycles
            NFock= 11  Conv=0.29D-08     -V/T= 2.0057
 KE= 4.596363068721D+02 PE=-1.479870728828D+03 EE= 3.626339315492D+02
 SMD-CDS (non-electrostatic) energy       (kcal/mol) =       0.24
 (included in total energy above)
 Leave Link  502 at Fri Nov  1 04:47:45 2019, MaxMem=   280000000 cpu:             564.8 elap:              31.1
 (Enter /usr/g16/l801.exe)
 DoSCS=F DFT=T ScalE2(SS,OS)=  1.000000  1.000000
 Range of M.O.s used for correlation:     1    86
 NBasis=    86 NAE=    22 NBE=    22 NFC=     0 NFV=     0
 NROrb=     86 NOA=    22 NOB=    22 NVA=    64 NVB=    64
 Leave Link  801 at Fri Nov  1 04:47:45 2019, MaxMem=   280000000 cpu:               2.1 elap:               0.1
 (Enter /usr/g16/l1101.exe)
 Using compressed storage, NAtomX=    15.
 Will process     16 centers per pass.
 R6Disp: Adding Grimme-D3(BJ) dispersion energy 1st derivatives to the gradient.
 Leave Link 1101 at Fri Nov  1 04:47:46 2019, MaxMem=   280000000 cpu:              17.4 elap:               1.0
 (Enter /usr/g16/l1102.exe)
 Symmetrizing basis deriv contribution to polar:
 IMax=3 JMax=2 DiffMx= 0.00D+00
 Leave Link 1102 at Fri Nov  1 04:47:46 2019, MaxMem=   280000000 cpu:               4.6 elap:               0.3
 (Enter /usr/g16/l1110.exe)
 Forming Gx(P) for the SCF density, NAtomX=    15.
 Integral derivatives from FoFJK, PRISM(SPDF).
 Do as many integral derivatives as possible in FoFJK.
 G2DrvN: MDV=     279998754.
 G2DrvN: will do    16 centers at a time, making    1 passes.
 Calling FoFCou, ICntrl=  3107 FMM=F I1Cent=   0 AccDes= 0.00D+00.
 FoFJK:  IHMeth= 1 ICntrl=    3107 DoSepK=F KAlg= 0 I1Cent=           0 FoldK=F
 IRaf=         0 NMat=       1 IRICut=       1 DoRegI=T DoRafI=F ISym2E= 0 IDoP0=0 IntGTp=1.
 FoFCou: FMM=F IPFlag=           0 FMFlag=      100000 FMFlg1=           0
         NFxFlg=           0 DoJE=F BraDBF=F KetDBF=F FulRan=T
         wScrn=  0.000000 ICntrl=      3107 IOpCl=  0 I1Cent=           0 NGrid=           0
         NMat0=    1 NMatS0=      1 NMatT0=    0 NMatD0=    1 NMtDS0=    0 NMtDT0=    0
 Symmetry not used in FoFCou.
 NEqPCM:  Using equilibrium solvation (IEInf=0, Eps=   2.2706, EpsInf=   2.2533)
 G2PCM: DoFxE=T DoFxN=T DoGrad=T DoDP/DQ/DG/TGxP=FFFF NFrqRd=   0 IEInf=0 SqF1=F DoCFld=F IF1Alg=4.
 GePol: Maximum number of non-zero 1st derivatives   =     235
 End of G2Drv F.D. properties file   721 does not exist.
 End of G2Drv F.D. properties file   722 does not exist.
 End of G2Drv F.D. properties file   788 does not exist.
 Leave Link 1110 at Fri Nov  1 04:48:10 2019, MaxMem=   280000000 cpu:             461.0 elap:              24.1
 (Enter /usr/g16/l1002.exe)
 Minotr:  Closed shell wavefunction.
          IDoAtm=111111111111111
 NEqPCM:  Using equilibrium solvation (IEInf=0, Eps=   2.2706, EpsInf=   2.2533)
          Direct CPHF calculation.
          Differentiating once with respect to nuclear coordinates.
          Requested convergence is 1.0D-08 RMS, and 1.0D-07 maximum.
          Secondary convergence is 1.0D-12 RMS, and 1.0D-12 maximum.
          NewPWx=T KeepS1=F KeepF1=F KeepIn=T MapXYZ=F SortEE=F KeepMc=T.
         4429 words used for storage of precomputed grid.
 Keep R1 ints in memory in canonical form, NReq=28745078.
 FoFCou: FMM=F IPFlag=           0 FMFlag=           0 FMFlg1=           0
         NFxFlg=           0 DoJE=F BraDBF=F KetDBF=F FulRan=T
         wScrn=  0.000000 ICntrl=       600 IOpCl=  0 I1Cent=           0 NGrid=           0
         NMat0=    1 NMatS0=   3741 NMatT0=    0 NMatD0=    1 NMtDS0=    0 NMtDT0=    0
 Symmetry not used in FoFCou.
 Two-electron integral symmetry not used.
          MDV=     280000000 using IRadAn=       1.
          Solving linear equations simultaneously, MaxMat=       0.
          There are    48 degrees of freedom in the 1st order CPHF.  IDoFFX=6 NUNeed=     0.
     42 vectors produced by pass  0 Test12= 2.93D-15 2.08D-09 XBig12= 8.80D-02 1.35D-01.
 AX will form    42 AO Fock derivatives at one time.
     42 vectors produced by pass  1 Test12= 2.93D-15 2.08D-09 XBig12= 8.79D-03 3.22D-02.
     42 vectors produced by pass  2 Test12= 2.93D-15 2.08D-09 XBig12= 3.58D-05 1.23D-03.
     42 vectors produced by pass  3 Test12= 2.93D-15 2.08D-09 XBig12= 5.06D-08 6.27D-05.
     42 vectors produced by pass  4 Test12= 2.93D-15 2.08D-09 XBig12= 6.72D-11 1.36D-06.
     12 vectors produced by pass  5 Test12= 2.93D-15 2.08D-09 XBig12= 3.40D-14 3.28D-08.
 InvSVY:  IOpt=1 It=  1 EMax= 2.00D-15
 Solved reduced A of dimension   222 with    42 vectors.
 End of Minotr F.D. properties file   721 does not exist.
 End of Minotr F.D. properties file   722 does not exist.
 End of Minotr F.D. properties file   788 does not exist.
 Leave Link 1002 at Fri Nov  1 04:48:29 2019, MaxMem=   280000000 cpu:             358.1 elap:              18.7
 (Enter /usr/g16/l601.exe)
 Copying SCF densities to generalized density rwf, IOpCl= 0 IROHF=0.

 **********************************************************************

            Population analysis using the SCF density.

 **********************************************************************

 Orbital symmetries:
       Occupied  (A) (A) (A) (A) (A) (A) (A) (A) (A) (A) (A) (A)
                 (A) (A) (A) (A) (A) (A) (A) (A) (A) (A)
       Virtual   (A) (A) (A) (A) (A) (A) (A) (A) (A) (A) (A) (A)
                 (A) (A) (A) (A) (A) (A) (A) (A) (A) (A) (A) (A)
                 (A) (A) (A) (A) (A) (A) (A) (A) (A) (A) (A) (A)
                 (A) (A) (A) (A) (A) (A) (A) (A) (A) (A) (A) (A)
                 (A) (A) (A) (A) (A) (A) (A) (A) (A) (A) (A) (A)
                 (A) (A) (A) (A)
 The electronic state is 1-A.
 Alpha  occ. eigenvalues --  -77.13168 -10.17406 -10.17403 -10.14153  -6.58784
 Alpha  occ. eigenvalues --   -4.75145  -4.75084  -4.74829  -0.75508  -0.69147
 Alpha  occ. eigenvalues --   -0.66025  -0.56997  -0.43382  -0.42876  -0.41452
 Alpha  occ. eigenvalues --   -0.40156  -0.38344  -0.37295  -0.34895  -0.33686
 Alpha  occ. eigenvalues --   -0.32778  -0.19624
 Alpha virt. eigenvalues --    0.07424   0.07928   0.09632   0.11039   0.14122
 Alpha virt. eigenvalues --    0.15043   0.16244   0.17522   0.17883   0.18665
 Alpha virt. eigenvalues --    0.19504   0.20415   0.25790   0.33819   0.36848
 Alpha virt. eigenvalues --    0.38188   0.46106   0.49429   0.53568   0.58732
 Alpha virt. eigenvalues --    0.60216   0.61731   0.66257   0.67770   0.73381
 Alpha virt. eigenvalues --    0.73561   0.75001   0.82145   0.83046   0.84591
 Alpha virt. eigenvalues --    0.87636   0.88050   0.90279   0.90983   0.91095
 Alpha virt. eigenvalues --    0.92470   0.94665   0.95503   1.00207   1.00520
 Alpha virt. eigenvalues --    1.07426   1.16649   1.22110   1.30366   1.49317
 Alpha virt. eigenvalues --    1.68788   1.72764   1.72847   1.75797   1.76514
 Alpha virt. eigenvalues --    1.86035   2.07747   2.19081   2.20505   2.26630
 Alpha virt. eigenvalues --    2.26996   2.28116   2.28178   2.28818   2.29798
 Alpha virt. eigenvalues --    3.49042   4.20094   4.22217   4.25537
          Condensed to atoms (all electrons):
               1          2          3          4          5          6
     1  P   13.080646   0.233662  -0.018191  -0.018156  -0.023727   0.357394
     2  C    0.233662   5.623271   0.347825   0.347648   0.351973  -0.103033
     3  H   -0.018191   0.347825   0.578028  -0.026880  -0.025672   0.003172
     4  H   -0.018156   0.347648  -0.026880   0.577836  -0.025557   0.000831
     5  H   -0.023727   0.351973  -0.025672  -0.025557   0.578219   0.002631
     6  C    0.357394  -0.103033   0.003172   0.000831   0.002631   5.356167
     7  H   -0.023765   0.002439  -0.000083  -0.000128   0.000053   0.361829
     8  H   -0.023414   0.002091  -0.000084   0.000054  -0.000020   0.359452
     9  H   -0.039857   0.010864   0.000182   0.000328  -0.001048   0.359600
    10  C    0.357143  -0.103018   0.000921   0.003181   0.002552   0.002969
    11  H   -0.024090   0.002277   0.000051  -0.000083  -0.000054  -0.002644
    12  H   -0.022849   0.002300  -0.000109  -0.000085   0.000052   0.000662
    13  H   -0.040081   0.010849   0.000175   0.000185  -0.000902  -0.000706
    14  H    0.276418   0.027671  -0.000350  -0.000354  -0.000628  -0.095179
    15  H    0.376111  -0.092060   0.001544   0.001550   0.002927   0.003253
               7          8          9         10         11         12
     1  P   -0.023765  -0.023414  -0.039857   0.357143  -0.024090  -0.022849
     2  C    0.002439   0.002091   0.010864  -0.103018   0.002277   0.002300
     3  H   -0.000083  -0.000084   0.000182   0.000921   0.000051  -0.000109
     4  H   -0.000128   0.000054   0.000328   0.003181  -0.000083  -0.000085
     5  H    0.000053  -0.000020  -0.001048   0.002552  -0.000054   0.000052
     6  C    0.361829   0.359452   0.359600   0.002969  -0.002644   0.000662
     7  H    0.518583  -0.020304  -0.022868   0.000626   0.000043  -0.000012
     8  H   -0.020304   0.524330  -0.022903  -0.002672   0.001332   0.000036
     9  H   -0.022868  -0.022903   0.540849  -0.000642  -0.000028  -0.000011
    10  C    0.000626  -0.002672  -0.000642   5.356482   0.359489   0.361666
    11  H    0.000043   0.001332  -0.000028   0.359489   0.524671  -0.020252
    12  H   -0.000012   0.000036  -0.000011   0.361666  -0.020252   0.517764
    13  H   -0.000011  -0.000028   0.000170   0.359621  -0.022881  -0.022841
    14  H    0.002390   0.001764   0.004661  -0.094839   0.002129   0.002040
    15  H   -0.002137   0.000804  -0.001087   0.002887   0.000768  -0.002210
              13         14         15
     1  P   -0.040081   0.276418   0.376111
     2  C    0.010849   0.027671  -0.092060
     3  H    0.000175  -0.000350   0.001544
     4  H    0.000185  -0.000354   0.001550
     5  H   -0.000902  -0.000628   0.002927
     6  C   -0.000706  -0.095179   0.003253
     7  H   -0.000011   0.002390  -0.002137
     8  H   -0.000028   0.001764   0.000804
     9  H    0.000170   0.004661  -0.001087
    10  C    0.359621  -0.094839   0.002887
    11  H   -0.022881   0.002129   0.000768
    12  H   -0.022841   0.002040  -0.002210
    13  H    0.540958   0.004648  -0.000982
    14  H    0.004648   1.125119  -0.083226
    15  H   -0.000982  -0.083226   0.782776
 Mulliken charges:
               1
     1  P    0.552756
     2  C   -0.664758
     3  H    0.139470
     4  H    0.139631
     5  H    0.139202
     6  C   -0.606398
     7  H    0.183344
     8  H    0.179563
     9  H    0.171791
    10  C   -0.606365
    11  H    0.179271
    12  H    0.183851
    13  H    0.171826
    14  H   -0.172264
    15  H    0.009081
 Sum of Mulliken charges =   0.00000
 Mulliken charges with hydrogens summed into heavy atoms:
               1
     1  P    0.389573
     2  C   -0.246455
     6  C   -0.071700
    10  C   -0.071418
 APT charges:
               1
     1  P   -0.211954
     2  C   -1.248311
     3  H    0.396029
     4  H    0.395539
     5  H    0.340429
     6  C   -1.253600
     7  H    0.486430
     8  H    0.406682
     9  H    0.389137
    10  C   -1.253050
    11  H    0.409494
    12  H    0.486459
    13  H    0.386492
    14  H   -0.009728
    15  H    0.279950
 Sum of APT charges =   0.00000
 APT charges with hydrogens summed into heavy atoms:
               1
     1  P    0.058269
     2  C   -0.116314
     6  C    0.028650
    10  C    0.029395
 Electronic spatial extent (au):  <R**2>=            488.3694
 Charge=              0.0000 electrons
 Dipole moment (field-independent basis, Debye):
    X=             -0.0099    Y=              0.1210    Z=             -0.7338  Tot=              0.7437
 Quadrupole moment (field-independent basis, Debye-Ang):
   XX=            -34.0500   YY=            -40.3575   ZZ=            -36.2174
   XY=             -0.0045   XZ=             -0.0185   YZ=              1.9670
 Traceless Quadrupole moment (field-independent basis, Debye-Ang):
   XX=              2.8250   YY=             -3.4825   ZZ=              0.6576
   XY=             -0.0045   XZ=             -0.0185   YZ=              1.9670
 Octapole moment (field-independent basis, Debye-Ang**2):
  XXX=             -0.0862  YYY=              0.9565  ZZZ=             -2.8207  XYY=              0.0332
  XXY=             -0.6874  XXZ=              1.4315  XZZ=             -0.0177  YZZ=              0.5534
  YYZ=             -4.0672  XYZ=             -0.0066
 Hexadecapole moment (field-independent basis, Debye-Ang**3):
 XXXX=           -314.6217 YYYY=           -282.6733 ZZZZ=           -114.4862 XXXY=              0.0216
 XXXZ=             -0.1904 YYYX=             -0.0205 YYYZ=             12.6987 ZZZX=             -0.0426
 ZZZY=              3.6697 XXYY=            -92.1020 XXZZ=            -70.1819 YYZZ=            -62.9122
 XXYZ=             -2.2003 YYXZ=              0.1333 ZZXY=             -0.0536
 N-N= 1.953575017195D+02 E-N=-1.479870728613D+03  KE= 4.596363068721D+02
  Exact polarizability:   0.000   0.000   0.000   0.000   0.000   0.000
 Approx polarizability:  76.260  -0.050  82.087  -0.000  -2.515  73.352
 No NMR shielding tensors so no spin-rotation constants.
 Leave Link  601 at Fri Nov  1 04:48:30 2019, MaxMem=   280000000 cpu:              27.5 elap:               1.5
 (Enter /usr/g16/l701.exe)
 ... and contract with generalized density number  0.
 Compute integral second derivatives.
 R6Disp: Adding Grimme-D3(BJ) dispersion energy 2nd derivatives to the Hessian.
 D2PCM: PCM CHGder 2nd derivatives, FixD1E=F FixD2E=F DoIter=F DoCFld=F I1PDM=0
 GePol: Maximum number of non-zero 2nd derivatives   =     235
 Leave Link  701 at Fri Nov  1 04:48:44 2019, MaxMem=   280000000 cpu:             261.2 elap:              13.8
 (Enter /usr/g16/l702.exe)
 L702 exits ... SP integral derivatives will be done elsewhere.
 Leave Link  702 at Fri Nov  1 04:48:44 2019, MaxMem=   280000000 cpu:               2.4 elap:               0.2
 (Enter /usr/g16/l703.exe)
 Integral derivatives from FoFJK, PRISM(SPDF).
 Compute integral second derivatives, UseDBF=F ICtDFT=           0.
 Calling FoFJK, ICntrl=    100147 FMM=F ISym2X=0 I1Cent= 0 IOpClX= 0 NMat=1 NMatS=1 NMatT=0.
 FoFJK:  IHMeth= 1 ICntrl=  100147 DoSepK=F KAlg= 0 I1Cent=           0 FoldK=F
 IRaf=         0 NMat=       1 IRICut=       1 DoRegI=T DoRafI=F ISym2E= 0 IDoP0=0 IntGTp=1.
 FoFCou: FMM=F IPFlag=           0 FMFlag=      100000 FMFlg1=         800
         NFxFlg=           0 DoJE=F BraDBF=F KetDBF=F FulRan=T
         wScrn=  0.000000 ICntrl=    100147 IOpCl=  0 I1Cent=           0 NGrid=           0
         NMat0=    1 NMatS0=      1 NMatT0=    0 NMatD0=    1 NMtDS0=    0 NMtDT0=    0
 Symmetry not used in FoFCou.
 Leave Link  703 at Fri Nov  1 04:48:56 2019, MaxMem=   280000000 cpu:             222.1 elap:              11.8
 (Enter /usr/g16/l716.exe)
 Dipole        =-3.89252227D-03 4.76147944D-02-2.88684880D-01
 Polarizability= 0.00000000D+00 0.00000000D+00 0.00000000D+00
                 0.00000000D+00 0.00000000D+00 0.00000000D+00
 ***** Axes restored to original set *****
 -------------------------------------------------------------------
 Center     Atomic                   Forces (Hartrees/Bohr)
 Number     Number              X              Y              Z
 -------------------------------------------------------------------
      1       15           0.000563481   -0.001607321   -0.005389624
      2        6          -0.000083770    0.000686218    0.002410172
      3        1           0.000013840   -0.000084167    0.000045635
      4        1           0.000024322    0.000033133   -0.000023282
      5        1          -0.000008622    0.000044950   -0.000020282
      6        6          -0.000167222    0.000003354    0.000068035
      7        1           0.000002513    0.000050538    0.000012167
      8        1           0.000002197   -0.000024867    0.000044677
      9        1          -0.000061579    0.000021416   -0.000016293
     10        6          -0.000016898   -0.000003365   -0.000090001
     11        1          -0.000008457   -0.000025422   -0.000007565
     12        1           0.000025900   -0.000035359    0.000007206
     13        1          -0.000026437   -0.000027026   -0.000002810
     14        1          -0.000308194    0.001064467    0.003062338
     15        1           0.000048927   -0.000096550   -0.000100373
 -------------------------------------------------------------------
 Cartesian Forces:  Max     0.005389624 RMS     0.001042782
 FormGI is forming the generalized inverse of G from B-inverse, IUseBI=4.
 Leave Link  716 at Fri Nov  1 04:48:57 2019, MaxMem=   280000000 cpu:               7.5 elap:               0.4
 (Enter /usr/g16/l103.exe)

 GradGradGradGradGradGradGradGradGradGradGradGradGradGradGradGradGradGrad
 Berny optimization.
 Red2BG is reusing G-inverse.
 Internal  Forces:  Max     0.001893398 RMS     0.000534322
 Search for a saddle point.
 Step number   1 out of a maximum of   86
 All quantities printed in internal units (Hartrees-Bohrs-Radians)
 Swapping is turned off.
 Second derivative matrix not updated -- analytic derivatives used.
 ITU=  0
     Eigenvalues ---    0.00031   0.00040   0.00459   0.02157   0.02309
     Eigenvalues ---    0.03166   0.03250   0.03306   0.03790   0.03797
     Eigenvalues ---    0.03851   0.04122   0.05599   0.07522   0.08300
     Eigenvalues ---    0.10410   0.10884   0.11036   0.11241   0.11417
     Eigenvalues ---    0.11673   0.12130   0.12959   0.13274   0.13655
     Eigenvalues ---    0.14315   0.19057   0.20120   0.20536   0.22480
     Eigenvalues ---    0.33259   0.33339   0.33971   0.34072   0.34126
     Eigenvalues ---    0.34436   0.34494   0.35037   0.35096
 Eigenvectors required to have negative eigenvalues:
                          D11       D10       D14       D13       D20
   1                   -0.26839  -0.26823  -0.25769  -0.25753  -0.25597
                          D19       D12       D17       D16       D15
   1                   -0.25581  -0.24116  -0.24111  -0.24096  -0.23045
 Eigenvalue     1 is   3.10D-04 should be less than     0.000000 Eigenvector:
                          D11       D10       D14       D13       D20
   1                   -0.26839  -0.26823  -0.25769  -0.25753  -0.25597
                          D19       D12       D17       D16       D15
   1                   -0.25581  -0.24116  -0.24111  -0.24096  -0.23045
 RFO step:  Lambda0=5.156553483D-04 Lambda=-5.03254131D-04.
 Linear search not attempted -- option 19 set.
 Iteration  1 RMS(Cart)=  0.02716403 RMS(Int)=  0.00040412
 Iteration  2 RMS(Cart)=  0.00044825 RMS(Int)=  0.00009321
 Iteration  3 RMS(Cart)=  0.00000007 RMS(Int)=  0.00009321
 ITry= 1 IFail=0 DXMaxC= 1.19D-01 DCOld= 1.00D+10 DXMaxT= 3.00D-01 DXLimC= 3.00D+00 Rises=F
 Variable       Old X    -DE/DX   Delta X   Delta X   Delta X     New X
                                 (Linear)    (Quad)   (Total)
    R1        3.65122  -0.00003   0.00000  -0.00071  -0.00071   3.65051
    R2        3.52047  -0.00025   0.00000  -0.00745  -0.00745   3.51302
    R3        3.51836   0.00008   0.00000  -0.00371  -0.00371   3.51466
    R4        2.86118  -0.00016   0.00000  -0.00241  -0.00241   2.85877
    R5        2.69549  -0.00012   0.00000   0.00593   0.00593   2.70142
    R6        2.07684  -0.00003   0.00000  -0.00004  -0.00004   2.07680
    R7        2.07663   0.00003   0.00000   0.00013   0.00013   2.07676
    R8        2.07576   0.00002   0.00000   0.00053   0.00053   2.07628
    R9        2.06979  -0.00001   0.00000  -0.00077  -0.00077   2.06902
   R10        2.07146  -0.00001   0.00000   0.00017   0.00017   2.07164
   R11        2.06585  -0.00000   0.00000  -0.00006  -0.00006   2.06579
   R12        2.07080   0.00002   0.00000   0.00017   0.00017   2.07097
   R13        2.07030   0.00000   0.00000  -0.00039  -0.00039   2.06992
   R14        2.06588  -0.00001   0.00000   0.00003   0.00003   2.06591
    A1        1.63527   0.00059   0.00000   0.01237   0.01247   1.64775
    A2        1.63634   0.00053   0.00000   0.00950   0.00984   1.64618
    A3        1.58472  -0.00114   0.00000  -0.02638  -0.02641   1.55831
    A4        2.13818  -0.00012   0.00000  -0.02252  -0.02263   2.11555
    A5        1.50462   0.00073   0.00000   0.01584   0.01605   1.52067
    A6        2.06679   0.00001   0.00000   0.00726   0.00733   2.07412
    A7        1.50725   0.00034   0.00000   0.00955   0.01002   1.51727
    A8        2.06601   0.00010   0.00000   0.01596   0.01599   2.08200
    A9        1.55657  -0.00115   0.00000  -0.02311  -0.02319   1.53338
   A10        1.92995  -0.00015   0.00000  -0.01082  -0.01085   1.91910
   A11        1.92654   0.00005   0.00000  -0.00739  -0.00744   1.91910
   A12        1.94986   0.00008   0.00000   0.01763   0.01765   1.96751
   A13        1.88078   0.00003   0.00000  -0.00047  -0.00057   1.88021
   A14        1.88706   0.00003   0.00000   0.00037   0.00041   1.88747
   A15        1.88755  -0.00005   0.00000   0.00046   0.00047   1.88802
   A16        1.88874   0.00000   0.00000   0.00517   0.00517   1.89391
   A17        1.87556   0.00000   0.00000   0.00023   0.00022   1.87578
   A18        1.98931  -0.00008   0.00000  -0.00557  -0.00557   1.98374
   A19        1.87276   0.00001   0.00000   0.00107   0.00106   1.87383
   A20        1.91957   0.00003   0.00000   0.00155   0.00156   1.92114
   A21        1.91390   0.00004   0.00000  -0.00206  -0.00207   1.91182
   A22        1.87957   0.00001   0.00000  -0.00013  -0.00013   1.87944
   A23        1.88617  -0.00004   0.00000   0.00210   0.00210   1.88827
   A24        1.98766   0.00006   0.00000  -0.00208  -0.00208   1.98557
   A25        1.87297  -0.00001   0.00000   0.00008   0.00008   1.87305
   A26        1.91675  -0.00002   0.00000  -0.00033  -0.00033   1.91642
   A27        1.91689   0.00000   0.00000   0.00049   0.00049   1.91738
   A28        3.13989   0.00132   0.00000   0.02821   0.02853   3.16841
   A29        3.14031  -0.00189   0.00000  -0.04109  -0.04100   3.09931
    D1       -3.11703   0.00004   0.00000  -0.00490  -0.00488  -3.12191
    D2       -1.03747   0.00002   0.00000  -0.01706  -0.01697  -1.05445
    D3        1.06349   0.00005   0.00000  -0.00979  -0.00972   1.05377
    D4        1.02023   0.00002   0.00000   0.01521   0.01513   1.03536
    D5        3.09978  -0.00000   0.00000   0.00305   0.00303   3.10282
    D6       -1.08244   0.00003   0.00000   0.01032   0.01028  -1.07215
    D7       -1.04804  -0.00001   0.00000   0.00088   0.00083  -1.04721
    D8        1.03151  -0.00003   0.00000  -0.01128  -0.01126   1.02025
    D9        3.13248  -0.00000   0.00000  -0.00401  -0.00401   3.12847
   D10        2.18060  -0.00100   0.00000   0.01766   0.01768   2.19829
   D11       -2.08536  -0.00098   0.00000   0.02165   0.02167  -2.06369
   D12        0.03920  -0.00099   0.00000   0.01560   0.01563   0.05483
   D13       -2.41252   0.00000   0.00000   0.03385   0.03387  -2.37865
   D14       -0.39530   0.00001   0.00000   0.03784   0.03786  -0.35744
   D15        1.72925   0.00001   0.00000   0.03179   0.03182   1.76108
   D16       -0.95971   0.00090   0.00000   0.05875   0.05869  -0.90102
   D17        1.05751   0.00091   0.00000   0.06274   0.06268   1.12019
   D18       -3.10112   0.00091   0.00000   0.05670   0.05664  -3.04448
   D19        0.55899  -0.00002   0.00000   0.04033   0.04034   0.59933
   D20        2.57621  -0.00001   0.00000   0.04432   0.04433   2.62054
   D21       -1.58242  -0.00001   0.00000   0.03828   0.03829  -1.54413
   D22        2.13775   0.00105   0.00000   0.00921   0.00910   2.14685
   D23       -2.12721   0.00103   0.00000   0.01031   0.01021  -2.11701
   D24        0.00775   0.00104   0.00000   0.01108   0.01098   0.01873
   D25        0.44828   0.00002   0.00000  -0.00853  -0.00855   0.43973
   D26        2.46650  -0.00001   0.00000  -0.00743  -0.00744   2.45905
   D27       -1.68172   0.00000   0.00000  -0.00666  -0.00667  -1.68839
   D28       -1.00310  -0.00109   0.00000  -0.03682  -0.03670  -1.03980
   D29        1.01512  -0.00111   0.00000  -0.03572  -0.03560   0.97952
   D30       -3.13310  -0.00110   0.00000  -0.03495  -0.03482   3.11526
   D31       -2.52331   0.00005   0.00000  -0.01421  -0.01422  -2.53752
   D32       -0.50509   0.00002   0.00000  -0.01311  -0.01311  -0.51820
   D33        1.62988   0.00004   0.00000  -0.01234  -0.01234   1.61754
         Item               Value     Threshold  Converged?
 Maximum Force            0.001893     0.000450     NO 
 RMS     Force            0.000534     0.000300     NO 
 Maximum Displacement     0.119135     0.001800     NO 
 RMS     Displacement     0.027240     0.001200     NO 
 Predicted change in Energy=-2.121291D-04
 Lowest energy point so far.  Saving SCF results.
 GradGradGradGradGradGradGradGradGradGradGradGradGradGradGradGradGradGrad

 Leave Link  103 at Fri Nov  1 04:49:05 2019, MaxMem=   280000000 cpu:             133.9 elap:               8.0
 (Enter /usr/g16/l202.exe)
                          Input orientation:                          
 ---------------------------------------------------------------------
 Center     Atomic      Atomic             Coordinates (Angstroms)
 Number     Number       Type             X           Y           Z
 ---------------------------------------------------------------------
      1         15           0        0.000920   -0.208566    0.431759
      2          6           0        0.000053    1.647150   -0.104937
      3          1           0       -0.892960    2.151431    0.290050
      4          1           0        0.882072    2.157156    0.306987
      5          1           0        0.009709    1.773444   -1.196334
      6          6           0        1.621048   -0.595330   -0.393776
      7          1           0        2.291649   -1.040908    0.348189
      8          1           0        1.427362   -1.356493   -1.158570
      9          1           0        2.096760    0.273965   -0.855341
     10          6           0       -1.619088   -0.594624   -0.396295
     11          1           0       -1.445177   -1.415054   -1.101751
     12          1           0       -2.313931   -0.962258    0.366487
     13          1           0       -2.059968    0.257412   -0.920524
     14          1           0       -0.002743   -1.639019    0.924039
     15          1           0        0.005786    0.205713    1.799935
 ---------------------------------------------------------------------
                    Distance matrix (angstroms):
                    1          2          3          4          5
     1  P    0.000000
     2  C    1.931767   0.000000
     3  H    2.527586   1.098994   0.000000
     4  H    2.527576   1.098975   1.775122   0.000000
     5  H    2.564982   1.098723   1.779613   1.779951   0.000000
     6  C    1.859008   2.782044   3.785836   2.934849   2.975165
     7  H    2.438692   3.561234   4.509562   3.495171   3.938703
     8  H    2.425205   3.488441   4.448362   3.845897   3.436229
     9  H    2.506394   2.616280   3.711499   2.524457   2.592392
    10  C    1.859876   2.780658   2.922183   3.784534   2.983419
    11  H    2.428675   3.529790   3.868058   4.490135   3.506017
    12  H    2.435333   3.519343   3.423457   4.466399   3.914815
    13  H    2.508598   2.615385   2.532726   3.710985   2.580307
    14  H    1.512795   3.443502   3.944863   3.946466   4.017592
    15  H    1.429530   2.388788   2.621702   2.608620   3.381631
                    6          7          8          9         10
     6  C    0.000000
     7  H    1.094878   0.000000
     8  H    1.096262   1.765477   0.000000
     9  H    1.093169   1.793142   1.788417   0.000000
    10  C    3.240137   4.005907   3.231465   3.843527   0.000000
    11  H    3.251909   4.025691   2.873698   3.931771   1.095910
    12  H    4.024512   4.606288   4.059372   4.740813   1.095353
    13  H    3.815037   4.715065   3.850042   4.157272   1.093232
    14  H    2.337225   2.439995   2.542102   3.351659   2.333798
    15  H    2.839562   2.981074   3.635123   3.380432   2.846785
                   11         12         13         14         15
    11  H    0.000000
    12  H    1.765073   0.000000
    13  H    1.791076   1.791226   0.000000
    14  H    2.496919   2.471935   3.351274   0.000000
    15  H    3.626564   2.966483   3.416272   2.042132   0.000000
 Stoichiometry    C3H11P
 Framework group  C1[X(C3H11P)]
 Deg. of freedom    39
 Full point group                 C1      NOp   1
 RotChk:  IX=0 Diff= 2.05D-02
 Largest Abelian subgroup         C1      NOp   1
 Largest concise Abelian subgroup C1      NOp   1
                         Standard orientation:                         
 ---------------------------------------------------------------------
 Center     Atomic      Atomic             Coordinates (Angstroms)
 Number     Number       Type             X           Y           Z
 ---------------------------------------------------------------------
      1         15           0        0.000877   -0.202735    0.436789
      2          6           0       -0.002580    1.645034   -0.126651
      3          1           0       -0.895976    2.153882    0.261555
      4          1           0        0.879057    2.162009    0.277328
      5          1           0        0.006276    1.755564   -1.219764
      6          6           0        1.620989   -0.599411   -0.384061
      7          1           0        2.292574   -1.033410    0.363854
      8          1           0        1.427784   -1.371775   -1.137664
      9          1           0        2.095363    0.263705   -0.858422
     10          6           0       -1.619146   -0.602681   -0.384617
     11          1           0       -1.444648   -1.433002   -1.078257
     12          1           0       -2.313088   -0.960104    0.383818
     13          1           0       -2.061379    0.241159   -0.920828
     14          1           0       -0.000743   -1.625931    0.949679
     15          1           0        0.006045    0.231268    1.798836
 ---------------------------------------------------------------------
 Rotational constants (GHZ):           6.0517864           4.6829571           3.3279880
 Leave Link  202 at Fri Nov  1 04:49:05 2019, MaxMem=   280000000 cpu:               4.3 elap:               0.3
 (Enter /usr/g16/l301.exe)
 Standard basis: 6-31G(d) (6D, 7F)
 Ernie: Thresh=  0.10000D-02 Tol=  0.10000D-05 Strict=F.
 There are    86 symmetry adapted cartesian basis functions of A   symmetry.
 There are    86 symmetry adapted basis functions of A   symmetry.
    86 basis functions,   180 primitive gaussians,    86 cartesian basis functions
    22 alpha electrons       22 beta electrons
       nuclear repulsion energy       195.4441977043 Hartrees.
 IExCor=  402 DFT=T Ex+Corr=B3LYP ExCW=0 ScaHFX=  0.200000
 ScaDFX=  0.800000  0.720000  1.000000  0.810000 ScalE2=  1.000000  1.000000
 IRadAn=      5 IRanWt=     -1 IRanGd=            0 ICorTp=0 IEmpDi=141
 NAtoms=   15 NActive=   15 NUniq=   15 SFac= 1.00D+00 NAtFMM=   60 NAOKFM=F Big=F
 Integral buffers will be    131072 words long.
 Raffenetti 2 integral format.
 Two-electron integral symmetry is turned on.
 R6Disp:  Grimme-D3(BJ) Dispersion energy=       -0.0210864229 Hartrees.
 Nuclear repulsion after empirical dispersion term =      195.4231112814 Hartrees.
 ------------------------------------------------------------------------------
 Polarizable Continuum Model (PCM)
 =================================
 Model                : PCM.
 Atomic radii         : SMD-Coulomb.
 Polarization charges : Total charges.
 Charge compensation  : None.
 Solution method      : Matrix inversion.
 Cavity type          : VdW (van der Waals Surface) (Alpha=1.000).
 Cavity algorithm     : GePol (No added spheres)
                        Default sphere list used, NSphG=   15.
                        Lebedev-Laikov grids with approx.  5.0 points / Ang**2.
                        Smoothing algorithm: York/Karplus (Gamma=1.0000).
                        Polarization charges: spherical gaussians, with
                                              point-specific exponents (IZeta= 3).
                        Self-potential: point-specific (ISelfS= 7).
                        Self-field    : sphere-specific E.n sum rule (ISelfD= 2).
 1st derivatives      : Analytical E(r).r(x)/FMM algorithm (CHGder, D1EAlg=3).
                        Cavity 1st derivative terms included.
 Solvent              : Benzene, Eps=   2.270600 Eps(inf)=   2.253301
 ------------------------------------------------------------------------------
 Spheres list:
 ISph  on   Nord     Re0    Alpha      Xe            Ye            Ze
    1   P      1    2.1200  1.000      0.000877     -0.202735      0.436789
    2   C      2    1.8500  1.000     -0.002580      1.645034     -0.126651
    3   H      3    1.2000  1.000     -0.895976      2.153882      0.261555
    4   H      4    1.2000  1.000      0.879057      2.162009      0.277328
    5   H      5    1.2000  1.000      0.006276      1.755564     -1.219764
    6   C      6    1.8500  1.000      1.620989     -0.599411     -0.384061
    7   H      7    1.2000  1.000      2.292574     -1.033410      0.363854
    8   H      8    1.2000  1.000      1.427784     -1.371775     -1.137664
    9   H      9    1.2000  1.000      2.095363      0.263705     -0.858422
   10   C     10    1.8500  1.000     -1.619146     -0.602681     -0.384617
   11   H     11    1.2000  1.000     -1.444648     -1.433002     -1.078257
   12   H     12    1.2000  1.000     -2.313088     -0.960104      0.383818
   13   H     13    1.2000  1.000     -2.061379      0.241159     -0.920828
   14   H     14    1.2000  1.000     -0.000743     -1.625931      0.949679
   15   H     15    1.2000  1.000      0.006045      0.231268      1.798836
 ------------------------------------------------------------------------------
 GePol: Number of generator spheres                  =      15
 GePol: Total number of spheres                      =      15
 GePol: Number of exposed spheres                    =      15 (100.00%)
 GePol: Number of points                             =    1084
 GePol: Average weight of points                     =       0.12
 GePol: Minimum weight of points                     =   0.33D-11
 GePol: Maximum weight of points                     =    0.20615
 GePol: Number of points with low weight             =      58
 GePol: Fraction of low-weight points (<1% of avg)   =       5.35%
 GePol: Cavity surface area                          =    125.579 Ang**2
 GePol: Cavity volume                                =     99.470 Ang**3
 ------------------------------------------------------------------------------
 Atomic radii for non-electrostatic terms: SMD-CDS.
 ------------------------------------------------------------------------------
 PCM non-electrostatic energy =         0.0003870802 Hartrees.
 Nuclear repulsion after PCM non-electrostatic terms =      195.4234983617 Hartrees.
 Leave Link  301 at Fri Nov  1 04:49:05 2019, MaxMem=   280000000 cpu:               4.6 elap:               0.3
 (Enter /usr/g16/l302.exe)
 NPDir=0 NMtPBC=     1 NCelOv=     1 NCel=       1 NClECP=     1 NCelD=      1
         NCelK=      1 NCelE2=     1 NClLst=     1 CellRange=     0.0.
 One-electron integrals computed using PRISM.
 One-electron integral symmetry used in STVInt
 NBasis=    86 RedAO= T EigKep=  4.97D-03  NBF=    86
 NBsUse=    86 1.00D-06 EigRej= -1.00D+00 NBFU=    86
 Precomputing XC quadrature grid using
 IXCGrd= 4 IRadAn=           5 IRanWt=          -1 IRanGd=           0 AccXCQ= 0.00D+00.
 Generated NRdTot=       0 NPtTot=           0 NUsed=           0 NTot=          32
 NSgBfM=    86    86    86    86    86 MxSgAt=    15 MxSgA2=    15.
 Leave Link  302 at Fri Nov  1 04:49:07 2019, MaxMem=   280000000 cpu:              27.4 elap:               1.5
 (Enter /usr/g16/l303.exe)
 DipDrv:  MaxL=1.
 Leave Link  303 at Fri Nov  1 04:49:07 2019, MaxMem=   280000000 cpu:               4.2 elap:               0.3
 (Enter /usr/g16/l401.exe)
 Initial guess from the checkpoint file:  "PMe3_ts2.chk"
 B after Tr=    -0.000000   -0.000000   -0.000000
         Rot=    0.999976    0.006849   -0.000292   -0.000740 Ang=   0.79 deg.
 Guess basis will be translated and rotated to current coordinates.
 JPrj=2 DoOrth=T DoCkMO=T.
 Generating alternative initial guess.
 ExpMin= 9.98D-02 ExpMax= 1.94D+04 ExpMxC= 2.91D+03 IAcc=2 IRadAn=         4 AccDes= 0.00D+00
 Harris functional with IExCor=  402 and IRadAn=       4 diagonalized for initial guess.
 HarFok:  IExCor=  402 AccDes= 0.00D+00 IRadAn=         4 IDoV= 1 UseB2=F ITyADJ=14
 ICtDFT=  3500011 ScaDFX=  1.000000  1.000000  1.000000  1.000000
 FoFCou: FMM=F IPFlag=           0 FMFlag=      100000 FMFlg1=           0
         NFxFlg=           0 DoJE=T BraDBF=F KetDBF=T FulRan=T
         wScrn=  0.000000 ICntrl=       500 IOpCl=  0 I1Cent=   200000004 NGrid=           0
         NMat0=    1 NMatS0=      1 NMatT0=    0 NMatD0=    1 NMtDS0=    0 NMtDT0=    0
 Petite list used in FoFCou.
 Harris En= -462.315201852027    
 Leave Link  401 at Fri Nov  1 04:49:10 2019, MaxMem=   280000000 cpu:              50.6 elap:               2.8
 (Enter /usr/g16/l502.exe)
 Integral symmetry usage will be decided dynamically.
 Closed shell SCF:
 Using DIIS extrapolation, IDIIS=  1040.
 NGot=   280000000 LenX=   279981836 LenY=   279973999
 Requested convergence on RMS density matrix=1.00D-08 within 128 cycles.
 Requested convergence on MAX density matrix=1.00D-06.
 Requested convergence on             energy=1.00D-06.
 No special actions if energy rises.
 Fock matrices will be formed incrementally for  20 cycles.

 Cycle   1  Pass 1  IDiag  1:
 FoFJK:  IHMeth= 1 ICntrl=       0 DoSepK=F KAlg= 0 I1Cent=           0 FoldK=F
 IRaf= 990000000 NMat=       1 IRICut=       1 DoRegI=T DoRafI=F ISym2E= 0 IDoP0=0 IntGTp=1.
 FoFCou: FMM=F IPFlag=           0 FMFlag=      100000 FMFlg1=           0
         NFxFlg=           0 DoJE=F BraDBF=F KetDBF=F FulRan=T
         wScrn=  0.000000 ICntrl=         0 IOpCl=  0 I1Cent=           0 NGrid=           0
         NMat0=    1 NMatS0=      1 NMatT0=    0 NMatD0=    1 NMtDS0=    0 NMtDT0=    0
 Symmetry not used in FoFCou.
 Inv3:  Mode=1 IEnd=     3525168.
 Iteration    1 A*A^-1 deviation from unit magnitude is 3.33D-15 for   1080.
 Iteration    1 A*A^-1 deviation from orthogonality  is 1.52D-15 for    561    370.
 Iteration    1 A^-1*A deviation from unit magnitude is 3.33D-15 for   1080.
 Iteration    1 A^-1*A deviation from orthogonality  is 9.69D-16 for    595    363.
 E= -462.242670087323    
 DIIS: error= 1.81D-03 at cycle   1 NSaved=   1.
 NSaved= 1 IEnMin= 1 EnMin= -462.242670087323     IErMin= 1 ErrMin= 1.81D-03
 ErrMax= 1.81D-03  0.00D+00 EMaxC= 1.00D-01 BMatC= 2.20D-04 BMatP= 2.20D-04
 IDIUse=3 WtCom= 9.82D-01 WtEn= 1.81D-02
 Coeff-Com:  0.100D+01
 Coeff-En:   0.100D+01
 Coeff:      0.100D+01
 Gap=     1.350 Goal=   None    Shift=    0.000
 GapD=    1.350 DampG=2.000 DampE=1.000 DampFc=2.0000 IDamp=-1.
 RMSDP=3.63D-04 MaxDP=5.20D-03              OVMax= 1.02D-02

 Cycle   2  Pass 1  IDiag  1:
 RMSU=  3.63D-04    CP:  1.00D+00
 E= -462.243189548984     Delta-E=       -0.000519461661 Rises=F Damp=F
 DIIS: error= 1.96D-04 at cycle   2 NSaved=   2.
 NSaved= 2 IEnMin= 2 EnMin= -462.243189548984     IErMin= 2 ErrMin= 1.96D-04
 ErrMax= 1.96D-04  0.00D+00 EMaxC= 1.00D-01 BMatC= 4.68D-06 BMatP= 2.20D-04
 IDIUse=3 WtCom= 9.98D-01 WtEn= 1.96D-03
 Coeff-Com: -0.610D-01 0.106D+01
 Coeff-En:   0.000D+00 0.100D+01
 Coeff:     -0.608D-01 0.106D+01
 Gap=     0.269 Goal=   None    Shift=    0.000
 RMSDP=6.67D-05 MaxDP=1.03D-03 DE=-5.19D-04 OVMax= 1.82D-03

 Cycle   3  Pass 1  IDiag  1:
 RMSU=  5.29D-05    CP:  1.00D+00  1.11D+00
 E= -462.243193324207     Delta-E=       -0.000003775222 Rises=F Damp=F
 DIIS: error= 2.47D-04 at cycle   3 NSaved=   3.
 NSaved= 3 IEnMin= 3 EnMin= -462.243193324207     IErMin= 2 ErrMin= 1.96D-04
 ErrMax= 2.47D-04  0.00D+00 EMaxC= 1.00D-01 BMatC= 4.80D-06 BMatP= 4.68D-06
 IDIUse=3 WtCom= 9.98D-01 WtEn= 2.47D-03
 Coeff-Com: -0.500D-01 0.567D+00 0.483D+00
 Coeff-En:   0.000D+00 0.245D+00 0.755D+00
 Coeff:     -0.499D-01 0.566D+00 0.483D+00
 Gap=     0.269 Goal=   None    Shift=    0.000
 RMSDP=2.81D-05 MaxDP=5.03D-04 DE=-3.78D-06 OVMax= 6.00D-04

 Cycle   4  Pass 1  IDiag  1:
 RMSU=  1.69D-05    CP:  1.00D+00  1.12D+00  5.86D-01
 E= -462.243198243760     Delta-E=       -0.000004919553 Rises=F Damp=F
 DIIS: error= 2.06D-05 at cycle   4 NSaved=   4.
 NSaved= 4 IEnMin= 4 EnMin= -462.243198243760     IErMin= 4 ErrMin= 2.06D-05
 ErrMax= 2.06D-05  0.00D+00 EMaxC= 1.00D-01 BMatC= 5.16D-08 BMatP= 4.68D-06
 IDIUse=1 WtCom= 1.00D+00 WtEn= 0.00D+00
 Coeff-Com: -0.979D-02 0.910D-01 0.135D+00 0.784D+00
 Coeff:     -0.979D-02 0.910D-01 0.135D+00 0.784D+00
 Gap=     0.269 Goal=   None    Shift=    0.000
 RMSDP=4.18D-06 MaxDP=4.63D-05 DE=-4.92D-06 OVMax= 9.71D-05

 Cycle   5  Pass 1  IDiag  1:
 RMSU=  3.17D-06    CP:  1.00D+00  1.13D+00  6.30D-01  9.37D-01
 E= -462.243198295398     Delta-E=       -0.000000051638 Rises=F Damp=F
 DIIS: error= 7.56D-06 at cycle   5 NSaved=   5.
 NSaved= 5 IEnMin= 5 EnMin= -462.243198295398     IErMin= 5 ErrMin= 7.56D-06
 ErrMax= 7.56D-06  0.00D+00 EMaxC= 1.00D-01 BMatC= 4.96D-09 BMatP= 5.16D-08
 IDIUse=1 WtCom= 1.00D+00 WtEn= 0.00D+00
 Coeff-Com: -0.129D-02 0.668D-02 0.282D-01 0.300D+00 0.666D+00
 Coeff:     -0.129D-02 0.668D-02 0.282D-01 0.300D+00 0.666D+00
 Gap=     0.269 Goal=   None    Shift=    0.000
 RMSDP=1.30D-06 MaxDP=2.48D-05 DE=-5.16D-08 OVMax= 3.03D-05

 Cycle   6  Pass 1  IDiag  1:
 RMSU=  9.24D-07    CP:  1.00D+00  1.13D+00  6.33D-01  9.66D-01  7.65D-01
 E= -462.243198299975     Delta-E=       -0.000000004577 Rises=F Damp=F
 DIIS: error= 3.56D-06 at cycle   6 NSaved=   6.
 NSaved= 6 IEnMin= 6 EnMin= -462.243198299975     IErMin= 6 ErrMin= 3.56D-06
 ErrMax= 3.56D-06  0.00D+00 EMaxC= 1.00D-01 BMatC= 8.41D-10 BMatP= 4.96D-09
 IDIUse=1 WtCom= 1.00D+00 WtEn= 0.00D+00
 Coeff-Com:  0.421D-03-0.655D-02-0.884D-03 0.626D-01 0.331D+00 0.613D+00
 Coeff:      0.421D-03-0.655D-02-0.884D-03 0.626D-01 0.331D+00 0.613D+00
 Gap=     0.269 Goal=   None    Shift=    0.000
 RMSDP=4.12D-07 MaxDP=7.57D-06 DE=-4.58D-09 OVMax= 8.56D-06

 Cycle   7  Pass 1  IDiag  1:
 RMSU=  1.86D-07    CP:  1.00D+00  1.13D+00  6.35D-01  9.70D-01  8.28D-01
                    CP:  7.04D-01
 E= -462.243198300856     Delta-E=       -0.000000000881 Rises=F Damp=F
 DIIS: error= 1.75D-07 at cycle   7 NSaved=   7.
 NSaved= 7 IEnMin= 7 EnMin= -462.243198300856     IErMin= 7 ErrMin= 1.75D-07
 ErrMax= 1.75D-07  0.00D+00 EMaxC= 1.00D-01 BMatC= 5.18D-12 BMatP= 8.41D-10
 IDIUse=1 WtCom= 1.00D+00 WtEn= 0.00D+00
 Coeff-Com:  0.131D-03-0.172D-02-0.101D-02 0.839D-02 0.680D-01 0.156D+00
 Coeff-Com:  0.770D+00
 Coeff:      0.131D-03-0.172D-02-0.101D-02 0.839D-02 0.680D-01 0.156D+00
 Coeff:      0.770D+00
 Gap=     0.269 Goal=   None    Shift=    0.000
 RMSDP=5.23D-08 MaxDP=5.84D-07 DE=-8.81D-10 OVMax= 1.05D-06

 Cycle   8  Pass 1  IDiag  1:
 RMSU=  3.59D-08    CP:  1.00D+00  1.13D+00  6.35D-01  9.71D-01  8.34D-01
                    CP:  7.31D-01  9.29D-01
 E= -462.243198300856     Delta-E=       -0.000000000000 Rises=F Damp=F
 DIIS: error= 3.78D-08 at cycle   8 NSaved=   8.
 NSaved= 8 IEnMin= 8 EnMin= -462.243198300856     IErMin= 8 ErrMin= 3.78D-08
 ErrMax= 3.78D-08  0.00D+00 EMaxC= 1.00D-01 BMatC= 2.60D-13 BMatP= 5.18D-12
 IDIUse=1 WtCom= 1.00D+00 WtEn= 0.00D+00
 Coeff-Com:  0.184D-04-0.206D-03-0.266D-03-0.444D-03 0.452D-02 0.158D-01
 Coeff-Com:  0.202D+00 0.779D+00
[...]
 ! D28   D(14,1,10,11)         -45.5339         -DE/DX =    0.0                 !
 ! D29   D(14,1,10,12)          70.5684         -DE/DX =    0.0                 !
 ! D30   D(14,1,10,13)        -168.7116         -DE/DX =    0.0                 !
 ! D31   D(15,1,10,11)        -130.8267         -DE/DX =    0.0                 !
 ! D32   D(15,1,10,12)         -14.7243         -DE/DX =    0.0                 !
 ! D33   D(15,1,10,13)         105.9956         -DE/DX =    0.0                 !
 --------------------------------------------------------------------------------
 GradGradGradGradGradGradGradGradGradGradGradGradGradGradGradGradGradGrad

 Leave Link  103 at Fri Nov  1 04:58:50 2019, MaxMem=   280000000 cpu:             121.7 elap:               7.2
 (Enter /usr/g16/l9999.exe)

 ----------------------------------------------------------------------

 Electric dipole moment (input orientation):
 (Debye = 10**-18 statcoulomb cm , SI units = C m)
                  (au)            (Debye)         (10**-30 SI)
   Tot        0.370101D+00      0.940702D+00      0.313785D+01
   x          0.676652D-03      0.171988D-02      0.573689D-02
   y          0.373094D-01      0.948310D-01      0.316322D+00
   z         -0.368215D+00     -0.935909D+00     -0.312186D+01

 Dipole polarizability, Alpha (input orientation).
 (esu units = cm**3 , SI units = C**2 m**2 J**-1)
 Alpha(0;0):
               (au)            (10**-24 esu)      (10**-40 SI)
   iso        0.653669D+02      0.968638D+01      0.107775D+02
   aniso      0.995997D+01      0.147591D+01      0.164218D+01
   xx         0.660779D+02      0.979173D+01      0.108948D+02
   yx        -0.151920D+00     -0.225123D-01     -0.250483D-01
   yy         0.700431D+02      0.103793D+02      0.115485D+02
   zx         0.453386D+00      0.671848D-01      0.747532D-01
   zy        -0.267231D+01     -0.395996D+00     -0.440605D+00
   zz         0.599797D+02      0.888808D+01      0.988932D+01

 ----------------------------------------------------------------------

 Dipole orientation:
    15          0.03331131          0.31563859         -0.92289321
     6         -0.04724413         -3.01726844          0.60053381
     1         -1.80511475         -3.98170397          0.05904604
     1          1.53660080         -4.15881378         -0.10625190
     1          0.05059886         -2.98072348          2.67395165
     6          3.05552833          1.15419597          0.64943436
     1          3.92128028          2.81225531         -0.22530142
     1          2.63173064          1.58433698          2.63190181
     1          4.36621948         -0.44338357          0.61854324
     6         -3.01012393          1.29283168          0.54494304
     1         -2.82991612          3.24934633          1.19224933
     1         -4.46275871          1.25664002         -0.93254504
     1         -3.59849525          0.06606475          2.10024584
     1          0.01136402          2.81506866         -2.28820006
     1          0.14398894         -0.87786034         -3.34994682

 Electric dipole moment (dipole orientation):
 (Debye = 10**-18 statcoulomb cm , SI units = C m)
                  (au)            (Debye)         (10**-30 SI)
   Tot        0.370101D+00      0.940702D+00      0.313785D+01
   x          0.000000D+00      0.000000D+00      0.000000D+00
   y          0.000000D+00      0.000000D+00      0.000000D+00
   z          0.370101D+00      0.940702D+00      0.313785D+01

 Dipole polarizability, Alpha (dipole orientation).
 (esu units = cm**3 , SI units = C**2 m**2 J**-1)
 Alpha(0;0):
               (au)            (10**-24 esu)      (10**-40 SI)
   iso        0.653669D+02      0.968638D+01      0.107775D+02
   aniso      0.995997D+01      0.147591D+01      0.164218D+01
   xx         0.660795D+02      0.979198D+01      0.108950D+02
   yx         0.111766D+00      0.165620D-01      0.184277D-01
   yy         0.694048D+02      0.102847D+02      0.114433D+02
   zx        -0.456071D+00     -0.675827D-01     -0.751959D-01
   zy        -0.362716D+01     -0.537489D+00     -0.598037D+00
   zz         0.606163D+02      0.898242D+01      0.999428D+01

 ----------------------------------------------------------------------
 1\1\GINC-LW05\Freq\RB3LYP\6-31G(d)\C3H11P1\WSR\01-Nov-2019\0\\#P Geom=
 AllCheck Guess=TCheck SCRF=Check GenChk RB3LYP/6-31G(d) Freq\\title\\0
 ,1\P,0.0167500961,-0.2154118778,0.4690796408\C,-0.0245669819,1.6205741
 723,-0.1552568436\H,-0.9553615263,2.099531529,0.1795737207\H,0.8128266
 389,2.1837952564,0.279280996\H,0.0292170117,1.711937046,-1.2487259651\
 C,1.6175980008,-0.5731676718,-0.4005297806\H,2.0749682002,-1.492810928
 4,-0.0276110708\H,1.395273342,-0.6938521378,-1.467616621\H,2.311076730
 1,0.2662163919,-0.2977741424\C,-1.5922958836,-0.6514344153,-0.35878120
 08\H,-1.4962122611,-1.6469809681,-0.8037726769\H,-2.3624270413,-0.7111
 267805,0.4196128717\H,-1.9022032928,0.0774331282,-1.112744467\H,0.0039
 373883,-1.6041476978,1.0545321572\H,0.0729115789,0.2834649537,1.810651
 3817\\Version=ES64L-G16RevA.03\State=1-A\HF=-462.2427329\RMSD=2.241e-0
 9\RMSF=1.350e-06\ZeroPoint=0.1307332\Thermal=0.1373578\Dipole=0.000676
 7,0.0373094,-0.3682148\DipoleDeriv=1.5030451,0.0608599,-0.0044106,0.06
 19296,2.4385191,-0.4083674,0.0103034,-0.4049132,1.4138449,-0.2224908,0
 .0195633,0.004365,0.02381,-0.7012642,0.1724927,0.0173921,0.16489,-0.20
 43668,-0.1206868,0.1120303,0.0592667,0.1512056,-0.0289459,-0.034157,0.
 0446428,-0.021732,0.0335796,-0.093052,-0.1222153,-0.0704084,-0.1500503
 ,-0.0571897,-0.0518046,-0.0584409,-0.0317848,0.0192173,0.0553781,-0.00
 69403,0.0074049,-0.0124331,0.0174426,0.0686731,0.0117933,0.0550757,-0.
 2039489,-0.2802653,0.0400273,0.1164724,-0.0296497,-0.2283452,0.0471199
 ,0.1341274,0.0396334,-0.1844802,-0.0114517,0.1020985,-0.0127205,0.0911
 528,-0.0909429,0.0458909,-0.0027509,0.0263626,0.0666584,0.0496202,-0.0
 080424,-0.011715,0.0096191,0.0895712,-0.0258578,-0.0251106,-0.0157581,
 -0.0809655,-0.0493895,-0.1057381,0.0188641,-0.0658191,-0.0139771,-0.01
 31984,0.0100389,0.011828,0.0760919,-0.330198,-0.1117431,-0.0855113,-0.
 1009546,-0.2675581,0.0087665,-0.0527561,0.0024025,-0.1185826,0.0530034
 ,-0.0277445,-0.0136603,0.0048643,-0.0916109,-0.0537196,-0.0359915,-0.0
 726928,0.0276492,-0.0412195,-0.0232141,0.080791,-0.000737,0.0849925,0.
 0124894,0.0485761,0.0029316,0.0050146,0.0084311,0.0716454,-0.0803451,0
 .0230389,-0.0077117,0.0733745,-0.0812175,0.0970708,-0.0430547,-0.40921
 4,-0.0069004,-0.0043992,0.0058672,-0.8321121,0.2259681,-0.0145418,0.16
 10222,-0.417184,-0.1115103,0.0063137,-0.0039934,-0.0118438,-0.3108676,
 -0.0676702,-0.0060646,-0.0143359,-0.3894732\Polar=66.077869,-0.1519205
 ,70.043112,0.4533858,-2.6723149,59.9797195\Quadrupole=2.2473279,-2.389
 5965,0.1422686,0.1053569,-0.2454861,1.6232014\PG=C01 [X(C3H11P1)]\NIma
 g=1\\0.40072119,0.00619079,0.34703182,0.00046969,0.03952649,0.43706996
 ,-0.05591554,0.00047585,0.00028177,0.54516747,0.00066461,-0.08126865,0
 .00852881,0.00745325,0.35562467,-0.00007461,0.01006561,-0.06137944,0.0
 0202792,0.05487343,0.53212778,-0.00105912,-0.00323114,0.00094135,-0.23
 502009,0.09449517,0.06779417,0.25508473,0.02058423,-0.00507777,-0.0106
 6492,0.10516262,-0.09274299,-0.04034157,-0.10420974,0.09381696,-0.0067
 0160,0.00260718,0.00202951,0.06408152,-0.03475579,-0.07074531,-0.07461
 621,0.03987770,0.07328151,-0.00067598,0.00344440,-0.00063244,-0.199253
 08,-0.10068051,-0.07885179,-0.02037300,-0.01524910,-0.01134850,0.21635
 006,-0.01870304,-0.00569269,-0.01283853,-0.11015211,-0.11249469,-0.058
 52108,0.01184790,0.00743822,0.00690693,0.11123514,0.11442901,0.0062016
 2,0.00375158,0.00227604,-0.07639009,-0.05259999,-0.08854191,0.00797393
 ,0.00617749,0.00390360,0.08763381,0.05960206,0.09219840,-0.00121554,-0
 .00000274,-0.00109241,-0.04913795,-0.00181036,0.01221491,-0.00043661,-
 0.00358675,0.02847263,0.00218107,0.00352675,-0.02549292,0.04817673,-0.
 00129489,0.00563311,0.02135063,-0.00291564,-0.04335967,0.03042156,-0.0
 0001813,0.00051512,-0.01505134,0.00189736,0.00078952,-0.01724637,0.001
 44205,0.04115338,0.00011260,-0.00488999,-0.00655486,0.01304766,0.01712
 134,-0.30844091,-0.00029825,0.00134500,-0.00878739,0.00136929,0.001787
 85,-0.01122760,-0.01411527,-0.01927606,0.33273016,-0.11926643,0.012364
 43,0.03384348,-0.00575611,0.00400456,0.00379519,-0.00013841,0.00130944
 ,-0.00036416,-0.00004227,0.00042239,-0.00010862,-0.00014363,0.00029257
 ,0.00006309,0.42874709,0.01420138,-0.05395921,-0.00788625,0.02277994,-
 0.01029833,-0.00836818,0.00017914,-0.00654610,0.00197112,-0.00017053,0
 .00070515,-0.00073606,0.00009297,0.00097975,-0.00016130,0.02173488,0.5
 7385837,0.03430549,-0.00691745,-0.06965815,-0.00462913,0.00257085,0.00
 580002,-0.00032230,0.00242226,0.00030982,0.00041746,0.00013423,-0.0002
 0038,0.00051910,-0.00143797,0.00015560,0.06961163,-0.03506633,0.483497
 44,-0.00721064,0.01871163,-0.01028355,-0.00469153,0.00136375,0.0028853
 8,0.00036719,0.00185130,-0.00044164,0.00024368,0.00024569,0.00020358,0
 .00005747,-0.00059898,-0.00007730,-0.09517764,0.09723000,-0.04462797,0
 .09756952,-0.00179973,-0.00654822,0.00290972,0.00325934,-0.00016418,-0
 .00181504,0.00020230,-0.00091574,0.00038933,-0.00014535,0.00052291,-0.
 00003313,-0.00023276,0.00041161,0.00013763,0.09580642,-0.24591874,0.08
 214480,-0.10364443,0.26129843,0.00637716,-0.01166163,0.00325300,0.0029
 6082,-0.00094573,-0.00143193,0.00012202,-0.00113594,0.00064873,-0.0000
 2435,0.00021714,-0.00005156,-0.00001981,0.00001577,0.00031048,-0.04238
 410,0.07927565,-0.07855340,0.04382759,-0.08927998,0.08346584,0.0041965
 5,0.00306579,0.02411131,0.00002807,0.00000991,-0.00162387,0.00003209,-
 0.00036355,-0.00025081,-0.00000597,-0.00027707,0.00001152,-0.00017572,
 0.00095105,0.00002623,-0.04970124,-0.00308245,-0.04653877,-0.00315383,
 -0.00274645,-0.01318292,0.05626032,-0.00238727,-0.00193554,-0.00514700
 ,-0.00014012,-0.00031643,0.00003326,-0.00002840,0.00010834,0.00035865,
 0.00020175,0.00013541,0.00000063,0.00045359,-0.00068790,0.00015532,-0.
 00496519,-0.04874775,-0.02907828,0.00461571,0.00546215,0.02788615,0.00
 591001,0.04799885,-0.00324715,-0.00049812,-0.01223706,0.00042717,-0.00
 029440,0.00037882,0.00007895,-0.00007856,0.00037829,-0.00003422,0.0003
 0530,0.00003765,-0.00004094,-0.00031702,0.00054563,-0.05849980,-0.0298
 8323,-0.30454873,-0.00144573,-0.00204126,-0.00876127,0.06093380,0.0314
 2696,0.32381492,-0.01159694,-0.01794883,-0.00427426,0.00119102,0.00043
 187,-0.00096865,0.00062824,-0.00050163,0.00023871,0.00012245,0.0012438
 9,0.00020322,-0.00017919,0.00026983,-0.00011736,-0.15874240,-0.1370598
 2,-0.02245004,0.01101308,0.01117317,0.00272741,-0.00388932,-0.00374159
 ,-0.00007044,0.16388989,0.00482839,0.00275479,0.00287712,0.00065713,-0
 .00069880,-0.00012967,0.00011636,0.00046859,0.00005108,0.00077690,-0.0
 0056935,-0.00003548,-0.00001888,-0.00016334,-0.00011897,-0.13324801,-0
 .21090029,-0.02051173,-0.01729723,-0.01701114,-0.00418941,-0.00136301,
 -0.00224758,0.00020783,0.14526584,0.22687725,0.00888993,0.01142684,-0.
 00096194,-0.00120867,-0.00000336,0.00067721,-0.00009295,0.00049982,-0.
 00035593,0.00010586,-0.00060435,0.00023987,-0.00028590,-0.00015838,-0.
 00023843,-0.01710258,-0.01596356,-0.04265634,0.00874480,0.00781647,0.0
 0104818,-0.02172871,-0.02577582,-0.00167979,0.02026732,0.02326480,0.04
 691577,-0.11126920,-0.01644021,-0.02965122,-0.00278609,-0.00226621,-0.
 00315154,0.00027863,-0.00153531,0.00011719,0.00065826,-0.00063540,-0.0
 0076701,-0.00026092,-0.00005029,-0.00052677,0.00009132,-0.00211648,-0.
 00201158,-0.00024249,-0.00032790,-0.00003289,0.00087007,-0.00041536,-0
 .00064364,-0.00062569,0.00077228,-0.00028848,0.40120625,-0.01509221,-0
 .05497896,-0.00786917,-0.02211016,-0.01022804,-0.00982545,0.00014304,0
 .00135852,-0.00068340,-0.00024067,-0.00633835,0.00301182,-0.00001628,0
 .00058441,0.00095449,0.00067711,0.00041133,-0.00031100,-0.00003484,0.0
 0118930,-0.00007583,0.00026124,0.00060355,-0.00029090,0.00068394,-0.00
 019200,-0.00016420,-0.04754989,0.56123176,-0.03613330,-0.01011389,-0.0
 7317528,-0.00055451,0.00118954,0.00524901,-0.00048255,0.00104831,-0.00
 003715,-0.00061312,0.00096867,0.00091128,0.00005779,-0.00225727,0.0001
 8250,0.00417563,0.00486383,0.00737071,0.00128489,-0.00006201,-0.000457
 00,-0.00149912,0.00020464,0.00158412,0.00230485,-0.00163696,-0.0003692
 1,-0.04554803,-0.03795160,0.51511387,0.00094757,-0.02256635,-0.0110233
 7,-0.00488773,-0.00140732,-0.00145157,0.00028810,0.00053995,-0.0002743
 2,-0.00001306,-0.00171877,0.00091955,-0.00003420,-0.00010169,0.0002145
 2,0.00080797,0.00087526,0.00020197,-0.00007606,0.00022998,-0.00000619,
 -0.00026549,0.00001496,0.00039538,0.00035004,-0.00011220,0.00004974,-0
 .04044056,0.02087981,0.00549379,0.04663939,0.00165749,-0.00743059,0.00
 084248,-0.00307513,-0.00066576,-0.00141737,0.00007938,0.00071702,-0.00
 003038,-0.00025787,-0.00096882,0.00031825,0.00005860,0.00015451,0.0000
 2500,0.00003036,0.00055198,-0.00008956,-0.00015642,0.00007448,0.000130
 67,-0.00024274,-0.00002879,0.00027056,0.00008667,-0.00001431,0.0000625
 2,0.02767857,-0.27512147,-0.10273545,-0.02770097,0.29264955,0.00348038
 ,-0.00923318,-0.00520991,-0.00109340,-0.00025284,-0.00011011,0.0001564
 8,0.00009727,-0.00013748,0.00021927,-0.00024930,0.00037564,-0.00011983
 ,-0.00017619,0.00016008,0.00049216,0.00043332,0.00011868,-0.00004111,0
 .00006309,0.00003081,-0.00002207,0.00008154,0.00013237,0.00014262,-0.0
 0008706,-0.00007945,0.00939862,-0.10087662,-0.09333978,-0.01064149,0.1
 0945154,0.09522100,-0.01507577,-0.00105777,0.01801435,-0.00108135,-0.0
 0101629,-0.00193665,0.00008743,-0.00051402,0.00007792,0.00012812,-0.00
 069658,-0.00005377,0.00016674,0.00059243,0.00005069,-0.00044480,-0.001
 12430,-0.00201327,-0.00040705,-0.00004070,0.00013858,0.00043218,-0.000
 12154,-0.00039561,-0.00057787,0.00057585,0.00002808,-0.18137149,-0.006
 60320,0.14392576,-0.00137517,-0.00044003,0.00069940,0.18825685,-0.0052
 3143,-0.00202788,0.00500149,-0.00072509,-0.00050338,-0.00079385,0.0000
 7821,-0.00039837,0.00000835,0.00011585,-0.00054663,-0.00033763,0.00001
 672,0.00042373,-0.00029278,0.00019102,-0.00006897,-0.00008830,-0.00006
 784,-0.00006763,0.00002531,-0.00004024,-0.00007903,0.00001882,-0.00003
 560,0.00010172,0.00001202,-0.01066042,-0.04326634,0.01606530,0.0229321
 5,0.00271615,-0.02125174,0.00966668,0.04426805,-0.00993362,-0.00010461
 ,0.00916368,0.00049501,-0.00018625,-0.00077548,-0.00006762,-0.00032336
 ,0.00011016,0.00010981,-0.00004723,-0.00002382,-0.00003748,0.00013275,
 0.00012839,-0.00097944,-0.00147693,-0.00178438,-0.00022277,0.00005377,
 0.00009377,0.00021689,-0.00005909,-0.00009162,-0.00069860,0.00036890,0
 .00030097,0.13278221,0.01253230,-0.17835623,0.00949808,0.00159530,-0.0
 0955854,-0.14863361,-0.01200246,0.19526002,-0.00396350,0.01743343,-0.0
 1479146,0.00131762,-0.00091004,0.00146614,0.00004861,-0.00042025,0.000
 08461,0.00036296,0.00091024,0.00016400,-0.00056065,-0.00139872,0.00029
 652,0.00035389,0.00002026,0.00081059,0.00022898,-0.00026236,0.00004183
 ,-0.00034429,-0.00000157,0.00040656,-0.00002125,-0.00005573,0.00005505
 ,-0.06542174,0.05494535,-0.05443246,-0.00174525,0.00088560,-0.00142637
 ,0.00827579,-0.01694701,0.01575175,0.06675546,-0.00158724,0.00164019,-
 0.00546743,-0.00073095,-0.00091384,0.00016307,-0.00049388,-0.00048592,
 -0.00019334,-0.00007287,0.00044820,-0.00026836,-0.00047549,-0.00057744
 ,-0.00046776,0.00038669,0.00029065,-0.00000229,-0.00001504,-0.00006360
 ,0.00000774,0.00011454,-0.00001575,0.00014131,0.00009924,-0.00008575,-
 0.00009566,0.05167702,-0.17190976,0.12492609,0.00713947,-0.01540578,0.
 02064204,0.00008811,-0.00035869,-0.00049828,-0.05511557,0.18431192,0.0
 0083721,0.00878159,-0.00726557,0.00075796,0.00000532,0.00086972,0.0000
 4998,-0.00064239,-0.00034441,0.00043415,0.00023827,0.00024738,0.000111
 15,-0.00010000,0.00061363,0.00004502,-0.00059629,0.00081159,0.00018218
 ,-0.00018239,-0.00011777,-0.00026578,-0.00000426,0.00012958,-0.0001581
 0,-0.00003075,0.00011530,-0.05095656,0.12596196,-0.18013722,0.00446716
 ,-0.00938601,0.01199355,-0.00789841,0.01434372,-0.01445864,0.05560475,
 -0.13873366,0.18829559,-0.04213636,0.00067447,-0.00066065,0.00512686,-
 0.00006915,0.00013535,0.00025481,-0.00119072,0.00012702,0.00020377,0.0
 0108544,-0.00003205,0.00003818,0.00002555,0.00002878,-0.00697324,-0.01
 493523,0.01178329,0.00139651,-0.00143450,-0.00056196,-0.00215628,-0.00
 040864,0.00196583,-0.00286647,-0.00067315,0.00324266,-0.00493809,0.017
 41581,-0.01669720,0.00130847,0.00034569,0.00016709,0.00177225,0.000429
 80,0.00163438,-0.00572307,-0.00047819,-0.00317013,0.04851564,0.0000041
 9,-0.08578367,0.01819838,-0.00013640,-0.00360388,0.00524242,0.00048608
 ,0.00028932,-0.00048208,-0.00045265,0.00033254,-0.00066500,0.00009441,
 -0.00130189,0.00137621,-0.00042587,-0.00205963,0.00437024,-0.00149498,
 0.00143769,-0.00007010,-0.00176744,0.00008610,0.00053194,-0.00056664,0
 .00127354,0.00028127,0.00239241,-0.00301139,0.00467376,0.00089316,0.00
 152108,0.00126330,0.00082822,-0.00037662,-0.00001900,0.00136673,0.0022
 8474,0.00030490,0.00012811,0.11012038,-0.00040605,0.01246549,-0.052744
 14,-0.00003702,0.00424519,0.00693891,-0.00021963,0.00097929,-0.0002972
 5,0.00023647,0.00135195,-0.00030327,0.00014050,-0.00191875,0.00083270,
 0.00766937,0.01283405,-0.00328962,-0.00007713,0.00031752,0.00047949,0.
 00017858,-0.00019812,-0.00049840,0.00293474,-0.00031580,-0.00286566,-0
 .00748999,0.01453189,-0.00816406,0.00160516,0.00068418,-0.00010123,-0.
 00130611,-0.00017377,0.00002017,-0.00473911,-0.00024909,-0.00093688,0.
 00212516,-0.02672820,0.05765631,-0.03648028,-0.00111376,-0.00525258,0.
 00569842,-0.00026324,-0.00226036,-0.00004258,-0.00187648,0.00079764,0.
 00011298,0.00166553,-0.00046677,0.00152421,0.00090749,-0.00007444,0.00
 638589,0.00137497,0.00494352,0.00008282,-0.00003703,0.00001682,-0.0021
 2715,0.00101364,0.00016985,0.00130439,-0.00022455,-0.00067615,0.004251
 75,-0.00335903,-0.00128239,-0.00150402,0.00105081,-0.00141173,0.001214
 14,0.00027720,0.00008500,0.00043643,-0.00053584,-0.00004059,0.00617700
 ,-0.00134932,-0.00061495,0.01296598,-0.00203526,-0.05235674,-0.0493618
 2,0.00019748,0.00163395,0.02041286,0.00035371,0.00145478,-0.00097402,-
 0.00040185,0.00180958,-0.00093980,0.00045818,-0.00455490,0.00230403,0.
 00141919,0.00170178,0.00186053,-0.00070835,0.00029269,-0.00019980,-0.0
 0042957,-0.00033563,0.00050077,0.00059966,0.00040666,-0.00059842,-0.00
 052284,-0.00033257,0.00081707,0.00010258,0.00125074,0.00009484,-0.0001
 3686,0.00018389,0.00003421,-0.00045037,0.00084081,0.00003999,-0.000915
 29,-0.02120831,-0.01782584,0.00246960,0.06921328,-0.00417774,-0.045205
 90,-0.16460585,-0.00016700,0.00050387,-0.02061640,-0.00101738,0.000739
 59,0.00004329,0.00097832,0.00074809,0.00015870,-0.00031152,0.00601865,
 -0.00040999,-0.00025689,0.00076016,0.00262714,0.00008878,-0.00041853,0
 .00004263,-0.00036628,0.00011543,0.00081549,-0.00008143,0.00028611,-0.
 00009056,-0.00123029,0.00105573,0.00362445,0.00055159,0.00027828,0.000
 50439,-0.00069733,-0.00053447,-0.00002845,0.00070760,0.00009564,0.0001
 8416,-0.00008757,-0.00827805,0.00327293,0.00606713,0.04383540,0.174478
 06\\-0.00000113,0.00000094,0.00000173,-0.00000205,-0.00000007,-0.00000
 202,-0.00000124,0.00000009,-0.00000252,-0.00000113,0.00000036,-0.00000
 153,-0.00000045,-0.00000119,-0.00000173,0.00000086,-0.00000145,0.00000
 236,0.00000048,0.00000150,0.00000249,0.00000247,-0.00000017,0.00000048
 ,-0.00000060,0.00000077,0.00000068,0.00000022,0.00000070,0.00000037,0.
 00000155,-0.00000160,0.00000070,0.00000005,-0.00000085,-0.00000050,0.0
 0000052,-0.00000221,-0.00000112,0.00000222,0.00000111,0.00000061,-0.00
 000176,0.00000206,0.\\\@


 LEARN FROM YESTERDAY,
 LIVE FOR TODAY,
 LOOK TO TOMORROW,
 REST THIS AFTERNOON.

           -- SNOOPY
 Job cpu time:       0 days  0 hours 27 minutes 58.7 seconds.
 Elapsed time:       0 days  0 hours  1 minutes 28.6 seconds.
 File lengths (MBytes):  RWF=     40 Int=      0 D2E=      0 Chk=      8 Scr=      1
 Normal termination of Gaussian 16 at Fri Nov  1 04:58:50 2019.
