 Entering Gaussian System, Link 0=g16
 Input=PMe3.gjf
 Output=PMe3.log
 Initial command:
 /usr/g16/l1.exe "/scratch/wsr/gaussian/Gau-39001.inp" -scrdir="/scratch/wsr/gaussian/"
 Entering Link 1 = /usr/g16/l1.exe PID=     39002.
  
 Copyright (c) 1988,1990,1992,1993,1995,1998,2003,2009,2016,
            Gaussian, Inc.  All Rights Reserved.
  
 This is part of the Gaussian(R) 16 program.  It is based on
 the Gaussian(R) 09 system (copyright 2009, Gaussian, Inc.),
 the Gaussian(R) 03 system (copyright 2003, Gaussian, Inc.),
 the Gaussian(R) 98 system (copyright 1998, Gaussian, Inc.),
 the Gaussian(R) 94 system (copyright 1995, Gaussian, Inc.),
 the Gaussian 92(TM) system (copyright 1992, Gaussian, Inc.),
 the Gaussian 90(TM) system (copyright 1990, Gaussian, Inc.),
 the Gaussian 88(TM) system (copyright 1988, Gaussian, Inc.),
 the Gaussian 86(TM) system (copyright 1986, Carnegie Mellon
 University), and the Gaussian 82(TM) system (copyright 1983,
 Carnegie Mellon University). Gaussian is a federally registered
 trademark of Gaussian, Inc.
  
 This software contains proprietary and confidential information,
 including trade secrets, belonging to Gaussian, Inc.
  
 This software is provided under written license and may be
 used, copied, transmitted, or stored only in accord with that
 written license.
  
 The following legend is applicable only to US Government
 contracts under FAR:
  
                    RESTRICTED RIGHTS LEGEND
  
 Use, reproduction and disclosure by the US Government is
 subject to restrictions as set forth in subparagraphs (a)
 and (c) of the Commercial Computer Software - Restricted
 Rights clause in FAR 52.227-19.
  
 Gaussian, Inc.
 340 Quinnipiac St., Bldg. 40, Wallingford CT 06492
  
  
 ---------------------------------------------------------------
 Warning -- This program may not be used in any manner that
 competes with the business of Gaussian, Inc. or will provide
 assistance to any competitor of Gaussian, Inc.  The licensee
 of this program is prohibited from giving any competitor of
 Gaussian, Inc. access to this program.  By using this program,
 the user acknowledges that Gaussian, Inc. is engaged in the
 business of creating and licensing software in the field of
 computational chemistry and represents and warrants to the
 licensee that it is not a competitor of Gaussian, Inc. and that
 it will not use this program in any manner prohibited above.
 ---------------------------------------------------------------
  

 Cite this work as:
 Gaussian 16, Revision A.03,
 M. J. Frisch, G. W. Trucks, H. B. Schlegel, G. E. Scuseria, 
 M. A. Robb, J. R. Cheeseman, G. Scalmani, V. Barone, 
 G. A. Petersson, H. Nakatsuji, X. Li, M. Caricato, A. V. Marenich, 
 J. Bloino, B. G. Janesko, R. Gomperts, B. Mennucci, H. P. Hratchian, 
 J. V. Ortiz, A. F. Izmaylov, J. L. Sonnenberg, D. Williams-Young, 
 F. Ding, F. Lipparini, F. Egidi, J. Goings, B. Peng, A. Petrone, 
 T. Henderson, D. Ranasinghe, V. G. Zakrzewski, J. Gao, N. Rega, 
 G. Zheng, W. Liang, M. Hada, M. Ehara, K. Toyota, R. Fukuda, 
 J. Hasegawa, M. Ishida, T. Nakajima, Y. Honda, O. Kitao, H. Nakai, 
 T. Vreven, K. Throssell, J. A. Montgomery, Jr., J. E. Peralta, 
 F. Ogliaro, M. J. Bearpark, J. J. Heyd, E. N. Brothers, K. N. Kudin, 
 V. N. Staroverov, T. A. Keith, R. Kobayashi, J. Normand, 
 K. Raghavachari, A. P. Rendell, J. C. Burant, S. S. Iyengar, 
 J. Tomasi, M. Cossi, J. M. Millam, M. Klene, C. Adamo, R. Cammi, 
 J. W. Ochterski, R. L. Martin, K. Morokuma, O. Farkas, 
 J. B. Foresman, and D. J. Fox, Gaussian, Inc., Wallingford CT, 2016.
 
 ******************************************
 Gaussian 16:  ES64L-G16RevA.03 25-Dec-2016
                30-Oct-2019 
 ******************************************
 %chk=PMe3.chk
 %nproc=24
 Will use up to   24 processors via shared memory.
 ----------------------------
 #p b3lyp/6-31g* opt em=gd3bj
 ----------------------------
 1/18=20,19=15,26=3,38=1/1,3;
 2/9=110,12=2,17=6,18=5,40=1/2;
 3/5=1,6=6,7=1,11=2,25=1,30=1,71=1,74=-5,124=41/1,2,3;
 4//1;
 5/5=2,38=5/2;
 6/7=2,8=2,9=2,10=2,28=1/1;
 7//1,2,3,16;
 1/18=20,19=15,26=3/3(2);
 2/9=110/2;
 99//99;
 2/9=110/2;
 3/5=1,6=6,7=1,11=2,25=1,30=1,71=1,74=-5,124=41/1,2,3;
 4/5=5,16=3,69=1/1;
 5/5=2,38=5/2;
 7//1,2,3,16;
 1/18=20,19=15,26=3/3(-5);
 2/9=110/2;
 6/7=2,8=2,9=2,10=2,19=2,28=1/1;
 99/9=1/99;
 Leave Link    1 at Wed Oct 30 13:44:43 2019, MaxMem=           0 cpu:               0.7 elap:               0.0
 (Enter /usr/g16/l101.exe)
 -------------------
 Title Card Required
 -------------------
 Symbolic Z-matrix:
 Charge =  0 Multiplicity = 1
 P                    -0.56723   0.52521   0. 
 C                     0.03942  -1.19071   0. 
 H                    -0.31885  -1.69567   0.87267 
 H                    -0.31566  -1.69454  -0.87463 
 H                     1.10942  -1.19072   0.00196 
 C                     0.04217   1.38412  -1.48436 
 H                    -0.31291   0.88028  -2.35899 
 H                    -0.31449   2.39293  -1.48436 
 H                     1.11216   1.3841   -1.4824 
 C                     0.03673   1.3822    1.48768 
 H                    -0.31992   2.39101   1.48768 
 H                    -0.32154   0.87723   2.36036 
 H                     1.10673   1.38218   1.48964 
 
 ITRead=  0  0  0  0  0  0  0  0  0  0  0  0  0
 MicOpt= -1 -1 -1 -1 -1 -1 -1 -1 -1 -1 -1 -1 -1
 NAtoms=     13 NQM=       13 NQMF=       0 NMMI=      0 NMMIF=      0
                NMic=       0 NMicF=      0.
                    Isotopes and Nuclear Properties:
 (Nuclear quadrupole moments (NQMom) in fm**2, nuclear magnetic moments (NMagM)
  in nuclear magnetons)

  Atom         1           2           3           4           5           6           7           8           9          10
 IAtWgt=          31          12           1           1           1          12           1           1           1          12
 AtmWgt=  30.9737634  12.0000000   1.0078250   1.0078250   1.0078250  12.0000000   1.0078250   1.0078250   1.0078250  12.0000000
 NucSpn=           1           0           1           1           1           0           1           1           1           0
 AtZEff=  -0.0000000  -0.0000000  -0.0000000  -0.0000000  -0.0000000  -0.0000000  -0.0000000  -0.0000000  -0.0000000  -0.0000000
 NQMom=    0.0000000   0.0000000   0.0000000   0.0000000   0.0000000   0.0000000   0.0000000   0.0000000   0.0000000   0.0000000
 NMagM=    1.1316000   0.0000000   2.7928460   2.7928460   2.7928460   0.0000000   2.7928460   2.7928460   2.7928460   0.0000000
 AtZNuc=  15.0000000   6.0000000   1.0000000   1.0000000   1.0000000   6.0000000   1.0000000   1.0000000   1.0000000   6.0000000

  Atom        11          12          13
 IAtWgt=           1           1           1
 AtmWgt=   1.0078250   1.0078250   1.0078250
 NucSpn=           1           1           1
 AtZEff=  -0.0000000  -0.0000000  -0.0000000
 NQMom=    0.0000000   0.0000000   0.0000000
 NMagM=    2.7928460   2.7928460   2.7928460
 AtZNuc=   1.0000000   1.0000000   1.0000000
 Leave Link  101 at Wed Oct 30 13:44:43 2019, MaxMem=   140000000 cpu:               8.2 elap:               0.4
 (Enter /usr/g16/l103.exe)

 GradGradGradGradGradGradGradGradGradGradGradGradGradGradGradGradGradGrad
 Berny optimization.
 Initialization pass.
                           ----------------------------
                           !    Initial Parameters    !
                           ! (Angstroms and Degrees)  !
 --------------------------                            --------------------------
 ! Name  Definition              Value          Derivative Info.                !
 --------------------------------------------------------------------------------
 ! R1    R(1,2)                  1.82           estimate D2E/DX2                !
 ! R2    R(1,6)                  1.82           estimate D2E/DX2                !
 ! R3    R(1,10)                 1.82           estimate D2E/DX2                !
 ! R4    R(2,3)                  1.07           estimate D2E/DX2                !
 ! R5    R(2,4)                  1.07           estimate D2E/DX2                !
 ! R6    R(2,5)                  1.07           estimate D2E/DX2                !
 ! R7    R(6,7)                  1.07           estimate D2E/DX2                !
 ! R8    R(6,8)                  1.07           estimate D2E/DX2                !
 ! R9    R(6,9)                  1.07           estimate D2E/DX2                !
 ! R10   R(10,11)                1.07           estimate D2E/DX2                !
 ! R11   R(10,12)                1.07           estimate D2E/DX2                !
 ! R12   R(10,13)                1.07           estimate D2E/DX2                !
 ! A1    A(2,1,6)              109.4712         estimate D2E/DX2                !
 ! A2    A(2,1,10)             109.4712         estimate D2E/DX2                !
 ! A3    A(6,1,10)             109.4713         estimate D2E/DX2                !
 ! A4    A(1,2,3)              109.4712         estimate D2E/DX2                !
 ! A5    A(1,2,4)              109.4712         estimate D2E/DX2                !
 ! A6    A(1,2,5)              109.4712         estimate D2E/DX2                !
 ! A7    A(3,2,4)              109.4713         estimate D2E/DX2                !
 ! A8    A(3,2,5)              109.4712         estimate D2E/DX2                !
 ! A9    A(4,2,5)              109.4712         estimate D2E/DX2                !
 ! A10   A(1,6,7)              109.4712         estimate D2E/DX2                !
 ! A11   A(1,6,8)              109.4712         estimate D2E/DX2                !
 ! A12   A(1,6,9)              109.4712         estimate D2E/DX2                !
 ! A13   A(7,6,8)              109.4713         estimate D2E/DX2                !
 ! A14   A(7,6,9)              109.4712         estimate D2E/DX2                !
 ! A15   A(8,6,9)              109.4712         estimate D2E/DX2                !
 ! A16   A(1,10,11)            109.4712         estimate D2E/DX2                !
 ! A17   A(1,10,12)            109.4712         estimate D2E/DX2                !
 ! A18   A(1,10,13)            109.4712         estimate D2E/DX2                !
 ! A19   A(11,10,12)           109.4713         estimate D2E/DX2                !
 ! A20   A(11,10,13)           109.4712         estimate D2E/DX2                !
 ! A21   A(12,10,13)           109.4712         estimate D2E/DX2                !
 ! D1    D(6,1,2,3)            180.0            estimate D2E/DX2                !
 ! D2    D(6,1,2,4)            -60.0            estimate D2E/DX2                !
 ! D3    D(6,1,2,5)             60.0            estimate D2E/DX2                !
 ! D4    D(10,1,2,3)            59.9999         estimate D2E/DX2                !
 ! D5    D(10,1,2,4)           180.0            estimate D2E/DX2                !
 ! D6    D(10,1,2,5)           -60.0            estimate D2E/DX2                !
 ! D7    D(2,1,6,7)             60.0            estimate D2E/DX2                !
 ! D8    D(2,1,6,8)            180.0            estimate D2E/DX2                !
 ! D9    D(2,1,6,9)            -60.0            estimate D2E/DX2                !
 ! D10   D(10,1,6,7)           180.0            estimate D2E/DX2                !
 ! D11   D(10,1,6,8)           -60.0            estimate D2E/DX2                !
 ! D12   D(10,1,6,9)            60.0            estimate D2E/DX2                !
 ! D13   D(2,1,10,11)          180.0            estimate D2E/DX2                !
 ! D14   D(2,1,10,12)          -60.0            estimate D2E/DX2                !
 ! D15   D(2,1,10,13)           60.0            estimate D2E/DX2                !
 ! D16   D(6,1,10,11)           60.0            estimate D2E/DX2                !
 ! D17   D(6,1,10,12)         -180.0            estimate D2E/DX2                !
 ! D18   D(6,1,10,13)          -60.0            estimate D2E/DX2                !
 --------------------------------------------------------------------------------
 Trust Radius=3.00D-01 FncErr=1.00D-07 GrdErr=1.00D-06 EigMax=2.50D+02 EigMin=1.00D-04
 Number of steps in this run=     61 maximum allowed number of steps=    100.
 GradGradGradGradGradGradGradGradGradGradGradGradGradGradGradGradGradGrad

 Leave Link  103 at Wed Oct 30 13:44:43 2019, MaxMem=   140000000 cpu:               1.5 elap:               0.1
 (Enter /usr/g16/l202.exe)
                          Input orientation:                          
 ---------------------------------------------------------------------
 Center     Atomic      Atomic             Coordinates (Angstroms)
 Number     Number       Type             X           Y           Z
 ---------------------------------------------------------------------
      1         15           0       -0.567227    0.525210    0.000000
      2          6           0        0.039419   -1.190710    0.000000
      3          1           0       -0.318850   -1.695672    0.872672
      4          1           0       -0.315656   -1.694543   -0.874628
      5          1           0        1.109417   -1.190724    0.001955
      6          6           0        0.042165    1.384118   -1.484358
      7          1           0       -0.312909    0.880284   -2.358985
      8          1           0       -0.314489    2.392928   -1.484358
      9          1           0        1.112164    1.384105   -1.482402
     10          6           0        0.036732    1.382197    1.487685
     11          1           0       -0.319922    2.391007    1.487685
     12          1           0       -0.321537    0.877234    2.360356
     13          1           0        1.106730    1.382184    1.489641
 ---------------------------------------------------------------------
                    Distance matrix (angstroms):
                    1          2          3          4          5
     1  P    0.000000
     2  C    1.820000   0.000000
     3  H    2.399076   1.070000   0.000000
     4  H    2.399076   1.070000   1.747303   0.000000
     5  H    2.399076   1.070000   1.747303   1.747303   0.000000
     6  C    1.820000   2.972047   3.895001   3.158792   3.158791
     7  H    2.399076   3.158791   4.132698   2.972047   3.447626
     8  H    2.399076   3.895001   4.719350   4.132698   4.132698
     9  H    2.399076   3.158792   4.132698   3.447627   2.972047
    10  C    1.820000   2.972047   3.158791   3.895001   3.158792
    11  H    2.399076   3.895001   4.132698   4.719350   4.132699
    12  H    2.399076   3.158791   2.972046   4.132698   3.447627
    13  H    2.399076   3.158792   3.447626   4.132699   2.972048
                    6          7          8          9         10
     6  C    0.000000
     7  H    1.070000   0.000000
     8  H    1.070000   1.747303   0.000000
     9  H    1.070000   1.747303   1.747303   0.000000
    10  C    2.972048   3.895001   3.158792   3.158793   0.000000
    11  H    3.158792   4.132699   2.972048   3.447628   1.070000
    12  H    3.895001   4.719350   4.132699   4.132699   1.070000
    13  H    3.158793   4.132699   3.447628   2.972048   1.070000
                   11         12         13
    11  H    0.000000
    12  H    1.747303   0.000000
    13  H    1.747303   1.747303   0.000000
 This structure is nearly, but not quite of a higher symmetry.
 Consider Symm=Loose if the higher symmetry is desired.
 Stoichiometry    C3H9P
 Framework group  C1[X(C3H9P)]
 Deg. of freedom    33
 Full point group                 C1      NOp   1
 Largest Abelian subgroup         C1      NOp   1
 Largest concise Abelian subgroup C1      NOp   1
                         Standard orientation:                         
 ---------------------------------------------------------------------
 Center     Atomic      Atomic             Coordinates (Angstroms)
 Number     Number       Type             X           Y           Z
 ---------------------------------------------------------------------
      1         15           0        0.415476   -0.000000    0.000760
      2          6           0       -0.191189    1.715912   -0.001459
      3          1           0        0.163880    2.220879    0.872518
      4          1           0        0.167075    2.219750   -0.874782
      5          1           0       -1.261187    1.715911   -0.003415
      6          6           0       -0.188474   -0.858916   -1.485816
      7          1           0        0.169790   -0.355078   -2.359140
      8          1           0        0.168191   -1.867722   -1.484512
      9          1           0       -1.258472   -0.858917   -1.487773
     10          6           0       -0.193908   -0.856995    1.486226
     11          1           0        0.162758   -1.865801    1.487530
     12          1           0        0.161162   -0.352027    2.360202
     13          1           0       -1.263906   -0.856996    1.484270
 ---------------------------------------------------------------------
 Rotational constants (GHZ):           5.8650945           5.8650908           3.3844308
 Leave Link  202 at Wed Oct 30 13:44:43 2019, MaxMem=   140000000 cpu:               1.1 elap:               0.1
 (Enter /usr/g16/l301.exe)
 Standard basis: 6-31G(d) (6D, 7F)
 Ernie: Thresh=  0.10000D-02 Tol=  0.10000D-05 Strict=F.
 There are    82 symmetry adapted cartesian basis functions of A   symmetry.
 There are    82 symmetry adapted basis functions of A   symmetry.
    82 basis functions,   172 primitive gaussians,    82 cartesian basis functions
    21 alpha electrons       21 beta electrons
       nuclear repulsion energy       177.7583577650 Hartrees.
 IExCor=  402 DFT=T Ex+Corr=B3LYP ExCW=0 ScaHFX=  0.200000
 ScaDFX=  0.800000  0.720000  1.000000  0.810000 ScalE2=  1.000000  1.000000
 IRadAn=      5 IRanWt=     -1 IRanGd=            0 ICorTp=0 IEmpDi=141
 NAtoms=   13 NActive=   13 NUniq=   13 SFac= 1.00D+00 NAtFMM=   60 NAOKFM=F Big=F
 Integral buffers will be    131072 words long.
 Raffenetti 2 integral format.
 Two-electron integral symmetry is turned on.
 R6Disp:  Grimme-D3(BJ) Dispersion energy=       -0.0171852512 Hartrees.
 Nuclear repulsion after empirical dispersion term =      177.7411725138 Hartrees.
 Leave Link  301 at Wed Oct 30 13:44:43 2019, MaxMem=   140000000 cpu:               2.1 elap:               0.1
 (Enter /usr/g16/l302.exe)
 NPDir=0 NMtPBC=     1 NCelOv=     1 NCel=       1 NClECP=     1 NCelD=      1
         NCelK=      1 NCelE2=     1 NClLst=     1 CellRange=     0.0.
 One-electron integrals computed using PRISM.
 One-electron integral symmetry used in STVInt
 NBasis=    82 RedAO= T EigKep=  6.34D-03  NBF=    82
 NBsUse=    82 1.00D-06 EigRej= -1.00D+00 NBFU=    82
 Precomputing XC quadrature grid using
 IXCGrd= 4 IRadAn=           5 IRanWt=          -1 IRanGd=           0 AccXCQ= 0.00D+00.
 Generated NRdTot=       0 NPtTot=           0 NUsed=           0 NTot=          32
 NSgBfM=    82    82    82    82    82 MxSgAt=    13 MxSgA2=    13.
 Leave Link  302 at Wed Oct 30 13:44:43 2019, MaxMem=   140000000 cpu:               5.4 elap:               0.3
 (Enter /usr/g16/l303.exe)
 DipDrv:  MaxL=1.
 Leave Link  303 at Wed Oct 30 13:44:44 2019, MaxMem=   140000000 cpu:               1.8 elap:               0.1
 (Enter /usr/g16/l401.exe)
 ExpMin= 9.98D-02 ExpMax= 1.94D+04 ExpMxC= 2.91D+03 IAcc=3 IRadAn=         5 AccDes= 0.00D+00
 Harris functional with IExCor=  402 and IRadAn=       5 diagonalized for initial guess.
 HarFok:  IExCor=  402 AccDes= 0.00D+00 IRadAn=         5 IDoV= 1 UseB2=F ITyADJ=14
 ICtDFT=  3500011 ScaDFX=  1.000000  1.000000  1.000000  1.000000
 FoFCou: FMM=F IPFlag=           0 FMFlag=      100000 FMFlg1=           0
         NFxFlg=           0 DoJE=T BraDBF=F KetDBF=T FulRan=T
         wScrn=  0.000000 ICntrl=       500 IOpCl=  0 I1Cent=   200000004 NGrid=           0
         NMat0=    1 NMatS0=      1 NMatT0=    0 NMatD0=    1 NMtDS0=    0 NMtDT0=    0
 Petite list used in FoFCou.
 Harris En= -461.172519906068    
 JPrj=0 DoOrth=F DoCkMO=F.
 Leave Link  401 at Wed Oct 30 13:44:44 2019, MaxMem=   140000000 cpu:               9.5 elap:               0.4
 (Enter /usr/g16/l502.exe)
 Integral symmetry usage will be decided dynamically.
 Closed shell SCF:
 Using DIIS extrapolation, IDIIS=  1040.
 NGot=   140000000 LenX=   139983400 LenY=   139976235
 Requested convergence on RMS density matrix=1.00D-08 within 128 cycles.
 Requested convergence on MAX density matrix=1.00D-06.
 Requested convergence on             energy=1.00D-06.
 No special actions if energy rises.
 Fock matrices will be formed incrementally for  20 cycles.
 Integral accuracy reduced to 1.0D-05 until final iterations.

 Cycle   1  Pass 0  IDiag  1:
 FoFJK:  IHMeth= 1 ICntrl=       0 DoSepK=F KAlg= 0 I1Cent=           0 FoldK=F
 IRaf= 990000000 NMat=       1 IRICut=       1 DoRegI=T DoRafI=F ISym2E= 0 IDoP0=0 IntGTp=1.
 FoFCou: FMM=F IPFlag=           0 FMFlag=      100000 FMFlg1=           0
         NFxFlg=           0 DoJE=F BraDBF=F KetDBF=F FulRan=T
         wScrn=  0.000000 ICntrl=         0 IOpCl=  0 I1Cent=           0 NGrid=           0
         NMat0=    1 NMatS0=      1 NMatT0=    0 NMatD0=    1 NMtDS0=    0 NMtDT0=    0
 Symmetry not used in FoFCou.
 E= -460.824167175843    
 DIIS: error= 6.22D-02 at cycle   1 NSaved=   1.
 NSaved= 1 IEnMin= 1 EnMin= -460.824167175843     IErMin= 1 ErrMin= 6.22D-02
 ErrMax= 6.22D-02  0.00D+00 EMaxC= 1.00D-01 BMatC= 2.61D-01 BMatP= 2.61D-01
 IDIUse=3 WtCom= 3.78D-01 WtEn= 6.22D-01
 Coeff-Com:  0.100D+01
 Coeff-En:   0.100D+01
 Coeff:      0.100D+01
 Gap=     0.289 Goal=   None    Shift=    0.000
 GapD=    0.289 DampG=1.000 DampE=0.500 DampFc=0.5000 IDamp=-1.
 Damping current iteration by 5.00D-01
 RMSDP=1.20D-02 MaxDP=1.61D-01              OVMax= 2.01D-01

 Cycle   2  Pass 0  IDiag  1:
 RMSU=  5.94D-03    CP:  9.77D-01
 E= -460.950780759690     Delta-E=       -0.126613583847 Rises=F Damp=T
 DIIS: error= 1.10D-02 at cycle   2 NSaved=   2.
 NSaved= 2 IEnMin= 2 EnMin= -460.950780759690     IErMin= 2 ErrMin= 1.10D-02
 ErrMax= 1.10D-02  0.00D+00 EMaxC= 1.00D-01 BMatC= 6.04D-03 BMatP= 2.61D-01
 IDIUse=3 WtCom= 8.90D-01 WtEn= 1.10D-01
 Coeff-Com:  0.568D-01 0.943D+00
 Coeff-En:   0.939D-01 0.906D+00
 Coeff:      0.609D-01 0.939D+00
 Gap=     0.255 Goal=   None    Shift=    0.000
 RMSDP=1.81D-03 MaxDP=6.18D-02 DE=-1.27D-01 OVMax= 1.11D-01

 Cycle   3  Pass 0  IDiag  1:
 RMSU=  1.81D-03    CP:  9.75D-01  1.00D+00
 E= -461.093409963942     Delta-E=       -0.142629204251 Rises=F Damp=F
 DIIS: error= 2.04D-03 at cycle   3 NSaved=   3.
 NSaved= 3 IEnMin= 3 EnMin= -461.093409963942     IErMin= 3 ErrMin= 2.04D-03
 ErrMax= 2.04D-03  0.00D+00 EMaxC= 1.00D-01 BMatC= 2.51D-04 BMatP= 6.04D-03
 IDIUse=3 WtCom= 9.80D-01 WtEn= 2.04D-02
 Coeff-Com:  0.740D-02 0.767D-01 0.916D+00
 Coeff-En:   0.000D+00 0.000D+00 0.100D+01
 Coeff:      0.724D-02 0.752D-01 0.918D+00
 Gap=     0.262 Goal=   None    Shift=    0.000
 RMSDP=6.15D-04 MaxDP=1.54D-02 DE=-1.43D-01 OVMax= 1.15D-02

 Cycle   4  Pass 0  IDiag  1:
 RMSU=  4.77D-04    CP:  9.76D-01  9.83D-01  7.94D-01
 E= -461.093636146150     Delta-E=       -0.000226182208 Rises=F Damp=F
 DIIS: error= 1.05D-03 at cycle   4 NSaved=   4.
 NSaved= 4 IEnMin= 4 EnMin= -461.093636146150     IErMin= 4 ErrMin= 1.05D-03
 ErrMax= 1.05D-03  0.00D+00 EMaxC= 1.00D-01 BMatC= 7.06D-05 BMatP= 2.51D-04
 IDIUse=3 WtCom= 9.89D-01 WtEn= 1.05D-02
 Coeff-Com:  0.246D-02-0.341D-02 0.341D+00 0.660D+00
 Coeff-En:   0.000D+00 0.000D+00 0.111D+00 0.889D+00
 Coeff:      0.244D-02-0.337D-02 0.338D+00 0.662D+00
 Gap=     0.259 Goal=   None    Shift=    0.000
 RMSDP=2.55D-04 MaxDP=6.29D-03 DE=-2.26D-04 OVMax= 4.43D-03

 Cycle   5  Pass 0  IDiag  1:
 RMSU=  5.40D-05    CP:  9.75D-01  9.88D-01  8.81D-01  6.02D-01
 E= -461.093728463014     Delta-E=       -0.000092316864 Rises=F Damp=F
 DIIS: error= 8.44D-05 at cycle   5 NSaved=   5.
 NSaved= 5 IEnMin= 5 EnMin= -461.093728463014     IErMin= 5 ErrMin= 8.44D-05
 ErrMax= 8.44D-05  0.00D+00 EMaxC= 1.00D-01 BMatC= 4.82D-07 BMatP= 7.06D-05
 IDIUse=1 WtCom= 1.00D+00 WtEn= 0.00D+00
 Coeff-Com:  0.682D-03-0.234D-02 0.606D-01 0.156D+00 0.785D+00
 Coeff:      0.682D-03-0.234D-02 0.606D-01 0.156D+00 0.785D+00
 Gap=     0.259 Goal=   None    Shift=    0.000
 RMSDP=1.23D-05 MaxDP=1.73D-04 DE=-9.23D-05 OVMax= 1.97D-04

 Cycle   6  Pass 0  IDiag  1:
 RMSU=  9.16D-06    CP:  9.75D-01  9.88D-01  8.80D-01  6.18D-01  9.50D-01
 E= -461.093729008748     Delta-E=       -0.000000545735 Rises=F Damp=F
 DIIS: error= 1.03D-05 at cycle   6 NSaved=   6.
 NSaved= 6 IEnMin= 6 EnMin= -461.093729008748     IErMin= 6 ErrMin= 1.03D-05
 ErrMax= 1.03D-05  0.00D+00 EMaxC= 1.00D-01 BMatC= 1.16D-08 BMatP= 4.82D-07
 IDIUse=1 WtCom= 1.00D+00 WtEn= 0.00D+00
 Coeff-Com:  0.112D-03-0.325D-03-0.186D-03 0.924D-02 0.122D+00 0.869D+00
 Coeff:      0.112D-03-0.325D-03-0.186D-03 0.924D-02 0.122D+00 0.869D+00
 Gap=     0.259 Goal=   None    Shift=    0.000
 RMSDP=3.05D-06 MaxDP=1.20D-04 DE=-5.46D-07 OVMax= 4.84D-05

 Initial convergence to 1.0D-05 achieved.  Increase integral accuracy.
 Cycle   7  Pass 1  IDiag  1:
 E= -461.093720278438     Delta-E=        0.000008730310 Rises=F Damp=F
 DIIS: error= 1.00D-05 at cycle   1 NSaved=   1.
 NSaved= 1 IEnMin= 1 EnMin= -461.093720278438     IErMin= 1 ErrMin= 1.00D-05
 ErrMax= 1.00D-05  0.00D+00 EMaxC= 1.00D-01 BMatC= 4.53D-09 BMatP= 4.53D-09
 IDIUse=1 WtCom= 1.00D+00 WtEn= 0.00D+00
 Coeff-Com:  0.100D+01
 Coeff:      0.100D+01
 Gap=     0.259 Goal=   None    Shift=    0.000
 RMSDP=3.05D-06 MaxDP=1.20D-04 DE= 8.73D-06 OVMax= 6.88D-05

 Cycle   8  Pass 1  IDiag  1:
 RMSU=  3.96D-06    CP:  1.00D+00
 E= -461.093720280960     Delta-E=       -0.000000002522 Rises=F Damp=F
 DIIS: error= 4.80D-06 at cycle   2 NSaved=   2.
 NSaved= 2 IEnMin= 2 EnMin= -461.093720280960     IErMin= 2 ErrMin= 4.80D-06
 ErrMax= 4.80D-06  0.00D+00 EMaxC= 1.00D-01 BMatC= 3.58D-09 BMatP= 4.53D-09
 IDIUse=1 WtCom= 1.00D+00 WtEn= 0.00D+00
 Coeff-Com:  0.469D+00 0.531D+00
 Coeff:      0.469D+00 0.531D+00
 Gap=     0.259 Goal=   None    Shift=    0.000
 RMSDP=1.27D-06 MaxDP=4.57D-05 DE=-2.52D-09 OVMax= 2.10D-05

 Cycle   9  Pass 1  IDiag  1:
 RMSU=  7.73D-07    CP:  1.00D+00  7.48D-01
 E= -461.093720285349     Delta-E=       -0.000000004390 Rises=F Damp=F
 DIIS: error= 3.78D-07 at cycle   3 NSaved=   3.
 NSaved= 3 IEnMin= 3 EnMin= -461.093720285349     IErMin= 3 ErrMin= 3.78D-07
 ErrMax= 3.78D-07  0.00D+00 EMaxC= 1.00D-01 BMatC= 1.19D-11 BMatP= 3.58D-09
 IDIUse=1 WtCom= 1.00D+00 WtEn= 0.00D+00
 Coeff-Com: -0.622D-03 0.440D-01 0.957D+00
 Coeff:     -0.622D-03 0.440D-01 0.957D+00
 Gap=     0.259 Goal=   None    Shift=    0.000
 RMSDP=1.03D-07 MaxDP=2.50D-06 DE=-4.39D-09 OVMax= 2.19D-06

 Cycle  10  Pass 1  IDiag  1:
 RMSU=  6.56D-08    CP:  1.00D+00  7.68D-01  1.03D+00
 E= -461.093720285366     Delta-E=       -0.000000000016 Rises=F Damp=F
 DIIS: error= 6.68D-08 at cycle   4 NSaved=   4.
 NSaved= 4 IEnMin= 4 EnMin= -461.093720285366     IErMin= 4 ErrMin= 6.68D-08
 ErrMax= 6.68D-08  0.00D+00 EMaxC= 1.00D-01 BMatC= 3.68D-13 BMatP= 1.19D-11
 IDIUse=1 WtCom= 1.00D+00 WtEn= 0.00D+00
 Coeff-Com: -0.638D-02 0.394D-03 0.187D+00 0.819D+00
 Coeff:     -0.638D-02 0.394D-03 0.187D+00 0.819D+00
 Gap=     0.259 Goal=   None    Shift=    0.000
 RMSDP=1.36D-08 MaxDP=2.44D-07 DE=-1.64D-11 OVMax= 2.40D-07

 Cycle  11  Pass 1  IDiag  1:
 RMSU=  1.04D-08    CP:  1.00D+00  7.70D-01  1.03D+00  9.48D-01
 E= -461.093720285363     Delta-E=        0.000000000003 Rises=F Damp=F
 DIIS: error= 1.15D-08 at cycle   5 NSaved=   5.
 NSaved= 5 IEnMin= 4 EnMin= -461.093720285366     IErMin= 5 ErrMin= 1.15D-08
 ErrMax= 1.15D-08  0.00D+00 EMaxC= 1.00D-01 BMatC= 1.03D-14 BMatP= 3.68D-13
 IDIUse=1 WtCom= 1.00D+00 WtEn= 0.00D+00
 Coeff-Com: -0.113D-02-0.101D-02 0.136D-01 0.132D+00 0.856D+00
 Coeff:     -0.113D-02-0.101D-02 0.136D-01 0.132D+00 0.856D+00
 Gap=     0.259 Goal=   None    Shift=    0.000
 RMSDP=3.35D-09 MaxDP=6.55D-08 DE= 2.96D-12 OVMax= 5.89D-08

 SCF Done:  E(RB3LYP) =  -461.093720285     A.U. after   11 cycles
            NFock= 11  Conv=0.34D-08     -V/T= 2.0046
 KE= 4.589875288126D+02 PE=-1.443463737202D+03 EE= 3.456413155898D+02
 Leave Link  502 at Wed Oct 30 13:44:48 2019, MaxMem=   140000000 cpu:              82.5 elap:               3.5
 (Enter /usr/g16/l601.exe)
 Copying SCF densities to generalized density rwf, IOpCl= 0 IROHF=0.

 **********************************************************************

            Population analysis using the SCF density.

 **********************************************************************

 Orbital symmetries:
       Occupied  (A) (A) (A) (A) (A) (A) (A) (A) (A) (A) (A) (A)
                 (A) (A) (A) (A) (A) (A) (A) (A) (A)
       Virtual   (A) (A) (A) (A) (A) (A) (A) (A) (A) (A) (A) (A)
                 (A) (A) (A) (A) (A) (A) (A) (A) (A) (A) (A) (A)
                 (A) (A) (A) (A) (A) (A) (A) (A) (A) (A) (A) (A)
                 (A) (A) (A) (A) (A) (A) (A) (A) (A) (A) (A) (A)
                 (A) (A) (A) (A) (A) (A) (A) (A) (A) (A) (A) (A)
                 (A)
 The electronic state is 1-A.
 Alpha  occ. eigenvalues --  -77.05353 -10.17382 -10.17382 -10.17382  -6.52439
 Alpha  occ. eigenvalues --   -4.68716  -4.68716  -4.68091  -0.76064  -0.69907
 Alpha  occ. eigenvalues --   -0.69907  -0.52173  -0.43501  -0.43103  -0.43103
 Alpha  occ. eigenvalues --   -0.40533  -0.40533  -0.39747  -0.33494  -0.33494
 Alpha  occ. eigenvalues --   -0.17425
 Alpha virt. eigenvalues --    0.08514   0.09715   0.09715   0.13423   0.14030
 Alpha virt. eigenvalues --    0.14030   0.15752   0.17476   0.17476   0.19431
 Alpha virt. eigenvalues --    0.19431   0.20496   0.36012   0.39361   0.39361
 Alpha virt. eigenvalues --    0.41535   0.44774   0.44774   0.61826   0.61826
 Alpha virt. eigenvalues --    0.61902   0.65810   0.71298   0.71298   0.76848
 Alpha virt. eigenvalues --    0.79238   0.82478   0.82478   0.89164   0.89164
 Alpha virt. eigenvalues --    0.90541   0.91254   0.93565   0.93565   0.95277
 Alpha virt. eigenvalues --    0.95277   0.97054   1.05428   1.05428   1.28988
 Alpha virt. eigenvalues --    1.28988   1.31528   1.64699   1.69957   1.69957
 Alpha virt. eigenvalues --    1.78693   1.78693   1.82722   2.10442   2.25054
 Alpha virt. eigenvalues --    2.25054   2.27342   2.29448   2.29448   2.30047
 Alpha virt. eigenvalues --    2.30306   2.30306   3.55700   4.16987   4.23287
 Alpha virt. eigenvalues --    4.23287
          Condensed to atoms (all electrons):
               1          2          3          4          5          6
     1  P   14.013321   0.330455  -0.029521  -0.029521  -0.047211   0.330456
     2  C    0.330455   5.245206   0.380574   0.380575   0.342414  -0.026655
     3  H   -0.029521   0.380574   0.519228  -0.020796  -0.030995   0.001969
     4  H   -0.029521   0.380575  -0.020796   0.519228  -0.030995  -0.000273
     5  H   -0.047211   0.342414  -0.030995  -0.030995   0.611878  -0.005573
     6  C    0.330456  -0.026655   0.001969  -0.000273  -0.005573   5.245202
     7  H   -0.029521  -0.000273   0.000014   0.001420  -0.000437   0.380575
     8  H   -0.029521   0.001969  -0.000037   0.000014  -0.000089   0.380574
     9  H   -0.047211  -0.005573  -0.000089  -0.000437   0.005744   0.342414
    10  C    0.330456  -0.026655  -0.000273   0.001969  -0.005573  -0.026654
    11  H   -0.029521   0.001969   0.000014  -0.000037  -0.000089  -0.000273
    12  H   -0.029521  -0.000273   0.001420   0.000014  -0.000437   0.001969
    13  H   -0.047211  -0.005573  -0.000437  -0.000089   0.005744  -0.005573
               7          8          9         10         11         12
     1  P   -0.029521  -0.029521  -0.047211   0.330456  -0.029521  -0.029521
     2  C   -0.000273   0.001969  -0.005573  -0.026655   0.001969  -0.000273
     3  H    0.000014  -0.000037  -0.000089  -0.000273   0.000014   0.001420
     4  H    0.001420   0.000014  -0.000437   0.001969  -0.000037   0.000014
     5  H   -0.000437  -0.000089   0.005744  -0.005573  -0.000089  -0.000437
     6  C    0.380575   0.380574   0.342414  -0.026654  -0.000273   0.001969
     7  H    0.519228  -0.020796  -0.030995   0.001969   0.000014  -0.000037
     8  H   -0.020796   0.519228  -0.030995  -0.000273   0.001420   0.000014
     9  H   -0.030995  -0.030995   0.611880  -0.005573  -0.000437  -0.000089
    10  C    0.001969  -0.000273  -0.005573   5.245202   0.380574   0.380575
    11  H    0.000014   0.001420  -0.000437   0.380574   0.519228  -0.020796
    12  H   -0.000037   0.000014  -0.000089   0.380575  -0.020796   0.519228
    13  H   -0.000089  -0.000437   0.005744   0.342414  -0.030995  -0.030995
              13
     1  P   -0.047211
     2  C   -0.005573
     3  H   -0.000437
     4  H   -0.000089
     5  H    0.005744
     6  C   -0.005573
     7  H   -0.000089
     8  H   -0.000437
     9  H    0.005744
    10  C    0.342414
    11  H   -0.030995
    12  H   -0.030995
    13  H    0.611880
 Mulliken charges:
               1
     1  P    0.314070
     2  C   -0.618161
     3  H    0.178927
     4  H    0.178927
     5  H    0.155617
     6  C   -0.618159
     7  H    0.178927
     8  H    0.178927
     9  H    0.155616
    10  C   -0.618159
    11  H    0.178927
    12  H    0.178927
    13  H    0.155616
 Sum of Mulliken charges =  -0.00000
 Mulliken charges with hydrogens summed into heavy atoms:
               1
     1  P    0.314070
     2  C   -0.104691
     6  C   -0.104690
    10  C   -0.104690
 Electronic spatial extent (au):  <R**2>=            448.0357
 Charge=             -0.0000 electrons
 Dipole moment (field-independent basis, Debye):
    X=             -1.7095    Y=             -0.0000    Z=             -0.0031  Tot=              1.7095
 Quadrupole moment (field-independent basis, Debye-Ang):
   XX=            -38.1359   YY=            -32.0611   ZZ=            -32.0611
   XY=             -0.0000   XZ=             -0.0111   YZ=              0.0000
 Traceless Quadrupole moment (field-independent basis, Debye-Ang):
   XX=             -4.0499   YY=              2.0249   ZZ=              2.0249
   XY=             -0.0000   XZ=             -0.0111   YZ=              0.0000
 Octapole moment (field-independent basis, Debye-Ang**2):
  XXX=             -9.4282  YYY=             -1.9097  ZZZ=              0.0077  XYY=              2.0825
  XXY=             -0.0000  XXZ=             -0.0249  XZZ=              2.0825  YZZ=              1.9097
  YYZ=              0.0075  XYZ=             -0.0035
 Hexadecapole moment (field-independent basis, Debye-Ang**3):
 XXXX=            -92.8893 YYYY=           -261.0789 ZZZZ=           -261.0785 XXXY=              0.0000
 XXXZ=              0.1635 YYYX=              0.6394 YYYZ=              0.0012 ZZZX=              0.1452
 ZZZY=             -0.0035 XXYY=            -60.7740 XXZZ=            -60.7739 YYZZ=            -87.0262
 XXYZ=              0.0023 YYXZ=              0.0468 ZZXY=             -0.6394
 N-N= 1.777411725138D+02 E-N=-1.443463737697D+03  KE= 4.589875288126D+02
 No NMR shielding tensors so no spin-rotation constants.
 Leave Link  601 at Wed Oct 30 13:44:48 2019, MaxMem=   140000000 cpu:               5.5 elap:               0.2
 (Enter /usr/g16/l701.exe)
 ... and contract with generalized density number  0.
 Compute integral first derivatives.
 R6Disp: Adding Grimme-D3(BJ) dispersion energy 1st derivatives to the gradient.
 Leave Link  701 at Wed Oct 30 13:44:48 2019, MaxMem=   140000000 cpu:               5.5 elap:               0.2
 (Enter /usr/g16/l702.exe)
 L702 exits ... SP integral derivatives will be done elsewhere.
 Leave Link  702 at Wed Oct 30 13:44:48 2019, MaxMem=   140000000 cpu:               2.9 elap:               0.1
 (Enter /usr/g16/l703.exe)
 Integral derivatives from FoFJK, PRISM(SPDF).
 Compute integral first derivatives, UseDBF=F ICtDFT=           0.
 Calling FoFJK, ICntrl=      2127 FMM=F ISym2X=0 I1Cent= 0 IOpClX= 0 NMat=1 NMatS=1 NMatT=0.
 FoFJK:  IHMeth= 1 ICntrl=    2127 DoSepK=F KAlg= 0 I1Cent=           0 FoldK=F
 IRaf=         0 NMat=       1 IRICut=       1 DoRegI=T DoRafI=F ISym2E= 0 IDoP0=0 IntGTp=1.
 FoFCou: FMM=F IPFlag=           0 FMFlag=      100000 FMFlg1=         800
         NFxFlg=           0 DoJE=F BraDBF=F KetDBF=F FulRan=T
         wScrn=  0.000000 ICntrl=      2127 IOpCl=  0 I1Cent=           0 NGrid=           0
         NMat0=    1 NMatS0=      1 NMatT0=    0 NMatD0=    1 NMtDS0=    0 NMtDT0=    0
 Symmetry not used in FoFCou.
 Leave Link  703 at Wed Oct 30 13:44:50 2019, MaxMem=   140000000 cpu:              36.5 elap:               1.5
 (Enter /usr/g16/l716.exe)
 Dipole        =-6.72557945D-01-7.79168317D-07-1.22973081D-03
 ***** Axes restored to original set *****
 -------------------------------------------------------------------
 Center     Atomic                   Forces (Hartrees/Bohr)
 Number     Number              X              Y              Z
 -------------------------------------------------------------------
      1       15          -0.080553551   -0.000001124   -0.000147242
      2        6           0.018378127    0.018954767    0.000045517
      3        1          -0.006477695   -0.007070380    0.012955275
      4        1          -0.006430203   -0.007053733   -0.012987964
      5        1           0.021378121   -0.010025010    0.000032738
      6        6           0.018355035   -0.009489699    0.016442482
      7        1          -0.006430665   -0.007691677   -0.012620454
      8        1          -0.006453749    0.014764748    0.000364389
      9        1           0.021389890    0.005017444   -0.008635135
     10        6           0.018415315   -0.009468909   -0.016387467
     11        1          -0.006452475    0.014765212   -0.000368925
     12        1          -0.006476743   -0.007707931    0.012586878
     13        1           0.021358593    0.005006292    0.008719907
 -------------------------------------------------------------------
 Cartesian Forces:  Max     0.080553551 RMS     0.017402766
 Leave Link  716 at Wed Oct 30 13:44:50 2019, MaxMem=   140000000 cpu:               2.0 elap:               0.1
 (Enter /usr/g16/l103.exe)

 GradGradGradGradGradGradGradGradGradGradGradGradGradGradGradGradGradGrad
 Berny optimization.
 FormGI is forming the generalized inverse of G from B-inverse, IUseBI=4.
 Internal  Forces:  Max     0.021378797 RMS     0.010436100
 Search for a local minimum.
 Step number   1 out of a maximum of   61
 All quantities printed in internal units (Hartrees-Bohrs-Radians)
 RMS Force = .10436D-01 SwitMx=.10000D-02 MixMth= 1
 Mixed Optimization -- RFO/linear search
 Second derivative matrix not updated -- first step.
 ITU=  0
     Eigenvalues ---    0.00900   0.00900   0.00900   0.03310   0.07611
     Eigenvalues ---    0.07611   0.07611   0.07611   0.07611   0.07611
     Eigenvalues ---    0.16000   0.16000   0.16000   0.16000   0.16000
     Eigenvalues ---    0.16000   0.16000   0.16000   0.16000   0.16324
     Eigenvalues ---    0.16324   0.24602   0.24602   0.24602   0.37230
     Eigenvalues ---    0.37230   0.37230   0.37230   0.37230   0.37230
     Eigenvalues ---    0.37230   0.37230   0.37230
 RFO step:  Lambda=-3.10831901D-02 EMin= 8.99690627D-03
 Linear search not attempted -- first point.
 Iteration  1 RMS(Cart)=  0.05014018 RMS(Int)=  0.00716635
 Iteration  2 RMS(Cart)=  0.01249317 RMS(Int)=  0.00397240
 Iteration  3 RMS(Cart)=  0.00003341 RMS(Int)=  0.00397217
 Iteration  4 RMS(Cart)=  0.00000041 RMS(Int)=  0.00397217
 ITry= 1 IFail=0 DXMaxC= 3.24D-01 DCOld= 1.00D+10 DXMaxT= 3.00D-01 DXLimC= 3.00D+00 Rises=F
 Variable       Old X    -DE/DX   Delta X   Delta X   Delta X     New X
                                 (Linear)    (Quad)   (Total)
    R1        3.43930   0.01385   0.00000   0.04997   0.04997   3.48927
    R2        3.43930   0.01385   0.00000   0.04998   0.04998   3.48928
    R3        3.43930   0.01385   0.00000   0.04998   0.04998   3.48928
    R4        2.02201   0.01607   0.00000   0.03984   0.03984   2.06185
    R5        2.02201   0.01607   0.00000   0.03984   0.03984   2.06185
    R6        2.02201   0.02138   0.00000   0.05300   0.05300   2.07501
    R7        2.02201   0.01607   0.00000   0.03984   0.03984   2.06185
    R8        2.02201   0.01607   0.00000   0.03984   0.03984   2.06185
    R9        2.02201   0.02137   0.00000   0.05299   0.05299   2.07499
   R10        2.02201   0.01607   0.00000   0.03984   0.03984   2.06185
   R11        2.02201   0.01607   0.00000   0.03984   0.03984   2.06185
   R12        2.02201   0.02137   0.00000   0.05299   0.05299   2.07499
    A1        1.91063  -0.00581   0.00000  -0.09047  -0.10524   1.80539
    A2        1.91063  -0.00581   0.00000  -0.09047  -0.10524   1.80539
    A3        1.91063  -0.00581   0.00000  -0.09049  -0.10526   1.80538
    A4        1.91063  -0.00392   0.00000  -0.02376  -0.02422   1.88641
    A5        1.91063  -0.00392   0.00000  -0.02376  -0.02422   1.88641
    A6        1.91063   0.01615   0.00000   0.09103   0.09089   2.00152
    A7        1.91063  -0.00007   0.00000  -0.01340  -0.01423   1.89640
    A8        1.91063  -0.00412   0.00000  -0.01505  -0.01519   1.89545
    A9        1.91063  -0.00412   0.00000  -0.01505  -0.01519   1.89545
   A10        1.91063  -0.00391   0.00000  -0.02374  -0.02420   1.88644
   A11        1.91063  -0.00391   0.00000  -0.02375  -0.02421   1.88643
   A12        1.91063   0.01614   0.00000   0.09100   0.09086   2.00149
   A13        1.91063  -0.00007   0.00000  -0.01342  -0.01425   1.89638
   A14        1.91063  -0.00412   0.00000  -0.01504  -0.01517   1.89546
   A15        1.91063  -0.00412   0.00000  -0.01505  -0.01519   1.89545
   A16        1.91063  -0.00391   0.00000  -0.02375  -0.02421   1.88643
   A17        1.91063  -0.00391   0.00000  -0.02374  -0.02420   1.88644
   A18        1.91063   0.01614   0.00000   0.09100   0.09086   2.00149
   A19        1.91063  -0.00007   0.00000  -0.01342  -0.01425   1.89638
   A20        1.91063  -0.00412   0.00000  -0.01505  -0.01519   1.89545
   A21        1.91063  -0.00412   0.00000  -0.01504  -0.01517   1.89546
    D1        3.14159  -0.00467   0.00000  -0.08805  -0.08551   3.05608
    D2       -1.04720  -0.00955   0.00000  -0.13357  -0.13043  -1.17762
    D3        1.04720  -0.00711   0.00000  -0.11081  -0.10797   0.93923
    D4        1.04720   0.00955   0.00000   0.13357   0.13043   1.17762
    D5        3.14159   0.00467   0.00000   0.08805   0.08551  -3.05608
    D6       -1.04720   0.00711   0.00000   0.11081   0.10797  -0.93923
    D7        1.04720   0.00955   0.00000   0.13355   0.13041   1.17760
    D8        3.14159   0.00467   0.00000   0.08803   0.08549  -3.05610
    D9       -1.04720   0.00711   0.00000   0.11078   0.10794  -0.93926
   D10        3.14159  -0.00467   0.00000  -0.08806  -0.08552   3.05607
   D11       -1.04720  -0.00955   0.00000  -0.13358  -0.13044  -1.17763
   D12        1.04720  -0.00711   0.00000  -0.11083  -0.10799   0.93921
   D13        3.14159  -0.00467   0.00000  -0.08803  -0.08549   3.05610
   D14       -1.04720  -0.00955   0.00000  -0.13355  -0.13041  -1.17760
   D15        1.04720  -0.00711   0.00000  -0.11078  -0.10794   0.93926
   D16        1.04720   0.00955   0.00000   0.13358   0.13044   1.17763
   D17       -3.14159   0.00467   0.00000   0.08806   0.08552  -3.05608
   D18       -1.04720   0.00711   0.00000   0.11083   0.10799  -0.93921
         Item               Value     Threshold  Converged?
 Maximum Force            0.021379     0.000450     NO 
 RMS     Force            0.010436     0.000300     NO 
 Maximum Displacement     0.324276     0.001800     NO 
 RMS     Displacement     0.057507     0.001200     NO 
 Predicted change in Energy=-1.916546D-02
 Lowest energy point so far.  Saving SCF results.
 GradGradGradGradGradGradGradGradGradGradGradGradGradGradGradGradGradGrad

 Leave Link  103 at Wed Oct 30 13:44:50 2019, MaxMem=   140000000 cpu:              10.9 elap:               0.5
 (Enter /usr/g16/l202.exe)
                          Input orientation:                          
 ---------------------------------------------------------------------
 Center     Atomic      Atomic             Coordinates (Angstroms)
 Number     Number       Type             X           Y           Z
 ---------------------------------------------------------------------
      1         15           0       -0.738827    0.525203   -0.000314
      2          6           0        0.040975   -1.148494    0.000030
      3          1           0       -0.305856   -1.683535    0.885413
      4          1           0       -0.302613   -1.682391   -0.887305
      5          1           0        1.139004   -1.142690    0.002043
      6          6           0        0.043658    1.362985   -1.447797
      7          1           0       -0.299866    0.863210   -2.354815
      8          1           0       -0.301505    2.397846   -1.467465
      9          1           0        1.141670    1.360067   -1.440707
     10          6           0        0.038359    1.361110    1.451102
     11          1           0       -0.306876    2.395946    1.470845
     12          1           0       -0.308478    0.860164    2.356211
     13          1           0        1.136391    1.358199    1.448024
 ---------------------------------------------------------------------
                    Distance matrix (angstroms):
                    1          2          3          4          5
     1  P    0.000000
     2  C    1.846443   0.000000
     3  H    2.418780   1.091083   0.000000
     4  H    2.418782   1.091083   1.772721   0.000000
     5  H    2.511597   1.098046   1.777773   1.777773   0.000000
     6  C    1.846447   2.898920   3.853220   3.115826   3.095194
     7  H    2.418803   3.115834   4.121289   2.938312   3.413028
     8  H    2.418797   3.853228   4.711022   4.121278   4.095109
     9  H    2.511573   3.095179   4.095080   3.413029   2.888828
    10  C    1.846447   2.898918   3.115822   3.853220   3.095190
    11  H    2.418796   3.853226   4.121274   4.711022   4.095106
    12  H    2.418803   3.115833   2.938309   4.121288   3.413024
    13  H    2.511575   3.095180   3.413028   4.095081   2.888826
                    6          7          8          9         10
     6  C    0.000000
     7  H    1.091084   0.000000
     8  H    1.091083   1.772710   0.000000
     9  H    1.098039   1.777775   1.777767   0.000000
    10  C    2.898904   3.853219   3.115825   3.095134   0.000000
    11  H    3.115823   4.121287   2.938316   3.412985   1.091084
    12  H    3.853219   4.711034   4.121288   4.095048   1.091084
    13  H    3.095136   4.095050   3.412988   2.888737   1.098040
                   11         12         13
    11  H    0.000000
    12  H    1.772710   0.000000
    13  H    1.777767   1.777776   0.000000
 Stoichiometry    C3H9P
 Framework group  C1[X(C3H9P)]
 Deg. of freedom    33
 Full point group                 C1      NOp   1
 RotChk:  IX=1 Diff= 2.43D+00
 Largest Abelian subgroup         C1      NOp   1
 Largest concise Abelian subgroup C1      NOp   1
                         Standard orientation:                         
 ---------------------------------------------------------------------
 Center     Atomic      Atomic             Coordinates (Angstroms)
 Number     Number       Type             X           Y           Z
 ---------------------------------------------------------------------
      1         15           0       -0.000007    0.000001    0.530433
      2          6           0       -1.672038    0.074386   -0.249396
      3          1           0       -2.245378   -0.787344    0.095808
      4          1           0       -2.166592    0.983626    0.095805
      5          1           0       -1.666221    0.074125   -1.347426
      6          6           0        0.900444    1.410826   -0.249391
      7          1           0        0.440843    2.338235    0.095781
      8          1           0        1.935141    1.384520    0.095824
      9          1           0        0.897325    1.405875   -1.347414
     10          6           0        0.771602   -1.485213   -0.249391
     11          1           0        1.804547   -1.550893    0.095825
     12          1           0        0.231461   -2.368144    0.095783
     13          1           0        0.768935   -1.480007   -1.347415
 ---------------------------------------------------------------------
 Rotational constants (GHZ):           5.7404945           5.7404345           3.5220342
 Leave Link  202 at Wed Oct 30 13:44:50 2019, MaxMem=   140000000 cpu:               1.3 elap:               0.1
 (Enter /usr/g16/l301.exe)
 Standard basis: 6-31G(d) (6D, 7F)
 Ernie: Thresh=  0.10000D-02 Tol=  0.10000D-05 Strict=F.
 There are    82 symmetry adapted cartesian basis functions of A   symmetry.
 There are    82 symmetry adapted basis functions of A   symmetry.
    82 basis functions,   172 primitive gaussians,    82 cartesian basis functions
    21 alpha electrons       21 beta electrons
       nuclear repulsion energy       176.1979122464 Hartrees.
 IExCor=  402 DFT=T Ex+Corr=B3LYP ExCW=0 ScaHFX=  0.200000
 ScaDFX=  0.800000  0.720000  1.000000  0.810000 ScalE2=  1.000000  1.000000
 IRadAn=      5 IRanWt=     -1 IRanGd=            0 ICorTp=0 IEmpDi=141
 NAtoms=   13 NActive=   13 NUniq=   13 SFac= 1.00D+00 NAtFMM=   60 NAOKFM=F Big=F
 Integral buffers will be    131072 words long.
 Raffenetti 2 integral format.
 Two-electron integral symmetry is turned on.
 R6Disp:  Grimme-D3(BJ) Dispersion energy=       -0.0173378552 Hartrees.
 Nuclear repulsion after empirical dispersion term =      176.1805743912 Hartrees.
 Leave Link  301 at Wed Oct 30 13:44:50 2019, MaxMem=   140000000 cpu:               2.1 elap:               0.1
 (Enter /usr/g16/l302.exe)
 NPDir=0 NMtPBC=     1 NCelOv=     1 NCel=       1 NClECP=     1 NCelD=      1
         NCelK=      1 NCelE2=     1 NClLst=     1 CellRange=     0.0.
 One-electron integrals computed using PRISM.
 One-electron integral symmetry used in STVInt
 NBasis=    82 RedAO= T EigKep=  4.39D-03  NBF=    82
 NBsUse=    82 1.00D-06 EigRej= -1.00D+00 NBFU=    82
 Precomputing XC quadrature grid using
 IXCGrd= 4 IRadAn=           5 IRanWt=          -1 IRanGd=           0 AccXCQ= 0.00D+00.
 Generated NRdTot=       0 NPtTot=           0 NUsed=           0 NTot=          32
 NSgBfM=    82    82    82    82    82 MxSgAt=    13 MxSgA2=    13.
 Leave Link  302 at Wed Oct 30 13:44:51 2019, MaxMem=   140000000 cpu:               9.2 elap:               0.4
 (Enter /usr/g16/l303.exe)
 DipDrv:  MaxL=1.
 Leave Link  303 at Wed Oct 30 13:44:51 2019, MaxMem=   140000000 cpu:               2.5 elap:               0.1
 (Enter /usr/g16/l401.exe)
 Initial guess from the checkpoint file:  "PMe3.chk"
 B after Tr=     0.000000    0.000000   -0.000000
         Rot=    0.511298   -0.488479    0.510366   -0.489375 Ang=-118.50 deg.
 Guess basis will be translated and rotated to current coordinates.
 JPrj=2 DoOrth=T DoCkMO=T.
 Generating alternative initial guess.
 ExpMin= 9.98D-02 ExpMax= 1.94D+04 ExpMxC= 2.91D+03 IAcc=2 IRadAn=         4 AccDes= 0.00D+00
 Harris functional with IExCor=  402 and IRadAn=       4 diagonalized for initial guess.
 HarFok:  IExCor=  402 AccDes= 0.00D+00 IRadAn=         4 IDoV= 1 UseB2=F ITyADJ=14
 ICtDFT=  3500011 ScaDFX=  1.000000  1.000000  1.000000  1.000000
 FoFCou: FMM=F IPFlag=           0 FMFlag=      100000 FMFlg1=           0
         NFxFlg=           0 DoJE=T BraDBF=F KetDBF=T FulRan=T
         wScrn=  0.000000 ICntrl=       500 IOpCl=  0 I1Cent=   200000004 NGrid=           0
         NMat0=    1 NMatS0=      1 NMatT0=    0 NMatD0=    1 NMtDS0=    0 NMtDT0=    0
 Petite list used in FoFCou.
 Harris En= -461.174029747436    
 Leave Link  401 at Wed Oct 30 13:44:51 2019, MaxMem=   140000000 cpu:               8.8 elap:               0.4
 (Enter /usr/g16/l502.exe)
 Integral symmetry usage will be decided dynamically.
 Closed shell SCF:
 Using DIIS extrapolation, IDIIS=  1040.
 NGot=   140000000 LenX=   139983400 LenY=   139976235
 Requested convergence on RMS density matrix=1.00D-08 within 128 cycles.
 Requested convergence on MAX density matrix=1.00D-06.
 Requested convergence on             energy=1.00D-06.
 No special actions if energy rises.
 Fock matrices will be formed incrementally for  20 cycles.
 Integral accuracy reduced to 1.0D-05 until final iterations.

 Cycle   1  Pass 0  IDiag  1:
 FoFJK:  IHMeth= 1 ICntrl=       0 DoSepK=F KAlg= 0 I1Cent=           0 FoldK=F
 IRaf= 990000000 NMat=       1 IRICut=       1 DoRegI=T DoRafI=F ISym2E= 0 IDoP0=0 IntGTp=1.
 FoFCou: FMM=F IPFlag=           0 FMFlag=      100000 FMFlg1=           0
         NFxFlg=           0 DoJE=F BraDBF=F KetDBF=F FulRan=T
         wScrn=  0.000000 ICntrl=         0 IOpCl=  0 I1Cent=           0 NGrid=           0
         NMat0=    1 NMatS0=      1 NMatT0=    0 NMatD0=    1 NMtDS0=    0 NMtDT0=    0
 Symmetry not used in FoFCou.
 E= -461.106381260995    
 DIIS: error= 5.98D-03 at cycle   1 NSaved=   1.
 NSaved= 1 IEnMin= 1 EnMin= -461.106381260995     IErMin= 1 ErrMin= 5.98D-03
 ErrMax= 5.98D-03  0.00D+00 EMaxC= 1.00D-01 BMatC= 3.53D-03 BMatP= 3.53D-03
 IDIUse=3 WtCom= 9.40D-01 WtEn= 5.98D-02
 Coeff-Com:  0.100D+01
 Coeff-En:   0.100D+01
 Coeff:      0.100D+01
 Gap=     1.442 Goal=   None    Shift=    0.000
 GapD=    1.442 DampG=2.000 DampE=1.000 DampFc=2.0000 IDamp=-1.
 RMSDP=1.82D-03 MaxDP=2.96D-02              OVMax= 4.24D-02

 Cycle   2  Pass 0  IDiag  1:
 RMSU=  1.82D-03    CP:  1.00D+00
 E= -461.112314517784     Delta-E=       -0.005933256789 Rises=F Damp=F
 DIIS: error= 3.40D-03 at cycle   2 NSaved=   2.
 NSaved= 2 IEnMin= 2 EnMin= -461.112314517784     IErMin= 2 ErrMin= 3.40D-03
 ErrMax= 3.40D-03  0.00D+00 EMaxC= 1.00D-01 BMatC= 9.95D-04 BMatP= 3.53D-03
 IDIUse=3 WtCom= 9.66D-01 WtEn= 3.40D-02
 Coeff-Com:  0.278D+00 0.722D+00
 Coeff-En:   0.000D+00 0.100D+01
 Coeff:      0.269D+00 0.731D+00
 Gap=     0.282 Goal=   None    Shift=    0.000
 RMSDP=5.72D-04 MaxDP=7.48D-03 DE=-5.93D-03 OVMax= 1.15D-02

 Cycle   3  Pass 0  IDiag  1:
 RMSU=  5.65D-04    CP:  1.00D+00  9.56D-01
 E= -461.112970442564     Delta-E=       -0.000655924781 Rises=F Damp=F
 DIIS: error= 2.19D-03 at cycle   3 NSaved=   3.
 NSaved= 3 IEnMin= 3 EnMin= -461.112970442564     IErMin= 3 ErrMin= 2.19D-03
 ErrMax= 2.19D-03  0.00D+00 EMaxC= 1.00D-01 BMatC= 3.98D-04 BMatP= 9.95D-04
 IDIUse=3 WtCom= 9.78D-01 WtEn= 2.19D-02
 Coeff-Com: -0.319D-01 0.384D+00 0.648D+00
 Coeff-En:   0.000D+00 0.279D+00 0.721D+00
 Coeff:     -0.312D-01 0.382D+00 0.649D+00
 Gap=     0.283 Goal=   None    Shift=    0.000
 RMSDP=2.31D-04 MaxDP=2.90D-03 DE=-6.56D-04 OVMax= 4.58D-03

 Cycle   4  Pass 0  IDiag  1:
 RMSU=  7.39D-05    CP:  1.00D+00  1.03D+00  7.02D-01
 E= -461.113381415647     Delta-E=       -0.000410973083 Rises=F Damp=F
 DIIS: error= 9.29D-05 at cycle   4 NSaved=   4.
 NSaved= 4 IEnMin= 4 EnMin= -461.113381415647     IErMin= 4 ErrMin= 9.29D-05
 ErrMax= 9.29D-05  0.00D+00 EMaxC= 1.00D-01 BMatC= 9.08D-07 BMatP= 3.98D-04
 IDIUse=1 WtCom= 1.00D+00 WtEn= 0.00D+00
 Coeff-Com: -0.106D-01 0.856D-01 0.159D+00 0.766D+00
 Coeff:     -0.106D-01 0.856D-01 0.159D+00 0.766D+00
 Gap=     0.283 Goal=   None    Shift=    0.000
 RMSDP=2.88D-05 MaxDP=6.52D-04 DE=-4.11D-04 OVMax= 5.30D-04

 Cycle   5  Pass 0  IDiag  1:
 RMSU=  2.45D-05    CP:  1.00D+00  1.04D+00  7.08D-01  1.00D+00
 E= -461.113382453551     Delta-E=       -0.000001037904 Rises=F Damp=F
 DIIS: error= 2.22D-05 at cycle   5 NSaved=   5.
 NSaved= 5 IEnMin= 5 EnMin= -461.113382453551     IErMin= 5 ErrMin= 2.22D-05
 ErrMax= 2.22D-05  0.00D+00 EMaxC= 1.00D-01 BMatC= 8.31D-08 BMatP= 9.08D-07
 IDIUse=1 WtCom= 1.00D+00 WtEn= 0.00D+00
 Coeff-Com: -0.131D-02 0.269D-02 0.839D-02 0.242D+00 0.748D+00
 Coeff:     -0.131D-02 0.269D-02 0.839D-02 0.242D+00 0.748D+00
 Gap=     0.283 Goal=   None    Shift=    0.000
 RMSDP=5.97D-06 MaxDP=2.25D-04 DE=-1.04D-06 OVMax= 9.48D-05

 Initial convergence to 1.0D-05 achieved.  Increase integral accuracy.
 Cycle   6  Pass 1  IDiag  1:
 E= -461.113383087661     Delta-E=       -0.000000634110 Rises=F Damp=F
 DIIS: error= 6.07D-06 at cycle   1 NSaved=   1.
 NSaved= 1 IEnMin= 1 EnMin= -461.113383087661     IErMin= 1 ErrMin= 6.07D-06
 ErrMax= 6.07D-06  0.00D+00 EMaxC= 1.00D-01 BMatC= 3.89D-09 BMatP= 3.89D-09
 IDIUse=1 WtCom= 1.00D+00 WtEn= 0.00D+00
 Coeff-Com:  0.100D+01
 Coeff:      0.100D+01
 Gap=     0.283 Goal=   None    Shift=    0.000
 RMSDP=5.97D-06 MaxDP=2.25D-04 DE=-6.34D-07 OVMax= 3.21D-05

 Cycle   7  Pass 1  IDiag  1:
 RMSU=  2.34D-06    CP:  1.00D+00
 E= -461.113383089789     Delta-E=       -0.000000002128 Rises=F Damp=F
 DIIS: error= 4.64D-06 at cycle   2 NSaved=   2.
 NSaved= 2 IEnMin= 2 EnMin= -461.113383089789     IErMin= 2 ErrMin= 4.64D-06
 ErrMax= 4.64D-06  0.00D+00 EMaxC= 1.00D-01 BMatC= 2.44D-09 BMatP= 3.89D-09
 IDIUse=1 WtCom= 1.00D+00 WtEn= 0.00D+00
 Coeff-Com:  0.437D+00 0.563D+00
 Coeff:      0.437D+00 0.563D+00
 Gap=     0.283 Goal=   None    Shift=    0.000
 RMSDP=1.03D-06 MaxDP=3.46D-05 DE=-2.13D-09 OVMax= 1.71D-05

 Cycle   8  Pass 1  IDiag  1:
 RMSU=  8.21D-07    CP:  1.00D+00  7.41D-01
 E= -461.113383092769     Delta-E=       -0.000000002980 Rises=F Damp=F
 DIIS: error= 4.75D-07 at cycle   3 NSaved=   3.
 NSaved= 3 IEnMin= 3 EnMin= -461.113383092769     IErMin= 3 ErrMin= 4.75D-07
 ErrMax= 4.75D-07  0.00D+00 EMaxC= 1.00D-01 BMatC= 3.43D-11 BMatP= 2.44D-09
 IDIUse=1 WtCom= 1.00D+00 WtEn= 0.00D+00
 Coeff-Com:  0.194D-01 0.112D+00 0.869D+00
 Coeff:      0.194D-01 0.112D+00 0.869D+00
 Gap=     0.283 Goal=   None    Shift=    0.000
 RMSDP=1.26D-07 MaxDP=3.56D-06 DE=-2.98D-09 OVMax= 2.29D-06

 Cycle   9  Pass 1  IDiag  1:
 RMSU=  6.86D-08    CP:  1.00D+00  7.77D-01  9.25D-01
 E= -461.113383092813     Delta-E=       -0.000000000044 Rises=F Damp=F
 DIIS: error= 1.68D-07 at cycle   4 NSaved=   4.
 NSaved= 4 IEnMin= 4 EnMin= -461.113383092813     IErMin= 4 ErrMin= 1.68D-07
 ErrMax= 1.68D-07  0.00D+00 EMaxC= 1.00D-01 BMatC= 2.02D-12 BMatP= 3.43D-11
 IDIUse=1 WtCom= 1.00D+00 WtEn= 0.00D+00
 Coeff-Com: -0.648D-02 0.192D-01 0.283D+00 0.704D+00
 Coeff:     -0.648D-02 0.192D-01 0.283D+00 0.704D+00
 Gap=     0.283 Goal=   None    Shift=    0.000
 RMSDP=2.78D-08 MaxDP=4.36D-07 DE=-4.41D-11 OVMax= 5.85D-07

 Cycle  10  Pass 1  IDiag  1:
 RMSU=  1.91D-08    CP:  1.00D+00  7.80D-01  9.40D-01  7.84D-01
 E= -461.113383092812     Delta-E=        0.000000000001 Rises=F Damp=F
 DIIS: error= 7.52D-08 at cycle   5 NSaved=   5.
 NSaved= 5 IEnMin= 4 EnMin= -461.113383092813     IErMin= 5 ErrMin= 7.52D-08
 ErrMax= 7.52D-08  0.00D+00 EMaxC= 1.00D-01 BMatC= 4.35D-13 BMatP= 2.02D-12
 IDIUse=1 WtCom= 1.00D+00 WtEn= 0.00D+00
 Coeff-Com: -0.484D-02 0.235D-02 0.918D-01 0.375D+00 0.536D+00
 Coeff:     -0.484D-02 0.235D-02 0.918D-01 0.375D+00 0.536D+00
 Gap=     0.283 Goal=   None    Shift=    0.000
 RMSDP=9.21D-09 MaxDP=1.89D-07 DE= 1.48D-12 OVMax= 2.36D-07

 SCF Done:  E(RB3LYP) =  -461.113383093     A.U. after   10 cycles
            NFock= 10  Conv=0.92D-08     -V/T= 2.0054
 KE= 4.586421848505D+02 PE=-1.440094385999D+03 EE= 3.441582436648D+02
 Leave Link  502 at Wed Oct 30 13:44:55 2019, MaxMem=   140000000 cpu:              77.1 elap:               3.2
 (Enter /usr/g16/l701.exe)
 ... and contract with generalized density number  0.
 Compute integral first derivatives.
 R6Disp: Adding Grimme-D3(BJ) dispersion energy 1st derivatives to the gradient.
 Leave Link  701 at Wed Oct 30 13:44:55 2019, MaxMem=   140000000 cpu:               5.6 elap:               0.2
 (Enter /usr/g16/l702.exe)
 L702 exits ... SP integral derivatives will be done elsewhere.
 Leave Link  702 at Wed Oct 30 13:44:55 2019, MaxMem=   140000000 cpu:               2.9 elap:               0.1
 (Enter /usr/g16/l703.exe)
 Integral derivatives from FoFJK, PRISM(SPDF).
 Compute integral first derivatives, UseDBF=F ICtDFT=           0.
 Calling FoFJK, ICntrl=      2127 FMM=F ISym2X=0 I1Cent= 0 IOpClX= 0 NMat=1 NMatS=1 NMatT=0.
 FoFJK:  IHMeth= 1 ICntrl=    2127 DoSepK=F KAlg= 0 I1Cent=           0 FoldK=F
 IRaf=         0 NMat=       1 IRICut=       1 DoRegI=T DoRafI=F ISym2E= 0 IDoP0=0 IntGTp=1.
 FoFCou: FMM=F IPFlag=           0 FMFlag=      100000 FMFlg1=         800
         NFxFlg=           0 DoJE=F BraDBF=F KetDBF=F FulRan=T
         wScrn=  0.000000 ICntrl=      2127 IOpCl=  0 I1Cent=           0 NGrid=           0
         NMat0=    1 NMatS0=      1 NMatT0=    0 NMatD0=    1 NMtDS0=    0 NMtDT0=    0
 Symmetry not used in FoFCou.
 Leave Link  703 at Wed Oct 30 13:44:57 2019, MaxMem=   140000000 cpu:              35.3 elap:               1.5
 (Enter /usr/g16/l716.exe)
 Dipole        = 6.06543684D-06 1.12671802D-06-5.49917782D-01
 ***** Axes restored to original set *****
 -------------------------------------------------------------------
 Center     Atomic                   Forces (Hartrees/Bohr)
 Number     Number              X              Y              Z
 -------------------------------------------------------------------
      1       15          -0.019860557    0.000002928   -0.000031797
      2        6           0.008226886    0.002968110    0.000012337
      3        1          -0.000827200   -0.002670395    0.001076652
      4        1          -0.000823688   -0.002669582   -0.001081933
      5        1           0.000046194    0.000479037    0.000001823
      6        6           0.008214896   -0.001488206    0.002590386
      7        1          -0.000819454    0.000400557   -0.002852337
      8        1          -0.000822476    0.002271097   -0.001771450
      9        1           0.000052770   -0.000241341    0.000406885
     10        6           0.008222893   -0.001487141   -0.002563487
     11        1          -0.000828621    0.002268618    0.001771094
     12        1          -0.000829209    0.000396419    0.002849273
     13        1           0.000047566   -0.000230102   -0.000407447
 -------------------------------------------------------------------
 Cartesian Forces:  Max     0.019860557 RMS     0.004170241
 Leave Link  716 at Wed Oct 30 13:44:57 2019, MaxMem=   140000000 cpu:               3.4 elap:               0.2
 (Enter /usr/g16/l103.exe)

 GradGradGradGradGradGradGradGradGradGradGradGradGradGradGradGradGradGrad
 Berny optimization.
 Using GEDIIS/GDIIS optimizer.
 FormGI is forming the generalized inverse of G from B-inverse, IUseBI=4.
 Internal  Forces:  Max     0.004511090 RMS     0.002448170
 Search for a local minimum.
 Step number   2 out of a maximum of   61
 All quantities printed in internal units (Hartrees-Bohrs-Radians)
 RMS Force = .24482D-02 SwitMx=.10000D-02 MixMth= 1
 Mixed Optimization -- RFO/linear search
 Update second derivatives using D2CorX and points    1    2
 DE= -1.97D-02 DEPred=-1.92D-02 R= 1.03D+00
 TightC=F SS=  1.41D+00  RLast= 5.52D-01 DXNew= 5.0454D-01 1.6563D+00
 Trust test= 1.03D+00 RLast= 5.52D-01 DXMaxT set to 5.05D-01
 ITU=  1  0
 Use linear search instead of GDIIS.
     Eigenvalues ---    0.00900   0.00900   0.00900   0.04363   0.07037
     Eigenvalues ---    0.07038   0.07038   0.07813   0.07814   0.07920
     Eigenvalues ---    0.13937   0.13937   0.15880   0.16000   0.16000
     Eigenvalues ---    0.16000   0.16000   0.16000   0.16000   0.16000
     Eigenvalues ---    0.18083   0.23752   0.24602   0.24602   0.36501
     Eigenvalues ---    0.37230   0.37230   0.37230   0.37230   0.37230
     Eigenvalues ---    0.37230   0.37230   0.38234
 RFO step:  Lambda=-2.32644863D-03 EMin= 8.99690627D-03
 Quartic linear search produced a step of  0.26259.
 Iteration  1 RMS(Cart)=  0.06094238 RMS(Int)=  0.00367990
 Iteration  2 RMS(Cart)=  0.00562834 RMS(Int)=  0.00258959
 Iteration  3 RMS(Cart)=  0.00001420 RMS(Int)=  0.00258957
 Iteration  4 RMS(Cart)=  0.00000009 RMS(Int)=  0.00258957
 ITry= 1 IFail=0 DXMaxC= 2.12D-01 DCOld= 1.00D+10 DXMaxT= 5.05D-01 DXLimC= 3.00D+00 Rises=F
 Variable       Old X    -DE/DX   Delta X   Delta X   Delta X     New X
                                 (Linear)    (Quad)   (Total)
    R1        3.48927   0.00451   0.01312   0.01065   0.02377   3.51304
    R2        3.48928   0.00451   0.01312   0.01065   0.02377   3.51305
    R3        3.48928   0.00451   0.01312   0.01064   0.02377   3.51305
    R4        2.06185   0.00245   0.01046  -0.00082   0.00964   2.07149
    R5        2.06185   0.00245   0.01046  -0.00082   0.00964   2.07149
    R6        2.07501   0.00005   0.01392  -0.01173   0.00218   2.07719
    R7        2.06185   0.00245   0.01046  -0.00082   0.00964   2.07149
    R8        2.06185   0.00245   0.01046  -0.00082   0.00964   2.07149
    R9        2.07499   0.00006   0.01391  -0.01170   0.00221   2.07720
   R10        2.06185   0.00245   0.01046  -0.00082   0.00964   2.07149
   R11        2.06185   0.00245   0.01046  -0.00082   0.00964   2.07149
   R12        2.07499   0.00005   0.01391  -0.01172   0.00219   2.07718
    A1        1.80539  -0.00323  -0.02763  -0.03559  -0.07249   1.73291
    A2        1.80539  -0.00322  -0.02764  -0.03548  -0.07238   1.73301
    A3        1.80538  -0.00322  -0.02764  -0.03550  -0.07241   1.73297
    A4        1.88641   0.00179  -0.00636   0.01984   0.01334   1.89975
    A5        1.88641   0.00179  -0.00636   0.01984   0.01334   1.89975
    A6        2.00152  -0.00121   0.02387  -0.03262  -0.00877   1.99275
    A7        1.89640  -0.00204  -0.00374  -0.01239  -0.01641   1.87999
    A8        1.89545  -0.00022  -0.00399   0.00282  -0.00118   1.89426
    A9        1.89545  -0.00021  -0.00399   0.00283  -0.00117   1.89428
   A10        1.88644   0.00179  -0.00635   0.01980   0.01331   1.89974
   A11        1.88643   0.00179  -0.00636   0.01984   0.01334   1.89977
   A12        2.00149  -0.00121   0.02386  -0.03255  -0.00870   1.99279
   A13        1.89638  -0.00204  -0.00374  -0.01237  -0.01640   1.87998
   A14        1.89546  -0.00022  -0.00398   0.00277  -0.00123   1.89423
   A15        1.89545  -0.00022  -0.00399   0.00283  -0.00117   1.89428
   A16        1.88643   0.00179  -0.00636   0.01981   0.01332   1.89974
   A17        1.88644   0.00179  -0.00635   0.01981   0.01332   1.89975
   A18        2.00149  -0.00120   0.02386  -0.03250  -0.00866   1.99284
   A19        1.89638  -0.00204  -0.00374  -0.01237  -0.01640   1.87999
   A20        1.89545  -0.00022  -0.00399   0.00276  -0.00124   1.89421
   A21        1.89546  -0.00022  -0.00398   0.00279  -0.00121   1.89425
    D1        3.05608  -0.00255  -0.02245  -0.03411  -0.05452   3.00156
    D2       -1.17762  -0.00303  -0.03425  -0.02743  -0.05940  -1.23702
    D3        0.93923  -0.00279  -0.02835  -0.03076  -0.05695   0.88228
    D4        1.17762   0.00303   0.03425   0.02741   0.05938   1.23701
    D5       -3.05608   0.00255   0.02245   0.03409   0.05450  -3.00158
    D6       -0.93923   0.00279   0.02835   0.03076   0.05695  -0.88227
    D7        1.17760   0.00303   0.03424   0.02762   0.05959   1.23719
    D8       -3.05610   0.00255   0.02245   0.03430   0.05470  -3.00140
    D9       -0.93926   0.00279   0.02834   0.03101   0.05720  -0.88207
   D10        3.05607  -0.00255  -0.02246  -0.03388  -0.05429   3.00178
   D11       -1.17763  -0.00303  -0.03425  -0.02720  -0.05918  -1.23681
   D12        0.93921  -0.00279  -0.02836  -0.03049  -0.05668   0.88252
   D13        3.05610  -0.00255  -0.02245  -0.03398  -0.05438   3.00172
   D14       -1.17760  -0.00304  -0.03424  -0.02730  -0.05927  -1.23687
   D15        0.93926  -0.00279  -0.02834  -0.03062  -0.05680   0.88246
   D16        1.17763   0.00304   0.03425   0.02761   0.05958   1.23722
   D17       -3.05608   0.00255   0.02246   0.03429   0.05470  -3.00138
   D18       -0.93921   0.00280   0.02836   0.03096   0.05716  -0.88205
         Item               Value     Threshold  Converged?
 Maximum Force            0.004511     0.000450     NO 
 RMS     Force            0.002448     0.000300     NO 
 Maximum Displacement     0.212242     0.001800     NO 
 RMS     Displacement     0.064954     0.001200     NO 
 Predicted change in Energy=-2.282000D-03
 Lowest energy point so far.  Saving SCF results.
 GradGradGradGradGradGradGradGradGradGradGradGradGradGradGradGradGradGrad

 Leave Link  103 at Wed Oct 30 13:44:57 2019, MaxMem=   140000000 cpu:               1.9 elap:               0.1
 (Enter /usr/g16/l202.exe)
                          Input orientation:                          
 ---------------------------------------------------------------------
 Center     Atomic      Atomic             Coordinates (Angstroms)
 Number     Number       Type             X           Y           Z
 ---------------------------------------------------------------------
      1         15           0       -0.851111    0.525212   -0.000498
      2          6           0        0.032045   -1.110636    0.000007
      3          1           0       -0.277296   -1.679803    0.884302
      4          1           0       -0.274096   -1.678631   -0.886155
      5          1           0        1.128309   -1.030376    0.002051
      6          6           0        0.034693    1.343986   -1.415042
      7          1           0       -0.271490    0.862362   -2.350943
      8          1           0       -0.272760    2.395002   -1.464641
      9          1           0        1.130839    1.303590   -1.343679
     10          6           0        0.029450    1.342244    1.418320
     11          1           0       -0.278521    2.393088    1.468311
     12          1           0       -0.279871    0.859205    2.352457
     13          1           0        1.125847    1.302377    1.350775
 ---------------------------------------------------------------------
                    Distance matrix (angstroms):
                    1          2          3          4          5
     1  P    0.000000
     2  C    1.859023   0.000000
     3  H    2.444223   1.096185   0.000000
     4  H    2.444230   1.096185   1.770460   0.000000
     5  H    2.517532   1.099201   1.782091   1.782101   0.000000
     6  C    1.859025   2.833291   3.811511   3.084037   2.973507
     7  H    2.444222   3.084124   4.114541   2.932960   3.328435
     8  H    2.444242   3.811509   4.703359   4.114502   3.980879
     9  H    2.517564   2.973437   3.980876   3.328184   2.694141
    10  C    1.859024   2.833415   3.084158   3.811617   2.973657
    11  H    2.444221   3.811621   4.114548   4.703448   3.981105
    12  H    2.444231   3.084087   2.932925   4.114517   3.328348
    13  H    2.517595   2.973821   3.328633   3.981218   2.694587
                    6          7          8          9         10
     6  C    0.000000
     7  H    1.096184   0.000000
     8  H    1.096186   1.770456   0.000000
     9  H    1.099208   1.782074   1.782106   0.000000
    10  C    2.833367   3.811586   3.084006   2.973750   0.000000
    11  H    3.084225   4.114592   2.932959   3.328752   1.096184
    12  H    3.811563   4.703408   4.114482   3.981081   1.096184
    13  H    2.973565   3.981065   3.328138   2.694459   1.099198
                   11         12         13
    11  H    0.000000
    12  H    1.770455   0.000000
    13  H    1.782054   1.782080   0.000000
 Stoichiometry    C3H9P
 Framework group  C1[X(C3H9P)]
 Deg. of freedom    33
 Full point group                 C1      NOp   1
 RotChk:  IX=2 Diff= 1.26D+00
 Largest Abelian subgroup         C1      NOp   1
 Largest concise Abelian subgroup C1      NOp   1
                         Standard orientation:                         
 ---------------------------------------------------------------------
 Center     Atomic      Atomic             Coordinates (Angstroms)
 Number     Number       Type             X           Y           Z
 ---------------------------------------------------------------------
      1         15           0        0.000027   -0.000022    0.602098
      2          6           0       -1.048489   -1.255641   -0.281080
      3          1           0       -0.733408   -2.259471    0.026606
      4          1           0       -2.092399   -1.124714    0.026702
      5          1           0       -0.997075   -1.193990   -1.377345
      6          6           0       -0.563255    1.535790   -0.281060
      7          1           0       -1.590052    1.764906    0.026859
      8          1           0        0.072192    2.374383    0.026501
      9          1           0       -0.535875    1.460382   -1.377336
     10          6           0        1.611700   -0.280122   -0.281091
     11          1           0        2.323525    0.494556    0.026802
     12          1           0        2.020218   -1.249725    0.026484
     13          1           0        1.532735   -0.266164   -1.377360
 ---------------------------------------------------------------------
 Rotational constants (GHZ):           5.7151702           5.7147363           3.6681412
 Leave Link  202 at Wed Oct 30 13:44:57 2019, MaxMem=   140000000 cpu:               0.6 elap:               0.0
 (Enter /usr/g16/l301.exe)
 Standard basis: 6-31G(d) (6D, 7F)
 Ernie: Thresh=  0.10000D-02 Tol=  0.10000D-05 Strict=F.
 There are    82 symmetry adapted cartesian basis functions of A   symmetry.
 There are    82 symmetry adapted basis functions of A   symmetry.
    82 basis functions,   172 primitive gaussians,    82 cartesian basis functions
    21 alpha electrons       21 beta electrons
       nuclear repulsion energy       176.2662900181 Hartrees.
 IExCor=  402 DFT=T Ex+Corr=B3LYP ExCW=0 ScaHFX=  0.200000
 ScaDFX=  0.800000  0.720000  1.000000  0.810000 ScalE2=  1.000000  1.000000
 IRadAn=      5 IRanWt=     -1 IRanGd=            0 ICorTp=0 IEmpDi=141
 NAtoms=   13 NActive=   13 NUniq=   13 SFac= 1.00D+00 NAtFMM=   60 NAOKFM=F Big=F
 Integral buffers will be    131072 words long.
 Raffenetti 2 integral format.
 Two-electron integral symmetry is turned on.
 R6Disp:  Grimme-D3(BJ) Dispersion energy=       -0.0176119966 Hartrees.
 Nuclear repulsion after empirical dispersion term =      176.2486780215 Hartrees.
 Leave Link  301 at Wed Oct 30 13:44:57 2019, MaxMem=   140000000 cpu:               2.9 elap:               0.1
 (Enter /usr/g16/l302.exe)
 NPDir=0 NMtPBC=     1 NCelOv=     1 NCel=       1 NClECP=     1 NCelD=      1
         NCelK=      1 NCelE2=     1 NClLst=     1 CellRange=     0.0.
 One-electron integrals computed using PRISM.
 One-electron integral symmetry used in STVInt
 NBasis=    82 RedAO= T EigKep=  3.76D-03  NBF=    82
 NBsUse=    82 1.00D-06 EigRej= -1.00D+00 NBFU=    82
 Precomputing XC quadrature grid using
 IXCGrd= 4 IRadAn=           5 IRanWt=          -1 IRanGd=           0 AccXCQ= 0.00D+00.
 Generated NRdTot=       0 NPtTot=           0 NUsed=           0 NTot=          32
 NSgBfM=    82    82    82    82    82 MxSgAt=    13 MxSgA2=    13.
 Leave Link  302 at Wed Oct 30 13:44:57 2019, MaxMem=   140000000 cpu:               8.3 elap:               0.4
 (Enter /usr/g16/l303.exe)
 DipDrv:  MaxL=1.
 Leave Link  303 at Wed Oct 30 13:44:58 2019, MaxMem=   140000000 cpu:               3.2 elap:               0.1
 (Enter /usr/g16/l401.exe)
 Initial guess from the checkpoint file:  "PMe3.chk"
 B after Tr=    -0.000000   -0.000000    0.000000
         Rot=    0.896152   -0.000013   -0.000007   -0.443748 Ang= -52.69 deg.
 Guess basis will be translated and rotated to current coordinates.
 JPrj=2 DoOrth=T DoCkMO=T.
 Generating alternative initial guess.
 ExpMin= 9.98D-02 ExpMax= 1.94D+04 ExpMxC= 2.91D+03 IAcc=2 IRadAn=         4 AccDes= 0.00D+00
 Harris functional with IExCor=  402 and IRadAn=       4 diagonalized for initial guess.
 HarFok:  IExCor=  402 AccDes= 0.00D+00 IRadAn=         4 IDoV= 1 UseB2=F ITyADJ=14
 ICtDFT=  3500011 ScaDFX=  1.000000  1.000000  1.000000  1.000000
 FoFCou: FMM=F IPFlag=           0 FMFlag=      100000 FMFlg1=           0
         NFxFlg=           0 DoJE=T BraDBF=F KetDBF=T FulRan=T
         wScrn=  0.000000 ICntrl=       500 IOpCl=  0 I1Cent=   200000004 NGrid=           0
         NMat0=    1 NMatS0=      1 NMatT0=    0 NMatD0=    1 NMtDS0=    0 NMtDT0=    0
 Petite list used in FoFCou.
 Harris En= -461.175202622780    
 Leave Link  401 at Wed Oct 30 13:44:58 2019, MaxMem=   140000000 cpu:               7.8 elap:               0.3
 (Enter /usr/g16/l502.exe)
 Integral symmetry usage will be decided dynamically.
 Closed shell SCF:
 Using DIIS extrapolation, IDIIS=  1040.
 NGot=   140000000 LenX=   139983400 LenY=   139976235
 Requested convergence on RMS density matrix=1.00D-08 within 128 cycles.
 Requested convergence on MAX density matrix=1.00D-06.
 Requested convergence on             energy=1.00D-06.
 No special actions if energy rises.
 Fock matrices will be formed incrementally for  20 cycles.
 Integral accuracy reduced to 1.0D-05 until final iterations.

 Cycle   1  Pass 0  IDiag  1:
 FoFJK:  IHMeth= 1 ICntrl=       0 DoSepK=F KAlg= 0 I1Cent=           0 FoldK=F
 IRaf= 990000000 NMat=       1 IRICut=       1 DoRegI=T DoRafI=F ISym2E= 0 IDoP0=0 IntGTp=1.
 FoFCou: FMM=F IPFlag=           0 FMFlag=      100000 FMFlg1=           0
         NFxFlg=           0 DoJE=F BraDBF=F KetDBF=F FulRan=T
         wScrn=  0.000000 ICntrl=         0 IOpCl=  0 I1Cent=           0 NGrid=           0
         NMat0=    1 NMatS0=      1 NMatT0=    0 NMatD0=    1 NMtDS0=    0 NMtDT0=    0
 Symmetry not used in FoFCou.
 E= -461.111415526047    
 DIIS: error= 5.56D-03 at cycle   1 NSaved=   1.
 NSaved= 1 IEnMin= 1 EnMin= -461.111415526047     IErMin= 1 ErrMin= 5.56D-03
 ErrMax= 5.56D-03  0.00D+00 EMaxC= 1.00D-01 BMatC= 1.98D-03 BMatP= 1.98D-03
 IDIUse=3 WtCom= 9.44D-01 WtEn= 5.56D-02
 Coeff-Com:  0.100D+01
 Coeff-En:   0.100D+01
 Coeff:      0.100D+01
 Gap=     1.435 Goal=   None    Shift=    0.000
 GapD=    1.435 DampG=2.000 DampE=1.000 DampFc=2.0000 IDamp=-1.
 RMSDP=1.04D-03 MaxDP=9.47D-03              OVMax= 2.45D-02

 Cycle   2  Pass 0  IDiag  1:
 RMSU=  1.04D-03    CP:  1.00D+00
 E= -461.115566833762     Delta-E=       -0.004151307715 Rises=F Damp=F
 DIIS: error= 1.26D-03 at cycle   2 NSaved=   2.
 NSaved= 2 IEnMin= 2 EnMin= -461.115566833762     IErMin= 2 ErrMin= 1.26D-03
 ErrMax= 1.26D-03  0.00D+00 EMaxC= 1.00D-01 BMatC= 1.29D-04 BMatP= 1.98D-03
 IDIUse=3 WtCom= 9.87D-01 WtEn= 1.26D-02
 Coeff-Com:  0.238D-01 0.976D+00
 Coeff-En:   0.000D+00 0.100D+01
 Coeff:      0.235D-01 0.976D+00
 Gap=     0.286 Goal=   None    Shift=    0.000
 RMSDP=2.72D-04 MaxDP=3.41D-03 DE=-4.15D-03 OVMax= 5.10D-03

 Cycle   3  Pass 0  IDiag  1:
 RMSU=  2.69D-04    CP:  1.00D+00  1.04D+00
 E= -461.115552097440     Delta-E=        0.000014736322 Rises=F Damp=F
 DIIS: error= 1.40D-03 at cycle   3 NSaved=   3.
 NSaved= 3 IEnMin= 2 EnMin= -461.115566833762     IErMin= 2 ErrMin= 1.26D-03
 ErrMax= 1.40D-03  0.00D+00 EMaxC= 1.00D-01 BMatC= 1.63D-04 BMatP= 1.29D-04
 IDIUse=3 WtCom= 2.11D-01 WtEn= 7.89D-01
 Coeff-Com: -0.483D-01 0.555D+00 0.493D+00
 Coeff-En:   0.000D+00 0.524D+00 0.476D+00
 Coeff:     -0.102D-01 0.531D+00 0.480D+00
 Gap=     0.286 Goal=   None    Shift=    0.000
 RMSDP=1.44D-04 MaxDP=1.94D-03 DE= 1.47D-05 OVMax= 3.10D-03

 Cycle   4  Pass 0  IDiag  1:
 RMSU=  4.40D-05    CP:  1.00D+00  1.08D+00  5.15D-01
 E= -461.115719783334     Delta-E=       -0.000167685894 Rises=F Damp=F
 DIIS: error= 8.25D-05 at cycle   4 NSaved=   4.
 NSaved= 4 IEnMin= 4 EnMin= -461.115719783334     IErMin= 4 ErrMin= 8.25D-05
 ErrMax= 8.25D-05  0.00D+00 EMaxC= 1.00D-01 BMatC= 5.79D-07 BMatP= 1.29D-04
 IDIUse=1 WtCom= 1.00D+00 WtEn= 0.00D+00
 Coeff-Com: -0.773D-02 0.383D-01 0.830D-01 0.886D+00
 Coeff:     -0.773D-02 0.383D-01 0.830D-01 0.886D+00
 Gap=     0.286 Goal=   None    Shift=    0.000
 RMSDP=1.29D-05 MaxDP=2.14D-04 DE=-1.68D-04 OVMax= 2.51D-04

 Cycle   5  Pass 0  IDiag  1:
 RMSU=  7.37D-06    CP:  1.00D+00  1.08D+00  5.50D-01  1.04D+00
 E= -461.115720424237     Delta-E=       -0.000000640903 Rises=F Damp=F
 DIIS: error= 1.39D-05 at cycle   5 NSaved=   5.
 NSaved= 5 IEnMin= 5 EnMin= -461.115720424237     IErMin= 5 ErrMin= 1.39D-05
 ErrMax= 1.39D-05  0.00D+00 EMaxC= 1.00D-01 BMatC= 2.99D-08 BMatP= 5.79D-07
 IDIUse=1 WtCom= 1.00D+00 WtEn= 0.00D+00
 Coeff-Com: -0.102D-02-0.719D-02 0.122D-01 0.348D+00 0.648D+00
 Coeff:     -0.102D-02-0.719D-02 0.122D-01 0.348D+00 0.648D+00
 Gap=     0.286 Goal=   None    Shift=    0.000
 RMSDP=3.87D-06 MaxDP=1.32D-04 DE=-6.41D-07 OVMax= 6.96D-05

[...]
   A18        1.96216  -0.00009  -0.00071  -0.00027  -0.00098   1.96118
   A19        1.87805   0.00013   0.00019   0.00117   0.00136   1.87941
   A20        1.89689   0.00004   0.00010   0.00001   0.00011   1.89700
   A21        1.89692   0.00004   0.00011  -0.00004   0.00006   1.89698
    D1        2.98970  -0.00002  -0.00038   0.00003  -0.00036   2.98935
    D2       -1.23478   0.00008   0.00006   0.00099   0.00105  -1.23373
    D3        0.87742   0.00003  -0.00016   0.00047   0.00030   0.87773
    D4        1.23459  -0.00008  -0.00006  -0.00126  -0.00132   1.23328
    D5       -2.98989   0.00002   0.00038  -0.00029   0.00009  -2.98980
    D6       -0.87769  -0.00003   0.00016  -0.00081  -0.00066  -0.87834
    D7        1.23496  -0.00007  -0.00006  -0.00114  -0.00119   1.23377
    D8       -2.98953   0.00002   0.00039  -0.00016   0.00023  -2.98931
    D9       -0.87723  -0.00002   0.00016  -0.00064  -0.00048  -0.87771
   D10        2.99012  -0.00002  -0.00037   0.00005  -0.00032   2.98980
   D11       -1.23438   0.00007   0.00007   0.00103   0.00110  -1.23328
   D12        0.87793   0.00002  -0.00015   0.00054   0.00039   0.87832
   D13        2.98983  -0.00002  -0.00038   0.00008  -0.00031   2.98952
   D14       -1.23479   0.00007   0.00005   0.00103   0.00108  -1.23370
   D15        0.87755   0.00002  -0.00016   0.00050   0.00033   0.87789
   D16        1.23489  -0.00007  -0.00005  -0.00116  -0.00121   1.23368
   D17       -2.98972   0.00002   0.00038  -0.00020   0.00018  -2.98954
   D18       -0.87738  -0.00003   0.00017  -0.00074  -0.00057  -0.87795
         Item               Value     Threshold  Converged?
 Maximum Force            0.000162     0.000450     YES
 RMS     Force            0.000077     0.000300     YES
 Maximum Displacement     0.001384     0.001800     YES
 RMS     Displacement     0.000426     0.001200     YES
 Predicted change in Energy=-1.051724D-06
 Optimization completed.
    -- Stationary point found.
                           ----------------------------
                           !   Optimized Parameters   !
                           ! (Angstroms and Degrees)  !
 --------------------------                            --------------------------
 ! Name  Definition              Value          Derivative Info.                !
 --------------------------------------------------------------------------------
 ! R1    R(1,2)                  1.865          -DE/DX =    0.0                 !
 ! R2    R(1,6)                  1.8649         -DE/DX =    0.0                 !
 ! R3    R(1,10)                 1.8649         -DE/DX =    0.0                 !
 ! R4    R(2,3)                  1.0954         -DE/DX =   -0.0002              !
 ! R5    R(2,4)                  1.0954         -DE/DX =   -0.0002              !
 ! R6    R(2,5)                  1.0971         -DE/DX =    0.0                 !
 ! R7    R(6,7)                  1.0954         -DE/DX =   -0.0002              !
 ! R8    R(6,8)                  1.0954         -DE/DX =   -0.0002              !
 ! R9    R(6,9)                  1.0971         -DE/DX =    0.0                 !
 ! R10   R(10,11)                1.0954         -DE/DX =   -0.0002              !
 ! R11   R(10,12)                1.0954         -DE/DX =   -0.0002              !
 ! R12   R(10,13)                1.0971         -DE/DX =    0.0                 !
 ! A1    A(2,1,6)               98.8994         -DE/DX =    0.0                 !
 ! A2    A(2,1,10)              98.9147         -DE/DX =    0.0                 !
 ! A3    A(6,1,10)              98.9113         -DE/DX =    0.0                 !
 ! A4    A(1,2,3)              109.6646         -DE/DX =    0.0                 !
 ! A5    A(1,2,4)              109.663          -DE/DX =   -0.0001              !
 ! A6    A(1,2,5)              112.4109         -DE/DX =   -0.0001              !
 ! A7    A(3,2,4)              107.6057         -DE/DX =    0.0001              !
 ! A8    A(3,2,5)              108.687          -DE/DX =    0.0                 !
 ! A9    A(4,2,5)              108.6843         -DE/DX =    0.0                 !
 ! A10   A(1,6,7)              109.6613         -DE/DX =   -0.0001              !
 ! A11   A(1,6,8)              109.665          -DE/DX =    0.0                 !
 ! A12   A(1,6,9)              112.4124         -DE/DX =   -0.0001              !
 ! A13   A(7,6,8)              107.6057         -DE/DX =    0.0001              !
 ! A14   A(7,6,9)              108.684          -DE/DX =    0.0                 !
 ! A15   A(8,6,9)              108.6871         -DE/DX =    0.0                 !
 ! A16   A(1,10,11)            109.6574         -DE/DX =    0.0                 !
 ! A17   A(1,10,12)            109.6607         -DE/DX =   -0.0001              !
 ! A18   A(1,10,13)            112.4236         -DE/DX =   -0.0001              !
 ! A19   A(11,10,12)           107.6041         -DE/DX =    0.0001              !
 ! A20   A(11,10,13)           108.6839         -DE/DX =    0.0                 !
 ! A21   A(12,10,13)           108.6853         -DE/DX =    0.0                 !
 ! D1    D(6,1,2,3)            171.2974         -DE/DX =    0.0                 !
 ! D2    D(6,1,2,4)            -70.7476         -DE/DX =    0.0001              !
 ! D3    D(6,1,2,5)             50.2727         -DE/DX =    0.0                 !
 ! D4    D(10,1,2,3)            70.7371         -DE/DX =   -0.0001              !
 ! D5    D(10,1,2,4)          -171.3079         -DE/DX =    0.0                 !
 ! D6    D(10,1,2,5)           -50.2877         -DE/DX =    0.0                 !
 ! D7    D(2,1,6,7)             70.7581         -DE/DX =   -0.0001              !
 ! D8    D(2,1,6,8)           -171.2877         -DE/DX =    0.0                 !
 ! D9    D(2,1,6,9)            -50.2616         -DE/DX =    0.0                 !
 ! D10   D(10,1,6,7)           171.3213         -DE/DX =    0.0                 !
 ! D11   D(10,1,6,8)           -70.7245         -DE/DX =    0.0001              !
 ! D12   D(10,1,6,9)            50.3017         -DE/DX =    0.0                 !
 ! D13   D(2,1,10,11)          171.3044         -DE/DX =    0.0                 !
 ! D14   D(2,1,10,12)          -70.7481         -DE/DX =    0.0001              !
 ! D15   D(2,1,10,13)           50.2802         -DE/DX =    0.0                 !
 ! D16   D(6,1,10,11)           70.754          -DE/DX =   -0.0001              !
 ! D17   D(6,1,10,12)         -171.2985         -DE/DX =    0.0                 !
 ! D18   D(6,1,10,13)          -50.2702         -DE/DX =    0.0                 !
 --------------------------------------------------------------------------------
 Lowest energy point so far.  Saving SCF results.
 Largest change from initial coordinates is atom    3       4.032 Angstoms.
 GradGradGradGradGradGradGradGradGradGradGradGradGradGradGradGradGradGrad

 Leave Link  103 at Wed Oct 30 13:45:17 2019, MaxMem=   140000000 cpu:               1.2 elap:               0.1
 (Enter /usr/g16/l202.exe)
                          Input orientation:                          
 ---------------------------------------------------------------------
 Center     Atomic      Atomic             Coordinates (Angstroms)
 Number     Number       Type             X           Y           Z
 ---------------------------------------------------------------------
      1         15           0       -0.868653    0.525241   -0.000469
      2          6           0        0.025935   -1.111159   -0.000078
      3          1           0       -0.265206   -1.690230    0.883052
      4          1           0       -0.262255   -1.689007   -0.884972
      5          1           0        1.116509   -0.991653    0.001794
      6          6           0        0.028557    1.344193   -1.415501
      7          1           0       -0.259687    0.868587   -2.359280
      8          1           0       -0.260692    2.399127   -1.474202
      9          1           0        1.118935    1.284010   -1.310257
     10          6           0        0.023299    1.342558    1.418843
     11          1           0       -0.266658    2.397283    1.477902
     12          1           0       -0.268145    0.865588    2.360948
     13          1           0        1.114097    1.283082    1.317484
 ---------------------------------------------------------------------
                    Distance matrix (angstroms):
                    1          2          3          4          5
     1  P    0.000000
     2  C    1.864965   0.000000
     3  H    2.460299   1.095447   0.000000
     4  H    2.460277   1.095445   1.768027   0.000000
     5  H    2.498367   1.097104   1.781505   1.781474   0.000000
     6  C    1.864936   2.834111   3.818032   3.092950   2.940840
     7  H    2.460227   3.093026   4.130411   2.952098   3.305915
     8  H    2.460275   3.818024   4.720117   4.130380   3.946218
     9  H    2.498356   2.940757   3.946207   3.305660   2.626808
    10  C    1.864948   2.834444   3.093236   3.818311   2.941373
    11  H    2.460188   3.818273   4.130571   4.720272   3.946762
    12  H    2.460231   3.093292   2.952353   4.130616   3.306390
    13  H    2.498524   2.941506   3.306326   3.946957   2.627825
                    6          7          8          9         10
     6  C    0.000000
     7  H    1.095447   0.000000
     8  H    1.095443   1.768026   0.000000
     9  H    1.097098   1.781467   1.781498   0.000000
    10  C    2.834350   3.818239   3.093008   2.941400   0.000000
    11  H    3.093208   4.130488   2.952111   3.306520   1.095449
    12  H    3.818202   4.720237   4.130397   3.946747   1.095446
    13  H    2.941316   3.946858   3.305921   2.627746   1.097110
                   11         12         13
    11  H    0.000000
    12  H    1.768011   0.000000
    13  H    1.781478   1.781491   0.000000
 Stoichiometry    C3H9P
 Framework group  C1[X(C3H9P)]
 Deg. of freedom    33
 Full point group                 C1      NOp   1
 RotChk:  IX=2 Diff= 3.49D-13
 Largest Abelian subgroup         C1      NOp   1
 Largest concise Abelian subgroup C1      NOp   1
                         Standard orientation:                         
 ---------------------------------------------------------------------
 Center     Atomic      Atomic             Coordinates (Angstroms)
 Number     Number       Type             X           Y           Z
 ---------------------------------------------------------------------
      1         15           0        0.000095   -0.000025    0.611603
      2          6           0       -1.000084   -1.295208   -0.282957
      3          1           0       -0.653809   -2.293355    0.006525
      4          1           0       -2.053268   -1.212877    0.006913
      5          1           0       -0.927276   -1.200463   -1.373535
      6          6           0       -0.621873    1.513554   -0.282948
      7          1           0       -1.659265    1.712809    0.007085
      8          1           0       -0.023812    2.384531    0.006394
      9          1           0       -0.576911    1.402874   -1.373522
     10          6           0        1.621820   -0.218318   -0.283041
     11          1           0        2.313016    0.580591    0.006786
     12          1           0        2.077141   -1.171615    0.006632
     13          1           0        1.503591   -0.202292   -1.373645
 ---------------------------------------------------------------------
 Rotational constants (GHZ):           5.6942000           5.6930123           3.6689345
 Leave Link  202 at Wed Oct 30 13:45:17 2019, MaxMem=   140000000 cpu:               0.6 elap:               0.0
 (Enter /usr/g16/l601.exe)
 Copying SCF densities to generalized density rwf, IOpCl= 0 IROHF=0.

 **********************************************************************

            Population analysis using the SCF density.

 **********************************************************************

 Orbital symmetries:
       Occupied  (A) (A) (A) (A) (A) (A) (A) (A) (A) (A) (A) (A)
                 (A) (A) (A) (A) (A) (A) (A) (A) (A)
       Virtual   (A) (A) (A) (A) (A) (A) (A) (A) (A) (A) (A) (A)
                 (A) (A) (A) (A) (A) (A) (A) (A) (A) (A) (A) (A)
                 (A) (A) (A) (A) (A) (A) (A) (A) (A) (A) (A) (A)
                 (A) (A) (A) (A) (A) (A) (A) (A) (A) (A) (A) (A)
                 (A) (A) (A) (A) (A) (A) (A) (A) (A) (A) (A) (A)
                 (A)
 The electronic state is 1-A.
 Alpha  occ. eigenvalues --  -77.07141 -10.17806 -10.17805 -10.17805  -6.53898
 Alpha  occ. eigenvalues --   -4.70157  -4.70157  -4.69636  -0.75216  -0.68359
 Alpha  occ. eigenvalues --   -0.68357  -0.52445  -0.43132  -0.41960  -0.41959
 Alpha  occ. eigenvalues --   -0.39425  -0.39423  -0.38225  -0.31945  -0.31944
 Alpha  occ. eigenvalues --   -0.22071
 Alpha virt. eigenvalues --    0.06415   0.06417   0.08656   0.12455   0.13958
 Alpha virt. eigenvalues --    0.13959   0.16600   0.16601   0.17304   0.19430
 Alpha virt. eigenvalues --    0.19437   0.20264   0.35260   0.38087   0.38088
 Alpha virt. eigenvalues --    0.45230   0.45230   0.47212   0.59119   0.61020
 Alpha virt. eigenvalues --    0.61021   0.65272   0.72985   0.72987   0.79324
 Alpha virt. eigenvalues --    0.80948   0.80954   0.82857   0.87458   0.87459
 Alpha virt. eigenvalues --    0.89015   0.89028   0.93388   0.93391   0.93678
 Alpha virt. eigenvalues --    0.93942   0.93943   1.01883   1.01884   1.33276
 Alpha virt. eigenvalues --    1.33287   1.34959   1.66166   1.69394   1.69397
 Alpha virt. eigenvalues --    1.76214   1.76216   1.80846   2.06912   2.20829
 Alpha virt. eigenvalues --    2.20830   2.23378   2.25955   2.26243   2.26246
 Alpha virt. eigenvalues --    2.28366   2.28366   3.53299   4.19782   4.22424
 Alpha virt. eigenvalues --    4.22425
          Condensed to atoms (all electrons):
               1          2          3          4          5          6
     1  P   13.896676   0.321428  -0.027048  -0.027050  -0.034805   0.321432
     2  C    0.321428   5.284684   0.367412   0.367419   0.355649  -0.033025
     3  H   -0.027048   0.367412   0.543947  -0.024257  -0.027564   0.002358
     4  H   -0.027050   0.367419  -0.024257   0.543940  -0.027569  -0.001049
     5  H   -0.034805   0.355649  -0.027564  -0.027569   0.578543  -0.006404
     6  C    0.321432  -0.033025   0.002358  -0.001049  -0.006404   5.284692
     7  H   -0.027054  -0.001049  -0.000017   0.001468  -0.000183   0.367419
     8  H   -0.027048   0.002358  -0.000056  -0.000017   0.000004   0.367411
     9  H   -0.034806  -0.006406   0.000004  -0.000182   0.006903   0.355651
    10  C    0.321420  -0.033002  -0.001051   0.002356  -0.006398  -0.033011
    11  H   -0.027055   0.002356  -0.000017  -0.000056   0.000004  -0.001050
    12  H   -0.027052  -0.001051   0.001468  -0.000017  -0.000182   0.002357
    13  H   -0.034787  -0.006396  -0.000182   0.000004   0.006890  -0.006397
               7          8          9         10         11         12
     1  P   -0.027054  -0.027048  -0.034806   0.321420  -0.027055  -0.027052
     2  C   -0.001049   0.002358  -0.006406  -0.033002   0.002356  -0.001051
     3  H   -0.000017  -0.000056   0.000004  -0.001051  -0.000017   0.001468
     4  H    0.001468  -0.000017  -0.000182   0.002356  -0.000056  -0.000017
     5  H   -0.000183   0.000004   0.006903  -0.006398   0.000004  -0.000182
     6  C    0.367419   0.367411   0.355651  -0.033011  -0.001050   0.002357
     7  H    0.543942  -0.024256  -0.027570   0.002357  -0.000017  -0.000056
     8  H   -0.024256   0.543945  -0.027564  -0.001052   0.001469  -0.000017
     9  H   -0.027570  -0.027564   0.578541  -0.006397  -0.000182   0.000004
    10  C    0.002357  -0.001052  -0.006397   5.284685   0.367417   0.367416
    11  H   -0.000017   0.001469  -0.000182   0.367417   0.543945  -0.024257
    12  H   -0.000056  -0.000017   0.000004   0.367416  -0.024257   0.543942
    13  H    0.000004  -0.000182   0.006891   0.355642  -0.027569  -0.027567
              13
     1  P   -0.034787
     2  C   -0.006396
     3  H   -0.000182
     4  H    0.000004
     5  H    0.006890
     6  C   -0.006397
     7  H    0.000004
     8  H   -0.000182
     9  H    0.006891
    10  C    0.355642
    11  H   -0.027569
    12  H   -0.027567
    13  H    0.578535
 Mulliken charges:
               1
     1  P    0.405748
     2  C   -0.620378
     3  H    0.165004
     4  H    0.165012
     5  H    0.155112
     6  C   -0.620381
     7  H    0.165011
     8  H    0.165004
     9  H    0.155114
    10  C   -0.620383
    11  H    0.165012
    12  H    0.165012
    13  H    0.155114
 Sum of Mulliken charges =  -0.00000
 Mulliken charges with hydrogens summed into heavy atoms:
               1
     1  P    0.405748
     2  C   -0.135251
     6  C   -0.135252
    10  C   -0.135245
 Electronic spatial extent (au):  <R**2>=            441.2294
 Charge=             -0.0000 electrons
 Dipole moment (field-independent basis, Debye):
    X=             -0.0000    Y=              0.0000    Z=             -1.3461  Tot=              1.3461
 Quadrupole moment (field-independent basis, Debye-Ang):
   XX=            -33.1082   YY=            -33.1089   ZZ=            -37.6253
   XY=             -0.0000   XZ=             -0.0005   YZ=              0.0001
 Traceless Quadrupole moment (field-independent basis, Debye-Ang):
   XX=              1.5059   YY=              1.5053   ZZ=             -3.0112
   XY=             -0.0000   XZ=             -0.0005   YZ=              0.0001
 Octapole moment (field-independent basis, Debye-Ang**2):
  XXX=             -1.7341  YYY=             -0.7367  ZZZ=             -9.0143  XYY=              1.7351
  XXY=              0.7364  XXZ=              1.5197  XZZ=             -0.0010  YZZ=              0.0003
  YYZ=              1.5190  XYZ=             -0.0001
 Hexadecapole moment (field-independent basis, Debye-Ang**3):
 XXXX=           -250.9225 YYYY=           -250.8630 ZZZZ=           -114.7713 XXXY=             -0.0001
 XXXZ=              0.1333 YYYX=              0.0005 YYYZ=              0.0573 ZZZX=             -0.0013
 ZZZY=              0.0002 XXYY=            -83.6305 XXZZ=            -62.5665 YYZZ=            -62.5603
 XXYZ=             -0.0569 YYXZ=             -0.1366 ZZXY=             -0.0006
 N-N= 1.760381040843D+02 E-N=-1.439738082785D+03  KE= 4.585684797623D+02
 No NMR shielding tensors so no spin-rotation constants.
 Leave Link  601 at Wed Oct 30 13:45:17 2019, MaxMem=   140000000 cpu:               4.9 elap:               0.2
 (Enter /usr/g16/l9999.exe)
 1\1\GINC-LW06\FOpt\RB3LYP\6-31G(d)\C3H9P1\WSR\30-Oct-2019\0\\#p b3lyp/
 6-31g* opt em=gd3bj\\Title Card Required\\0,1\P,-0.8686529518,0.525241
 1855,-0.0004689377\C,0.0259349529,-1.1111592813,-0.0000775949\H,-0.265
 2055709,-1.6902299106,0.8830521966\H,-0.2622550947,-1.6890074773,-0.88
 49716969\H,1.1165090167,-0.9916525268,0.0017940734\C,0.028556913,1.344
 1931673,-1.4155013978\H,-0.259686575,0.8685867216,-2.3592803138\H,-0.2
 606924126,2.399126936,-1.4742021989\H,1.1189352938,1.2840098735,-1.310
 2567097\C,0.0232990046,1.342558379,1.4188430719\H,-0.2666576282,2.3972
 834828,1.4779024928\H,-0.2681448517,0.8655875095,2.3609479378\H,1.1140
 970339,1.2830817109,1.3174842372\\Version=ES64L-G16RevA.03\State=1-A\H
 F=-461.1160215\RMSD=7.101e-09\RMSF=1.581e-04\Dipole=0.5295795,0.000012
 7,0.000975\Quadrupole=-2.2387395,1.1193064,1.1194331,0.0001119,-0.0060
 23,0.0002443\PG=C01 [X(C3H9P1)]\\@


 FROM AN ANONYMOUS WRITER, ON PERSPECTIVE:

 MAN, DESPITE HIS ARTISTIC PRETENSIONS, HIS SOPHISTICATION AND MANY 
 ACCOMPLISHMENTS, OWES THE FACT OF HIS EXISTENCE TO A SIX-INCH LAYER OF 
 TOPSOIL AND THE FACT THAT IT RAINS.
 Job cpu time:       0 days  0 hours 13 minutes  8.8 seconds.
 Elapsed time:       0 days  0 hours  0 minutes 33.7 seconds.
 File lengths (MBytes):  RWF=     10 Int=      0 D2E=      0 Chk=      2 Scr=      1
 Normal termination of Gaussian 16 at Wed Oct 30 13:45:17 2019.
