 Entering Gaussian System, Link 0=g16
 Input=irc4.gjf
 Output=irc4.log
 Initial command:
 /home/soft/g16/l1.exe "/tmp/gaussian/Gau-165107.inp" -scrdir="/tmp/gaussian/"
 Entering Link 1 = /home/soft/g16/l1.exe PID=    165108.
  
 Copyright (c) 1988,1990,1992,1993,1995,1998,2003,2009,2016,
            Gaussian, Inc.  All Rights Reserved.
  
 This is part of the Gaussian(R) 16 program.  It is based on
 the Gaussian(R) 09 system (copyright 2009, Gaussian, Inc.),
 the Gaussian(R) 03 system (copyright 2003, Gaussian, Inc.),
 the Gaussian(R) 98 system (copyright 1998, Gaussian, Inc.),
 the Gaussian(R) 94 system (copyright 1995, Gaussian, Inc.),
 the Gaussian 92(TM) system (copyright 1992, Gaussian, Inc.),
 the Gaussian 90(TM) system (copyright 1990, Gaussian, Inc.),
 the Gaussian 88(TM) system (copyright 1988, Gaussian, Inc.),
 the Gaussian 86(TM) system (copyright 1986, Carnegie Mellon
 University), and the Gaussian 82(TM) system (copyright 1983,
 Carnegie Mellon University). Gaussian is a federally registered
 trademark of Gaussian, Inc.
  
 This software contains proprietary and confidential information,
 including trade secrets, belonging to Gaussian, Inc.
  
 This software is provided under written license and may be
 used, copied, transmitted, or stored only in accord with that
 written license.
  
 The following legend is applicable only to US Government
 contracts under FAR:
  
                    RESTRICTED RIGHTS LEGEND
  
 Use, reproduction and disclosure by the US Government is
 subject to restrictions as set forth in subparagraphs (a)
 and (c) of the Commercial Computer Software - Restricted
 Rights clause in FAR 52.227-19.
  
 Gaussian, Inc.
 340 Quinnipiac St., Bldg. 40, Wallingford CT 06492
  
  
 ---------------------------------------------------------------
 Warning -- This program may not be used in any manner that
 competes with the business of Gaussian, Inc. or will provide
 assistance to any competitor of Gaussian, Inc.  The licensee
 of this program is prohibited from giving any competitor of
 Gaussian, Inc. access to this program.  By using this program,
 the user acknowledges that Gaussian, Inc. is engaged in the
 business of creating and licensing software in the field of
 computational chemistry and represents and warrants to the
 licensee that it is not a competitor of Gaussian, Inc. and that
 it will not use this program in any manner prohibited above.
 ---------------------------------------------------------------
  

 Cite this work as:
 Gaussian 16, Revision A.03,
 M. J. Frisch, G. W. Trucks, H. B. Schlegel, G. E. Scuseria, 
 M. A. Robb, J. R. Cheeseman, G. Scalmani, V. Barone, 
 G. A. Petersson, H. Nakatsuji, X. Li, M. Caricato, A. V. Marenich, 
 J. Bloino, B. G. Janesko, R. Gomperts, B. Mennucci, H. P. Hratchian, 
 J. V. Ortiz, A. F. Izmaylov, J. L. Sonnenberg, D. Williams-Young, 
 F. Ding, F. Lipparini, F. Egidi, J. Goings, B. Peng, A. Petrone, 
 T. Henderson, D. Ranasinghe, V. G. Zakrzewski, J. Gao, N. Rega, 
 G. Zheng, W. Liang, M. Hada, M. Ehara, K. Toyota, R. Fukuda, 
 J. Hasegawa, M. Ishida, T. Nakajima, Y. Honda, O. Kitao, H. Nakai, 
 T. Vreven, K. Throssell, J. A. Montgomery, Jr., J. E. Peralta, 
 F. Ogliaro, M. J. Bearpark, J. J. Heyd, E. N. Brothers, K. N. Kudin, 
 V. N. Staroverov, T. A. Keith, R. Kobayashi, J. Normand, 
 K. Raghavachari, A. P. Rendell, J. C. Burant, S. S. Iyengar, 
 J. Tomasi, M. Cossi, J. M. Millam, M. Klene, C. Adamo, R. Cammi, 
 J. W. Ochterski, R. L. Martin, K. Morokuma, O. Farkas, 
 J. B. Foresman, and D. J. Fox, Gaussian, Inc., Wallingford CT, 2016.
 
 ******************************************
 Gaussian 16:  ES64L-G16RevA.03 25-Dec-2016
                15-Oct-2019 
 ******************************************
 %chk=irc4.chk
 %nprocshared=24
 Will use up to   24 processors via shared memory.
 --------------------------------------------
 #p irc=(calcfc,maxpoints=40) b3lyp/6-31+g(d)
 --------------------------------------------
 1/10=4,18=10,26=3,38=1,42=40,44=3,172=1/1,23;
 2/12=2,17=6,18=5,29=1,40=1/2;
 3/5=1,6=6,7=11,11=2,25=1,30=1,71=2,74=-5,140=1/1,2,3;
 4//1;
 5/5=2,38=5/2;
 8/6=4,10=90,11=11/1;
 11/6=1,8=1,9=11,15=111,16=1/1,2,10;
 10/6=1,13=1/2;
 6/7=2,8=2,9=2,10=2,28=1/1;
 7/10=1,18=20,25=1/1,2,3,16;
 1/10=4,18=10,26=3,42=40,44=3/23(2);
 2/29=1/2;
 99/5=20/99;
 2/29=1/2;
 3/5=1,6=6,7=11,11=2,25=1,30=1,71=2,74=-5,140=1/1,2,3;
 4/5=5,16=3,69=1/1;
 5/5=2,38=5/2;
 8/6=4,10=90,11=11/1;
 11/6=1,8=1,9=11,15=111,16=1/1,2,10;
 10/6=1,13=1/2;
 7/10=1,18=20,25=1/1,2,3,16;
 1/18=10,26=3,42=40,44=3/23(-8);
 2/29=1/2;
 6/7=2,8=2,9=2,10=2,19=2,28=1/1;
 99/5=20,9=1/99;
 Leave Link    1 at Tue Oct 15 10:32:42 2019, MaxMem=           0 cpu:               2.9 elap:               0.1
 (Enter /home/soft/g16/l101.exe)
 -------------------
 Title Card Required
 -------------------
 Symbolic Z-matrix:
 Charge =  0 Multiplicity = 1
 C                     1.13406  -0.84534  -0.26198 
 H                     1.91342  -1.50927   0.12843 
 H                     1.20979  -0.89021  -1.36148 
 C                    -0.17382  -1.31748   0.21281 
 H                    -0.34025  -2.32893   0.57065 
 O                    -1.31071  -0.66962  -0.01992 
 C                    -1.22679   0.76391  -0.09346 
 H                    -1.64087   1.02281  -1.08553 
 H                    -1.98615   1.07014   0.63881 
 C                     0.0917    1.385     0.14326 
 H                     0.11334   2.42946  -0.16586 
 C                     1.37923   0.65268   0.14022 
 H                     2.11918   1.12755  -0.532 
 H                     1.87088   0.60275   1.12126 
 
 ITRead=  0  0  0  0  0  0  0  0  0  0  0  0  0  0
 MicOpt= -1 -1 -1 -1 -1 -1 -1 -1 -1 -1 -1 -1 -1 -1
 NAtoms=     14 NQM=       14 NQMF=       0 NMMI=      0 NMMIF=      0
                NMic=       0 NMicF=      0.
                    Isotopes and Nuclear Properties:
 (Nuclear quadrupole moments (NQMom) in fm**2, nuclear magnetic moments (NMagM)
  in nuclear magnetons)

  Atom         1           2           3           4           5           6           7           8           9          10
 IAtWgt=          12           1           1          12           1          16          12           1           1          12
 AtmWgt=  12.0000000   1.0078250   1.0078250  12.0000000   1.0078250  15.9949146  12.0000000   1.0078250   1.0078250  12.0000000
 NucSpn=           0           1           1           0           1           0           0           1           1           0
 AtZEff=  -0.0000000  -0.0000000  -0.0000000  -0.0000000  -0.0000000  -0.0000000  -0.0000000  -0.0000000  -0.0000000  -0.0000000
 NQMom=    0.0000000   0.0000000   0.0000000   0.0000000   0.0000000   0.0000000   0.0000000   0.0000000   0.0000000   0.0000000
 NMagM=    0.0000000   2.7928460   2.7928460   0.0000000   2.7928460   0.0000000   0.0000000   2.7928460   2.7928460   0.0000000
 AtZNuc=   6.0000000   1.0000000   1.0000000   6.0000000   1.0000000   8.0000000   6.0000000   1.0000000   1.0000000   6.0000000

  Atom        11          12          13          14
 IAtWgt=           1          12           1           1
 AtmWgt=   1.0078250  12.0000000   1.0078250   1.0078250
 NucSpn=           1           0           1           1
 AtZEff=  -0.0000000  -0.0000000  -0.0000000  -0.0000000
 NQMom=    0.0000000   0.0000000   0.0000000   0.0000000
 NMagM=    2.7928460   0.0000000   2.7928460   2.7928460
 AtZNuc=   1.0000000   6.0000000   1.0000000   1.0000000
 Leave Link  101 at Tue Oct 15 10:32:42 2019, MaxMem=   280000000 cpu:               3.4 elap:               0.2
 (Enter /home/soft/g16/l123.exe)
 IRC-IRC-IRC-IRC-IRC-IRC-IRC-IRC-IRC-IRC-IRC-IRC-IRC-IRC-IRC-IRC-IRC-IRC
 ------------------------------------------------------------------------
 INPUT DATA FOR L123
 ------------------------------------------------------------------------
 GENERAL PARAMETERS:
 Follow reaction path in both directions.
 Maximum points per path      =  40
 Step size                    =   0.100 bohr
 Integration scheme           = HPC                                 
    Redo corrector integration= Yes                                 
    DWI Weight Power          =  2
    DWI will use Hessian update vectors when possible.
    Max correction cycles     =  20
 Initial Hessian              = CalcFC
 Hessian evaluation           = All updating
 Hessian updating method      = Bofill                              
 ------------------------------------------------------------------------
 IRC-IRC-IRC-IRC-IRC-IRC-IRC-IRC-IRC-IRC-IRC-IRC-IRC-IRC-IRC-IRC-IRC-IRC
 Leave Link  123 at Tue Oct 15 10:32:42 2019, MaxMem=   280000000 cpu:               0.4 elap:               0.1
 (Enter /home/soft/g16/l202.exe)
                          Input orientation:                          
 ---------------------------------------------------------------------
 Center     Atomic      Atomic             Coordinates (Angstroms)
 Number     Number       Type             X           Y           Z
 ---------------------------------------------------------------------
      1          6           0        1.134057   -0.845338   -0.261978
      2          1           0        1.913422   -1.509268    0.128428
      3          1           0        1.209794   -0.890206   -1.361481
      4          6           0       -0.173816   -1.317483    0.212810
      5          1           0       -0.340250   -2.328931    0.570647
      6          8           0       -1.310708   -0.669615   -0.019924
      7          6           0       -1.226785    0.763911   -0.093461
      8          1           0       -1.640868    1.022812   -1.085532
      9          1           0       -1.986149    1.070137    0.638806
     10          6           0        0.091699    1.384999    0.143261
     11          1           0        0.113340    2.429464   -0.165864
     12          6           0        1.379230    0.652680    0.140223
     13          1           0        2.119183    1.127547   -0.531998
     14          1           0        1.870883    0.602753    1.121255
 ---------------------------------------------------------------------
                    Distance matrix (angstroms):
                    1          2          3          4          5
     1  C    0.000000
     2  H    1.095732   0.000000
     3  H    1.103021   1.760159   0.000000
     4  C    1.469312   2.097728   2.139003   0.000000
     5  H    2.251198   2.438533   2.864557   1.085714   0.000000
     6  O    2.462995   3.334972   2.863803   1.329068   2.010943
     7  C    2.862107   3.882973   3.206383   2.352604   3.285218
     8  H    3.445059   4.529692   3.444134   3.052034   3.958373
     9  H    3.770430   4.703240   4.249488   3.027665   3.777207
    10  C    2.495021   3.419894   2.948040   2.716384   3.763312
    11  H    3.431535   4.340566   3.694851   3.776965   4.836374
    12  C    1.570329   2.226998   2.159704   2.509734   3.468700
    13  H    2.221634   2.726040   2.363548   3.433767   4.383136
    14  H    2.133826   2.334127   2.971522   2.948453   3.713092
                    6          7          8          9         10
     6  O    0.000000
     7  C    1.437862   0.000000
     8  H    2.027026   1.105757   0.000000
     9  H    1.979112   1.098464   1.759204   0.000000
    10  C    2.492953   1.476546   2.154739   2.159202   0.000000
    11  H    3.413723   2.138982   2.429342   2.627378   1.089465
    12  C    3.001646   2.618835   3.280315   3.427628   1.481228
    13  H    3.905914   3.394120   3.802020   4.269406   2.152428
    14  H    3.611611   3.331224   4.168783   3.915086   2.175747
                   11         12         13         14
    11  H    0.000000
    12  C    2.202982   0.000000
    13  H    2.419183   1.106757   0.000000
    14  H    2.842975   1.098471   1.752229   0.000000
 Symmetry turned off by external request.
 Stoichiometry    C5H8O
 Framework group  C1[X(C5H8O)]
 Deg. of freedom    36
 Full point group                 C1      NOp   1
 Rotational constants (GHZ):           5.2238757           4.5059219           2.6018643
 Leave Link  202 at Tue Oct 15 10:32:43 2019, MaxMem=   280000000 cpu:               0.9 elap:               0.1
 (Enter /home/soft/g16/l301.exe)
 Standard basis: 6-31+G(d) (6D, 7F)
 Ernie: Thresh=  0.10000D-02 Tol=  0.10000D-05 Strict=F.
   130 basis functions,   224 primitive gaussians,   130 cartesian basis functions
    23 alpha electrons       23 beta electrons
       nuclear repulsion energy       238.4443127730 Hartrees.
 IExCor=  402 DFT=T Ex+Corr=B3LYP ExCW=0 ScaHFX=  0.200000
 ScaDFX=  0.800000  0.720000  1.000000  0.810000 ScalE2=  1.000000  1.000000
 IRadAn=      5 IRanWt=     -1 IRanGd=            0 ICorTp=0 IEmpDi=  4
 NAtoms=   14 NActive=   14 NUniq=   14 SFac= 1.00D+00 NAtFMM=   60 NAOKFM=F Big=F
 Integral buffers will be    131072 words long.
 Raffenetti 2 integral format.
 Two-electron integral symmetry is turned off.
 Leave Link  301 at Tue Oct 15 10:32:43 2019, MaxMem=   280000000 cpu:               2.1 elap:               0.1
 (Enter /home/soft/g16/l302.exe)
 NPDir=0 NMtPBC=     1 NCelOv=     1 NCel=       1 NClECP=     1 NCelD=      1
         NCelK=      1 NCelE2=     1 NClLst=     1 CellRange=     0.0.
 One-electron integrals computed using PRISM.
 NBasis=   130 RedAO= T EigKep=  4.01D-05  NBF=   130
 NBsUse=   130 1.00D-06 EigRej= -1.00D+00 NBFU=   130
 Precomputing XC quadrature grid using
 IXCGrd= 4 IRadAn=           5 IRanWt=          -1 IRanGd=           0 AccXCQ= 0.00D+00.
 Generated NRdTot=       0 NPtTot=           0 NUsed=           0 NTot=          32
 NSgBfM=   130   130   130   130   130 MxSgAt=    14 MxSgA2=    14.
 Leave Link  302 at Tue Oct 15 10:32:43 2019, MaxMem=   280000000 cpu:               5.4 elap:               0.3
 (Enter /home/soft/g16/l303.exe)
 DipDrv:  MaxL=1.
 Leave Link  303 at Tue Oct 15 10:32:43 2019, MaxMem=   280000000 cpu:               1.1 elap:               0.1
 (Enter /home/soft/g16/l401.exe)
 ExpMin= 4.38D-02 ExpMax= 5.48D+03 ExpMxC= 8.25D+02 IAcc=3 IRadAn=         5 AccDes= 0.00D+00
 Harris functional with IExCor=  402 and IRadAn=       5 diagonalized for initial guess.
 HarFok:  IExCor=  402 AccDes= 0.00D+00 IRadAn=         5 IDoV= 1 UseB2=F ITyADJ=14
 ICtDFT=  3500011 ScaDFX=  1.000000  1.000000  1.000000  1.000000
 FoFCou: FMM=F IPFlag=           0 FMFlag=      100000 FMFlg1=           0
         NFxFlg=           0 DoJE=T BraDBF=F KetDBF=T FulRan=T
         wScrn=  0.000000 ICntrl=       500 IOpCl=  0 I1Cent=   200000004 NGrid=           0
         NMat0=    1 NMatS0=      1 NMatT0=    0 NMatD0=    1 NMtDS0=    0 NMtDT0=    0
 Symmetry not used in FoFCou.
 Harris En= -270.463130153254    
 JPrj=0 DoOrth=F DoCkMO=F.
 Leave Link  401 at Tue Oct 15 10:32:44 2019, MaxMem=   280000000 cpu:               8.8 elap:               0.5
 (Enter /home/soft/g16/l502.exe)
 Two-electron integral symmetry not used.
 Closed shell SCF:
 Using DIIS extrapolation, IDIIS=  1040.
 NGot=   280000000 LenX=   279961824 LenY=   279944483
 Requested convergence on RMS density matrix=1.00D-08 within 128 cycles.
 Requested convergence on MAX density matrix=1.00D-06.
 Requested convergence on             energy=1.00D-06.
 No special actions if energy rises.
 Fock matrices will be formed incrementally for  20 cycles.

 Cycle   1  Pass 1  IDiag  1:
 FoFJK:  IHMeth= 1 ICntrl=       0 DoSepK=F KAlg= 0 I1Cent=           0 FoldK=F
 IRaf= 990000000 NMat=       1 IRICut=       1 DoRegI=T DoRafI=F ISym2E= 0 IDoP0=0 IntGTp=1.
 FoFCou: FMM=F IPFlag=           0 FMFlag=      100000 FMFlg1=           0
         NFxFlg=           0 DoJE=F BraDBF=F KetDBF=F FulRan=T
         wScrn=  0.000000 ICntrl=         0 IOpCl=  0 I1Cent=           0 NGrid=           0
         NMat0=    1 NMatS0=      1 NMatT0=    0 NMatD0=    1 NMtDS0=    0 NMtDT0=    0
 Symmetry not used in FoFCou.
 E= -270.161288918461    
 DIIS: error= 2.43D-02 at cycle   1 NSaved=   1.
 NSaved= 1 IEnMin= 1 EnMin= -270.161288918461     IErMin= 1 ErrMin= 2.43D-02
 ErrMax= 2.43D-02  0.00D+00 EMaxC= 1.00D-01 BMatC= 2.16D-01 BMatP= 2.16D-01
 IDIUse=3 WtCom= 7.57D-01 WtEn= 2.43D-01
 Coeff-Com:  0.100D+01
 Coeff-En:   0.100D+01
 Coeff:      0.100D+01
 Gap=    -0.201 Goal=   None    Shift=    0.000
 GapD=   -0.201 DampG=0.250 DampE=0.500 DampFc=0.2500 IDamp=-1.
 Damping current iteration by 2.50D-01
 RMSDP=2.30D-02 MaxDP=4.56D-01              OVMax= 7.04D-01

 Cycle   2  Pass 1  IDiag  1:
 RMSU=  5.69D-03    CP:  9.73D-01
 E= -270.273867709745     Delta-E=       -0.112578791284 Rises=F Damp=T
 DIIS: error= 1.17D-02 at cycle   2 NSaved=   2.
 NSaved= 2 IEnMin= 2 EnMin= -270.273867709745     IErMin= 2 ErrMin= 1.17D-02
 ErrMax= 1.17D-02  0.00D+00 EMaxC= 1.00D-01 BMatC= 3.85D-02 BMatP= 2.16D-01
 IDIUse=3 WtCom= 8.83D-01 WtEn= 1.17D-01
 Coeff-Com: -0.232D+00 0.123D+01
 Coeff-En:   0.226D-01 0.977D+00
 Coeff:     -0.202D+00 0.120D+01
 Gap=     0.311 Goal=   None    Shift=    0.000
 RMSDP=1.36D-02 MaxDP=3.19D-01 DE=-1.13D-01 OVMax= 8.95D-01

 Cycle   3  Pass 1  IDiag  1:
 RMSU=  1.22D-02    CP:  1.03D+00 -2.22D-02
 E= -270.328535452892     Delta-E=       -0.054667743147 Rises=F Damp=F
 DIIS: error= 1.53D-02 at cycle   3 NSaved=   3.
 NSaved= 3 IEnMin= 3 EnMin= -270.328535452892     IErMin= 2 ErrMin= 1.17D-02
 ErrMax= 1.53D-02  0.00D+00 EMaxC= 1.00D-01 BMatC= 7.50D-02 BMatP= 3.85D-02
 IDIUse=2 WtCom= 0.00D+00 WtEn= 1.00D+00
 Coeff-En:   0.000D+00 0.252D+00 0.748D+00
 Coeff:      0.000D+00 0.252D+00 0.748D+00
 Gap=    -0.062 Goal=   None    Shift=    0.000
 RMSDP=1.99D-02 MaxDP=3.67D-01 DE=-5.47D-02 OVMax= 8.61D-01

 Cycle   4  Pass 1  IDiag  1:
 RMSU=  8.94D-03    CP:  8.51D-01  1.69D+00 -1.41D-01
 E= -269.727918924202     Delta-E=        0.600616528690 Rises=F Damp=F
 DIIS: error= 4.79D-02 at cycle   4 NSaved=   4.
 NSaved= 4 IEnMin= 3 EnMin= -270.328535452892     IErMin= 2 ErrMin= 1.17D-02
 ErrMax= 4.79D-02  0.00D+00 EMaxC= 1.00D-01 BMatC= 4.96D-01 BMatP= 3.85D-02
 IDIUse=2 WtCom= 0.00D+00 WtEn= 1.00D+00
 Coeff-En:   0.000D+00 0.000D+00 0.778D+00 0.222D+00
 Coeff:      0.000D+00 0.000D+00 0.778D+00 0.222D+00
 Gap=     0.037 Goal=   None    Shift=    0.000
 RMSDP=1.28D-02 MaxDP=2.74D-01 DE= 6.01D-01 OVMax= 4.93D-01

 Cycle   5  Pass 1  IDiag  1:
 RMSU=  5.21D-03    CP:  9.43D-01  3.09D-01  5.27D-01  8.89D-01
 E= -270.352498950041     Delta-E=       -0.624580025839 Rises=F Damp=F
 DIIS: error= 1.63D-02 at cycle   5 NSaved=   5.
 NSaved= 5 IEnMin= 5 EnMin= -270.352498950041     IErMin= 2 ErrMin= 1.17D-02
 ErrMax= 1.63D-02  0.00D+00 EMaxC= 1.00D-01 BMatC= 6.35D-02 BMatP= 3.85D-02
 IDIUse=2 WtCom= 0.00D+00 WtEn= 1.00D+00
 Coeff-En:   0.000D+00 0.000D+00 0.458D+00 0.000D+00 0.542D+00
 Coeff:      0.000D+00 0.000D+00 0.458D+00 0.000D+00 0.542D+00
 Gap=     0.057 Goal=   None    Shift=    0.000
 RMSDP=6.54D-03 MaxDP=1.49D-01 DE=-6.25D-01 OVMax= 3.01D-01

 Cycle   6  Pass 1  IDiag  1:
 RMSU=  9.57D-04    CP:  9.98D-01 -6.61D-02  8.20D-01  4.12D-01  6.29D-01
 E= -270.425421702959     Delta-E=       -0.072922752918 Rises=F Damp=F
 DIIS: error= 4.47D-03 at cycle   6 NSaved=   6.
 NSaved= 6 IEnMin= 6 EnMin= -270.425421702959     IErMin= 6 ErrMin= 4.47D-03
 ErrMax= 4.47D-03  0.00D+00 EMaxC= 1.00D-01 BMatC= 3.96D-03 BMatP= 3.85D-02
 IDIUse=3 WtCom= 9.55D-01 WtEn= 4.47D-02
 Coeff-Com: -0.101D+00 0.139D+00 0.844D-01-0.274D-01 0.217D+00 0.688D+00
 Coeff-En:   0.000D+00 0.000D+00 0.000D+00 0.000D+00 0.138D+00 0.862D+00
 Coeff:     -0.966D-01 0.133D+00 0.806D-01-0.262D-01 0.214D+00 0.696D+00
 Gap=     0.067 Goal=   None    Shift=    0.000
 RMSDP=2.56D-03 MaxDP=8.16D-02 DE=-7.29D-02 OVMax= 1.06D-01

 Cycle   7  Pass 1  IDiag  1:
 RMSU=  7.01D-04    CP:  9.88D-01  1.77D-02  8.61D-01  6.08D-01  9.22D-01
                    CP:  6.36D-01
 E= -270.429177634892     Delta-E=       -0.003755931933 Rises=F Damp=F
 DIIS: error= 2.74D-03 at cycle   7 NSaved=   7.
 NSaved= 7 IEnMin= 7 EnMin= -270.429177634892     IErMin= 7 ErrMin= 2.74D-03
 ErrMax= 2.74D-03  0.00D+00 EMaxC= 1.00D-01 BMatC= 1.39D-03 BMatP= 3.96D-03
 IDIUse=3 WtCom= 9.73D-01 WtEn= 2.74D-02
 Coeff-Com: -0.428D-01 0.487D-01 0.979D-02-0.109D-01 0.638D-01 0.518D+00
 Coeff-Com:  0.413D+00
 Coeff-En:   0.000D+00 0.000D+00 0.000D+00 0.000D+00 0.000D+00 0.331D+00
 Coeff-En:   0.669D+00
 Coeff:     -0.417D-01 0.474D-01 0.952D-02-0.106D-01 0.620D-01 0.513D+00
 Coeff:      0.420D+00
 Gap=     0.070 Goal=   None    Shift=    0.000
 RMSDP=6.80D-04 MaxDP=1.67D-02 DE=-3.76D-03 OVMax= 2.67D-02

 Cycle   8  Pass 1  IDiag  1:
 RMSU=  1.67D-04    CP:  9.93D-01 -1.83D-02  8.74D-01  5.55D-01  8.64D-01
                    CP:  7.85D-01  8.62D-01
 E= -270.430820187236     Delta-E=       -0.001642552344 Rises=F Damp=F
 DIIS: error= 5.84D-04 at cycle   8 NSaved=   8.
 NSaved= 8 IEnMin= 8 EnMin= -270.430820187236     IErMin= 8 ErrMin= 5.84D-04
 ErrMax= 5.84D-04  0.00D+00 EMaxC= 1.00D-01 BMatC= 9.55D-05 BMatP= 1.39D-03
 IDIUse=3 WtCom= 9.94D-01 WtEn= 5.84D-03
 Coeff-Com: -0.721D-02 0.719D-02-0.184D-02-0.233D-02-0.783D-04 0.213D+00
 Coeff-Com:  0.188D+00 0.603D+00
 Coeff-En:   0.000D+00 0.000D+00 0.000D+00 0.000D+00 0.000D+00 0.479D-01
 Coeff-En:   0.000D+00 0.952D+00
 Coeff:     -0.717D-02 0.715D-02-0.183D-02-0.232D-02-0.778D-04 0.212D+00
 Coeff:      0.187D+00 0.605D+00
 Gap=     0.071 Goal=   None    Shift=    0.000
 RMSDP=1.16D-04 MaxDP=3.24D-03 DE=-1.64D-03 OVMax= 4.80D-03

 Cycle   9  Pass 1  IDiag  1:
 RMSU=  4.15D-05    CP:  9.93D-01 -2.37D-02  8.72D-01  5.47D-01  8.53D-01
                    CP:  8.07D-01  8.26D-01  9.27D-01
 E= -270.430913014358     Delta-E=       -0.000092827123 Rises=F Damp=F
 DIIS: error= 2.95D-04 at cycle   9 NSaved=   9.
 NSaved= 9 IEnMin= 9 EnMin= -270.430913014358     IErMin= 9 ErrMin= 2.95D-04
 ErrMax= 2.95D-04  0.00D+00 EMaxC= 1.00D-01 BMatC= 1.58D-05 BMatP= 9.55D-05
 IDIUse=3 WtCom= 9.97D-01 WtEn= 2.95D-03
 Coeff-Com:  0.235D-02-0.360D-02-0.226D-02-0.207D-05-0.100D-01 0.733D-01
 Coeff-Com:  0.497D-01 0.338D+00 0.553D+00
 Coeff-En:   0.000D+00 0.000D+00 0.000D+00 0.000D+00 0.000D+00 0.000D+00
 Coeff-En:   0.000D+00 0.000D+00 0.100D+01
 Coeff:      0.234D-02-0.359D-02-0.225D-02-0.206D-05-0.100D-01 0.730D-01
 Coeff:      0.496D-01 0.337D+00 0.554D+00
 Gap=     0.072 Goal=   None    Shift=    0.000
 RMSDP=7.55D-05 MaxDP=2.29D-03 DE=-9.28D-05 OVMax= 2.44D-03

 Cycle  10  Pass 1  IDiag  1:
 RMSU=  1.72D-05    CP:  9.94D-01 -2.80D-02  8.75D-01  5.41D-01  8.49D-01
                    CP:  8.18D-01  8.36D-01  1.03D+00  9.82D-01
 E= -270.430931065063     Delta-E=       -0.000018050704 Rises=F Damp=F
 DIIS: error= 9.12D-05 at cycle  10 NSaved=  10.
 NSaved=10 IEnMin=10 EnMin= -270.430931065063     IErMin=10 ErrMin= 9.12D-05
 ErrMax= 9.12D-05  0.00D+00 EMaxC= 1.00D-01 BMatC= 1.76D-06 BMatP= 1.58D-05
 IDIUse=1 WtCom= 1.00D+00 WtEn= 0.00D+00
 Coeff-Com:  0.175D-02-0.252D-02-0.190D-03 0.279D-03-0.265D-02 0.355D-02
 Coeff-Com: -0.105D-01-0.484D-03 0.609D-01 0.950D+00
 Coeff:      0.175D-02-0.252D-02-0.190D-03 0.279D-03-0.265D-02 0.355D-02
 Coeff:     -0.105D-01-0.484D-03 0.609D-01 0.950D+00
 Gap=     0.072 Goal=   None    Shift=    0.000
 RMSDP=2.58D-05 MaxDP=4.66D-04 DE=-1.81D-05 OVMax= 1.09D-03

 Cycle  11  Pass 1  IDiag  1:
 RMSU=  5.27D-06    CP:  9.94D-01 -2.95D-02  8.76D-01  5.39D-01  8.47D-01
                    CP:  8.20D-01  8.35D-01  1.07D+00  1.08D+00  1.11D+00
 E= -270.430933241405     Delta-E=       -0.000002176342 Rises=F Damp=F
 DIIS: error= 8.07D-06 at cycle  11 NSaved=  11.
 NSaved=11 IEnMin=11 EnMin= -270.430933241405     IErMin=11 ErrMin= 8.07D-06
 ErrMax= 8.07D-06  0.00D+00 EMaxC= 1.00D-01 BMatC= 1.46D-08 BMatP= 1.76D-06
 IDIUse=1 WtCom= 1.00D+00 WtEn= 0.00D+00
 Coeff-Com:  0.324D-03-0.429D-03 0.659D-04 0.666D-04-0.481D-03-0.430D-03
 Coeff-Com: -0.395D-02-0.104D-01-0.111D-01 0.261D+00 0.765D+00
 Coeff:      0.324D-03-0.429D-03 0.659D-04 0.666D-04-0.481D-03-0.430D-03
 Coeff:     -0.395D-02-0.104D-01-0.111D-01 0.261D+00 0.765D+00
 Gap=     0.072 Goal=   None    Shift=    0.000
 RMSDP=3.16D-06 MaxDP=6.00D-05 DE=-2.18D-06 OVMax= 1.33D-04

 Cycle  12  Pass 1  IDiag  1:
 RMSU=  1.19D-06    CP:  9.94D-01 -2.96D-02  8.76D-01  5.39D-01  8.47D-01
                    CP:  8.20D-01  8.34D-01  1.07D+00  1.08D+00  1.14D+00
                    CP:  1.06D+00
 E= -270.430933259926     Delta-E=       -0.000000018521 Rises=F Damp=F
 DIIS: error= 1.77D-06 at cycle  12 NSaved=  12.
 NSaved=12 IEnMin=12 EnMin= -270.430933259926     IErMin=12 ErrMin= 1.77D-06
 ErrMax= 1.77D-06  0.00D+00 EMaxC= 1.00D-01 BMatC= 9.94D-10 BMatP= 1.46D-08
 IDIUse=1 WtCom= 1.00D+00 WtEn= 0.00D+00
 Coeff-Com: -0.146D-04 0.298D-04 0.370D-04 0.618D-05-0.912D-04 0.748D-03
 Coeff-Com: -0.269D-04-0.198D-03-0.584D-02 0.445D-01 0.377D+00 0.584D+00
 Coeff:     -0.146D-04 0.298D-04 0.370D-04 0.618D-05-0.912D-04 0.748D-03
 Coeff:     -0.269D-04-0.198D-03-0.584D-02 0.445D-01 0.377D+00 0.584D+00
 Gap=     0.072 Goal=   None    Shift=    0.000
 RMSDP=1.49D-06 MaxDP=3.83D-05 DE=-1.85D-08 OVMax= 1.52D-05

 Cycle  13  Pass 1  IDiag  1:
 RMSU=  4.33D-07    CP:  9.94D-01 -2.95D-02  8.76D-01  5.39D-01  8.47D-01
                    CP:  8.20D-01  8.34D-01  1.07D+00  1.08D+00  1.12D+00
                    CP:  1.07D+00  9.75D-01
 E= -270.430933260910     Delta-E=       -0.000000000984 Rises=F Damp=F
 DIIS: error= 3.42D-07 at cycle  13 NSaved=  13.
 NSaved=13 IEnMin=13 EnMin= -270.430933260910     IErMin=13 ErrMin= 3.42D-07
 ErrMax= 3.42D-07  0.00D+00 EMaxC= 1.00D-01 BMatC= 3.78D-11 BMatP= 9.94D-10
 IDIUse=1 WtCom= 1.00D+00 WtEn= 0.00D+00
 Coeff-Com:  0.254D-05 0.957D-07 0.804D-05 0.238D-05-0.221D-04 0.237D-04
 Coeff-Com: -0.245D-04-0.526D-04-0.142D-02 0.542D-02 0.452D-01 0.143D+00
 Coeff-Com:  0.808D+00
 Coeff:      0.254D-05 0.957D-07 0.804D-05 0.238D-05-0.221D-04 0.237D-04
 Coeff:     -0.245D-04-0.526D-04-0.142D-02 0.542D-02 0.452D-01 0.143D+00
 Coeff:      0.808D+00
 Gap=     0.072 Goal=   None    Shift=    0.000
 RMSDP=3.09D-07 MaxDP=7.83D-06 DE=-9.84D-10 OVMax= 3.49D-06

 Cycle  14  Pass 1  IDiag  1:
 RMSU=  7.20D-08    CP:  9.94D-01 -2.96D-02  8.76D-01  5.39D-01  8.47D-01
                    CP:  8.20D-01  8.34D-01  1.07D+00  1.08D+00  1.13D+00
                    CP:  1.09D+00  1.04D+00  9.93D-01
 E= -270.430933260946     Delta-E=       -0.000000000036 Rises=F Damp=F
 DIIS: error= 7.41D-08 at cycle  14 NSaved=  14.
 NSaved=14 IEnMin=14 EnMin= -270.430933260946     IErMin=14 ErrMin= 7.41D-08
 ErrMax= 7.41D-08  0.00D+00 EMaxC= 1.00D-01 BMatC= 1.76D-12 BMatP= 3.78D-11
 IDIUse=1 WtCom= 1.00D+00 WtEn= 0.00D+00
 Coeff-Com:  0.171D-05-0.179D-05 0.133D-05 0.736D-06-0.103D-05-0.431D-04
 Coeff-Com: -0.108D-04-0.953D-04-0.291D-03-0.752D-03-0.413D-02 0.166D-01
 Coeff-Com:  0.224D+00 0.765D+00
 Coeff:      0.171D-05-0.179D-05 0.133D-05 0.736D-06-0.103D-05-0.431D-04
 Coeff:     -0.108D-04-0.953D-04-0.291D-03-0.752D-03-0.413D-02 0.166D-01
 Coeff:      0.224D+00 0.765D+00
 Gap=     0.072 Goal=   None    Shift=    0.000
 RMSDP=6.88D-08 MaxDP=1.47D-06 DE=-3.63D-11 OVMax= 1.41D-06

 Cycle  15  Pass 1  IDiag  1:
 RMSU=  1.60D-08    CP:  9.94D-01 -2.96D-02  8.76D-01  5.39D-01  8.47D-01
                    CP:  8.20D-01  8.34D-01  1.07D+00  1.08D+00  1.13D+00
                    CP:  1.09D+00  1.06D+00  1.03D+00  1.06D+00
 E= -270.430933260948     Delta-E=       -0.000000000002 Rises=F Damp=F
 DIIS: error= 2.89D-08 at cycle  15 NSaved=  15.
 NSaved=15 IEnMin=15 EnMin= -270.430933260948     IErMin=15 ErrMin= 2.89D-08
 ErrMax= 2.89D-08  0.00D+00 EMaxC= 1.00D-01 BMatC= 3.34D-13 BMatP= 1.76D-12
 IDIUse=1 WtCom= 1.00D+00 WtEn= 0.00D+00
 Coeff-Com:  0.485D-06-0.745D-06-0.168D-06 0.623D-07 0.176D-05-0.217D-04
 Coeff-Com:  0.201D-05-0.241D-04 0.287D-04-0.103D-02-0.718D-02-0.596D-02
 Coeff-Com:  0.408D-01 0.404D+00 0.569D+00
 Coeff:      0.485D-06-0.745D-06-0.168D-06 0.623D-07 0.176D-05-0.217D-04
 Coeff:      0.201D-05-0.241D-04 0.287D-04-0.103D-02-0.718D-02-0.596D-02
 Coeff:      0.408D-01 0.404D+00 0.569D+00
 Gap=     0.072 Goal=   None    Shift=    0.000
 RMSDP=1.22D-08 MaxDP=2.66D-07 DE=-1.59D-12 OVMax= 3.58D-07

 Cycle  16  Pass 1  IDiag  1:
 RMSU=  5.44D-09    CP:  9.94D-01 -2.96D-02  8.76D-01  5.39D-01  8.47D-01
                    CP:  8.20D-01  8.34D-01  1.07D+00  1.08D+00  1.13D+00
                    CP:  1.09D+00  1.06D+00  1.04D+00  1.12D+00  9.53D-01
 E= -270.430933260950     Delta-E=       -0.000000000002 Rises=F Damp=F
 DIIS: error= 8.85D-09 at cycle  16 NSaved=  16.
 NSaved=16 IEnMin=16 EnMin= -270.430933260950     IErMin=16 ErrMin= 8.85D-09
 ErrMax= 8.85D-09  0.00D+00 EMaxC= 1.00D-01 BMatC= 1.57D-14 BMatP= 3.34D-13
 IDIUse=1 WtCom= 1.00D+00 WtEn= 0.00D+00
 Coeff-Com: -0.336D-07 0.241D-07-0.138D-06-0.350D-07 0.418D-06-0.103D-05
 Coeff-Com:  0.233D-05 0.416D-05 0.334D-04-0.157D-03-0.102D-02-0.219D-02
 Coeff-Com: -0.515D-02 0.281D-01 0.104D+00 0.876D+00
 Coeff:     -0.336D-07 0.241D-07-0.138D-06-0.350D-07 0.418D-06-0.103D-05
 Coeff:      0.233D-05 0.416D-05 0.334D-04-0.157D-03-0.102D-02-0.219D-02
 Coeff:     -0.515D-02 0.281D-01 0.104D+00 0.876D+00
 Gap=     0.072 Goal=   None    Shift=    0.000
 RMSDP=5.22D-09 MaxDP=1.38D-07 DE=-1.93D-12 OVMax= 1.63D-07

 SCF Done:  E(RB3LYP) =  -270.430933261     A.U. after   16 cycles
            NFock= 16  Conv=0.52D-08     -V/T= 2.0097
 KE= 2.678240102875D+02 PE=-1.104942851981D+03 EE= 3.282435956594D+02
 Leave Link  502 at Tue Oct 15 10:32:49 2019, MaxMem=   280000000 cpu:             117.8 elap:               5.0
 (Enter /home/soft/g16/l801.exe)
 DoSCS=F DFT=T ScalE2(SS,OS)=  1.000000  1.000000
 Range of M.O.s used for correlation:     1   130
 NBasis=   130 NAE=    23 NBE=    23 NFC=     0 NFV=     0
 NROrb=    130 NOA=    23 NOB=    23 NVA=   107 NVB=   107

 **** Warning!!: The largest alpha MO coefficient is  0.68167833D+02


 **** Warning!!: The smallest alpha delta epsilon is  0.71558184D-01

 Leave Link  801 at Tue Oct 15 10:32:49 2019, MaxMem=   280000000 cpu:               1.3 elap:               0.1
 (Enter /home/soft/g16/l1101.exe)
 Using compressed storage, NAtomX=    14.
 Will process     15 centers per pass.
 Leave Link 1101 at Tue Oct 15 10:32:49 2019, MaxMem=   280000000 cpu:               3.6 elap:               0.2
 (Enter /home/soft/g16/l1102.exe)
 Symmetrizing basis deriv contribution to polar:
 IMax=3 JMax=2 DiffMx= 0.00D+00
 Leave Link 1102 at Tue Oct 15 10:32:49 2019, MaxMem=   280000000 cpu:               0.8 elap:               0.1
 (Enter /home/soft/g16/l1110.exe)
 Forming Gx(P) for the SCF density, NAtomX=    14.
 Integral derivatives from FoFJK, PRISM(SPDF).
 Do as many integral derivatives as possible in FoFJK.
 G2DrvN: MDV=     279998856.
 G2DrvN: will do    15 centers at a time, making    1 passes.
 Calling FoFCou, ICntrl=  3107 FMM=F I1Cent=   0 AccDes= 0.00D+00.
 FoFJK:  IHMeth= 1 ICntrl=    3107 DoSepK=F KAlg= 0 I1Cent=           0 FoldK=F
 IRaf=         0 NMat=       1 IRICut=       1 DoRegI=T DoRafI=F ISym2E= 0 IDoP0=0 IntGTp=1.
 FoFCou: FMM=F IPFlag=           0 FMFlag=      100000 FMFlg1=           0
         NFxFlg=           0 DoJE=F BraDBF=F KetDBF=F FulRan=T
         wScrn=  0.000000 ICntrl=      3107 IOpCl=  0 I1Cent=           0 NGrid=           0
         NMat0=    1 NMatS0=      1 NMatT0=    0 NMatD0=    1 NMtDS0=    0 NMtDT0=    0
 Symmetry not used in FoFCou.
 End of G2Drv F.D. properties file   721 does not exist.
 End of G2Drv F.D. properties file   722 does not exist.
 End of G2Drv F.D. properties file   788 does not exist.
 Leave Link 1110 at Tue Oct 15 10:32:55 2019, MaxMem=   280000000 cpu:             135.7 elap:               5.8
 (Enter /home/soft/g16/l1002.exe)
 Minotr:  Closed shell wavefunction.
          IDoAtm=11111111111111
          Direct CPHF calculation.
          Differentiating once with respect to nuclear coordinates.
          Requested convergence is 1.0D-08 RMS, and 1.0D-07 maximum.
          Secondary convergence is 1.0D-12 RMS, and 1.0D-12 maximum.
          NewPWx=T KeepS1=F KeepF1=F KeepIn=T MapXYZ=F SortEE=F KeepMc=T.
         4236 words used for storage of precomputed grid.
 Keep R1 ints in memory in canonical form, NReq=59093990.
 FoFCou: FMM=F IPFlag=           0 FMFlag=           0 FMFlg1=           0
         NFxFlg=           0 DoJE=F BraDBF=F KetDBF=F FulRan=T
         wScrn=  0.000000 ICntrl=       600 IOpCl=  0 I1Cent=           0 NGrid=           0
         NMat0=    1 NMatS0=   8515 NMatT0=    0 NMatD0=    1 NMtDS0=    0 NMtDT0=    0
 Symmetry not used in FoFCou.
 Two-electron integral symmetry not used.
          MDV=     280000000 using IRadAn=       1.
          Solving linear equations simultaneously, MaxMat=       0.
          There are    45 degrees of freedom in the 1st order CPHF.  IDoFFX=6 NUNeed=     0.
     39 vectors produced by pass  0 Test12= 5.47D-15 2.22D-09 XBig12= 1.30D-01 1.72D-01.
 AX will form    39 AO Fock derivatives at one time.
     39 vectors produced by pass  1 Test12= 5.47D-15 2.22D-09 XBig12= 9.24D-02 9.34D-02.
     39 vectors produced by pass  2 Test12= 5.47D-15 2.22D-09 XBig12= 7.13D-04 4.20D-03.
     39 vectors produced by pass  3 Test12= 5.47D-15 2.22D-09 XBig12= 2.51D-06 1.93D-04.
     39 vectors produced by pass  4 Test12= 5.47D-15 2.22D-09 XBig12= 3.23D-09 9.37D-06.
     34 vectors produced by pass  5 Test12= 5.47D-15 2.22D-09 XBig12= 2.93D-12 2.21D-07.
      2 vectors produced by pass  6 Test12= 5.47D-15 2.22D-09 XBig12= 2.43D-15 5.93D-09.
      1 vectors produced by pass  7 Test12= 5.47D-15 2.22D-09 XBig12= 2.82D-17 2.46D-09.
 InvSVY:  IOpt=1 It=  1 EMax= 2.00D-15
 Solved reduced A of dimension   232 with    39 vectors.
 End of Minotr F.D. properties file   721 does not exist.
 End of Minotr F.D. properties file   722 does not exist.
 End of Minotr F.D. properties file   788 does not exist.
 Leave Link 1002 at Tue Oct 15 10:33:02 2019, MaxMem=   280000000 cpu:             176.1 elap:               7.4
 (Enter /home/soft/g16/l601.exe)
 Copying SCF densities to generalized density rwf, IOpCl= 0 IROHF=0.

 **********************************************************************

            Population analysis using the SCF density.

 **********************************************************************

 Alpha  occ. eigenvalues --  -19.21496 -10.25985 -10.25217 -10.20590 -10.19559
 Alpha  occ. eigenvalues --  -10.17116  -1.09476  -0.80304  -0.77685  -0.66636
 Alpha  occ. eigenvalues --   -0.63971  -0.53716  -0.50802  -0.48569  -0.48209
 Alpha  occ. eigenvalues --   -0.44162  -0.41285  -0.40835  -0.37845  -0.35252
 Alpha  occ. eigenvalues --   -0.34278  -0.31297  -0.14606
 Alpha virt. eigenvalues --   -0.07450   0.00424   0.02438   0.02708   0.03393
 Alpha virt. eigenvalues --    0.04502   0.05177   0.06380   0.06890   0.07975
 Alpha virt. eigenvalues --    0.08837   0.09903   0.11430   0.11881   0.12618
 Alpha virt. eigenvalues --    0.13401   0.13827   0.14752   0.15488   0.17016
 Alpha virt. eigenvalues --    0.18742   0.19595   0.20294   0.22001   0.22398
 Alpha virt. eigenvalues --    0.24495   0.24797   0.26364   0.28250   0.29219
 Alpha virt. eigenvalues --    0.29730   0.31159   0.32369   0.33090   0.35514
 Alpha virt. eigenvalues --    0.37162   0.38539   0.39373   0.43165   0.62317
 Alpha virt. eigenvalues --    0.65127   0.65358   0.66249   0.67686   0.69472
 Alpha virt. eigenvalues --    0.71552   0.72032   0.73165   0.75694   0.76807
 Alpha virt. eigenvalues --    0.77123   0.85079   0.91764   0.93861   0.94843
 Alpha virt. eigenvalues --    0.97679   0.99541   1.01496   1.05764   1.06389
 Alpha virt. eigenvalues --    1.10101   1.12767   1.14971   1.16447   1.23565
 Alpha virt. eigenvalues --    1.30241   1.31828   1.32561   1.41214   1.43133
 Alpha virt. eigenvalues --    1.48204   1.51239   1.57420   1.66742   1.69176
 Alpha virt. eigenvalues --    1.74182   1.80183   1.81363   1.88672   1.90660
 Alpha virt. eigenvalues --    1.95056   1.99744   2.00299   2.08003   2.10554
 Alpha virt. eigenvalues --    2.14813   2.22591   2.25034   2.29757   2.33175
 Alpha virt. eigenvalues --    2.39190   2.39596   2.44749   2.49514   2.61125
 Alpha virt. eigenvalues --    2.62118   2.69990   2.73128   2.79215   2.98471
 Alpha virt. eigenvalues --    3.03377   4.17918   4.23810   4.26264   4.41332
 Alpha virt. eigenvalues --    4.44983   4.61057
          Condensed to atoms (all electrons):
               1          2          3          4          5          6
     1  C    6.427454   0.439202   0.329351  -0.504282  -0.082421  -0.047983
     2  H    0.439202   0.527631  -0.040264  -0.113294  -0.002081   0.007539
     3  H    0.329351  -0.040264   0.520552   0.040153   0.001668  -0.003146
     4  C   -0.504282  -0.113294   0.040153   6.439195   0.400725   0.161130
     5  H   -0.082421  -0.002081   0.001668   0.400725   0.519392  -0.062970
     6  O   -0.047983   0.007539  -0.003146   0.161130  -0.062970   8.199709
     7  C   -0.055689   0.005577  -0.012053  -0.273267   0.030945   0.104867
     8  H   -0.044822  -0.000051   0.001685   0.058573  -0.000300  -0.037142
     9  H    0.027450   0.000039  -0.000226  -0.063066   0.000041  -0.042588
    10  C    0.348974   0.046798  -0.073712  -0.461587  -0.020828  -0.058939
    11  H    0.011098  -0.000103  -0.000091  -0.005684   0.000010   0.008235
    12  C   -0.414158  -0.071959   0.001492   0.453110   0.024871  -0.012274
    13  H   -0.083114  -0.001531   0.002058   0.073386  -0.000122  -0.000283
    14  H    0.013902  -0.002234   0.000793  -0.112221   0.000034   0.004859
               7          8          9         10         11         12
     1  C   -0.055689  -0.044822   0.027450   0.348974   0.011098  -0.414158
     2  H    0.005577  -0.000051   0.000039   0.046798  -0.000103  -0.071959
     3  H   -0.012053   0.001685  -0.000226  -0.073712  -0.000091   0.001492
     4  C   -0.273267   0.058573  -0.063066  -0.461587  -0.005684   0.453110
     5  H    0.030945  -0.000300   0.000041  -0.020828   0.000010   0.024871
     6  O    0.104867  -0.037142  -0.042588  -0.058939   0.008235  -0.012274
     7  C    5.838438   0.371821   0.495594  -0.013143  -0.019633  -0.027501
     8  H    0.371821   0.552661  -0.047459  -0.116127  -0.003214   0.053333
     9  H    0.495594  -0.047459   0.525681  -0.092453   0.000646  -0.033553
    10  C   -0.013143  -0.116127  -0.092453   6.821273   0.366331  -0.751711
    11  H   -0.019633  -0.003214   0.000646   0.366331   0.534832  -0.057099
    12  C   -0.027501   0.053333  -0.033553  -0.751711  -0.057099   6.681990
    13  H   -0.017507   0.000469  -0.000202  -0.219905  -0.006060   0.540648
    14  H    0.006765  -0.000193   0.000095   0.049351   0.001278   0.320687
              13         14
     1  C   -0.083114   0.013902
     2  H   -0.001531  -0.002234
     3  H    0.002058   0.000793
     4  C    0.073386  -0.112221
     5  H   -0.000122   0.000034
     6  O   -0.000283   0.004859
     7  C   -0.017507   0.006765
     8  H    0.000469  -0.000193
     9  H   -0.000202   0.000095
    10  C   -0.219905   0.049351
    11  H   -0.006060   0.001278
    12  C    0.540648   0.320687
    13  H    0.580392  -0.052487
    14  H   -0.052487   0.545101
 Mulliken charges:
               1
     1  C   -0.364963
     2  H    0.204730
     3  H    0.231739
     4  C   -0.092868
     5  H    0.191035
     6  O   -0.221014
     7  C   -0.435214
     8  H    0.210769
     9  H    0.230001
    10  C    0.175679
    11  H    0.169454
    12  C   -0.707875
    13  H    0.184260
    14  H    0.224268
 Sum of Mulliken charges =  -0.00000
 Mulliken charges with hydrogens summed into heavy atoms:
               1
     1  C    0.071507
     4  C    0.098167
     6  O   -0.221014
     7  C    0.005555
    10  C    0.345132
    12  C   -0.299347
 APT charges:
               1
     1  C   -0.848834
     2  H    0.528459
     3  H    0.430678
     4  C   -0.520061
     5  H    0.581774
     6  O   -0.188603
     7  C   -0.932099
     8  H    0.464361
     9  H    0.550890
    10  C   -0.192583
    11  H    0.517447
    12  C   -1.336658
    13  H    0.454991
    14  H    0.490240
 Sum of APT charges =  -0.00000
 APT charges with hydrogens summed into heavy atoms:
               1
     1  C    0.110302
     4  C    0.061713
     6  O   -0.188603
     7  C    0.083152
    10  C    0.324864
    12  C   -0.391428
 Electronic spatial extent (au):  <R**2>=            521.7395
 Charge=             -0.0000 electrons
 Dipole moment (field-independent basis, Debye):
    X=              0.4011    Y=             -0.6507    Z=             -0.9135  Tot=              1.1911
 Quadrupole moment (field-independent basis, Debye-Ang):
   XX=            -37.1764   YY=            -37.1756   ZZ=            -39.3687
   XY=             -2.9849   XZ=              0.0980   YZ=             -2.1510
 Traceless Quadrupole moment (field-independent basis, Debye-Ang):
   XX=              0.7305   YY=              0.7313   ZZ=             -1.4618
   XY=             -2.9849   XZ=              0.0980   YZ=             -2.1510
 Octapole moment (field-independent basis, Debye-Ang**2):
  XXX=             -5.5089  YYY=            -11.0449  ZZZ=             -5.2973  XYY=             -2.6715
  XXY=              2.8232  XXZ=              1.3101  XZZ=             -2.1545  YZZ=             -3.4673
  YYZ=             -1.5865  XYZ=              0.3012
 Hexadecapole moment (field-independent basis, Debye-Ang**3):
 XXXX=           -339.9463 YYYY=           -306.7563 ZZZZ=            -81.7970 XXXY=             -9.5907
 XXXZ=              0.8640 YYYX=              2.3889 YYYZ=            -15.7179 ZZZX=              1.4001
 ZZZY=             -3.4002 XXYY=           -106.9944 XXZZ=            -66.6227 YYZZ=            -72.0123
 XXYZ=             -1.2353 YYXZ=             -0.5197 ZZXY=             -0.8870
 N-N= 2.384443127730D+02 E-N=-1.104942852509D+03  KE= 2.678240102875D+02
  Exact polarizability:   0.000   0.000   0.000   0.000   0.000   0.000
 Approx polarizability: 102.079  21.060 344.366  -0.127   7.425  79.721
 No NMR shielding tensors so no spin-rotation constants.
 Leave Link  601 at Tue Oct 15 10:33:02 2019, MaxMem=   280000000 cpu:               2.4 elap:               0.1
 (Enter /home/soft/g16/l701.exe)
 ... and contract with generalized density number  0.
 Compute integral second derivatives.
 Leave Link  701 at Tue Oct 15 10:33:03 2019, MaxMem=   280000000 cpu:               3.5 elap:               0.2
 (Enter /home/soft/g16/l702.exe)
 L702 exits ... SP integral derivatives will be done elsewhere.
 Leave Link  702 at Tue Oct 15 10:33:03 2019, MaxMem=   280000000 cpu:               0.5 elap:               0.0
 (Enter /home/soft/g16/l703.exe)
 Integral derivatives from FoFJK, PRISM(SPDF).
 Compute integral second derivatives, UseDBF=F ICtDFT=           0.
 Calling FoFJK, ICntrl=    100147 FMM=F ISym2X=0 I1Cent= 0 IOpClX= 0 NMat=1 NMatS=1 NMatT=0.
 FoFJK:  IHMeth= 1 ICntrl=  100147 DoSepK=F KAlg= 0 I1Cent=           0 FoldK=F
 IRaf=         0 NMat=       1 IRICut=       1 DoRegI=T DoRafI=F ISym2E= 0 IDoP0=0 IntGTp=1.
 FoFCou: FMM=F IPFlag=           0 FMFlag=      100000 FMFlg1=         800
         NFxFlg=           0 DoJE=F BraDBF=F KetDBF=F FulRan=T
         wScrn=  0.000000 ICntrl=    100147 IOpCl=  0 I1Cent=           0 NGrid=           0
         NMat0=    1 NMatS0=      1 NMatT0=    0 NMatD0=    1 NMtDS0=    0 NMtDT0=    0
 Symmetry not used in FoFCou.
 Leave Link  703 at Tue Oct 15 10:33:10 2019, MaxMem=   280000000 cpu:             186.8 elap:               7.8
 (Enter /home/soft/g16/l716.exe)
 Dipole        = 1.57802444D-01-2.56010704D-01-3.59397013D-01
 Polarizability= 0.00000000D+00 0.00000000D+00 0.00000000D+00
                 0.00000000D+00 0.00000000D+00 0.00000000D+00
 -------------------------------------------------------------------
 Center     Atomic                   Forces (Hartrees/Bohr)
 Number     Number              X              Y              Z
 -------------------------------------------------------------------
      1        6          -0.000001790   -0.000021784    0.000009059
      2        1           0.000000701   -0.000000375    0.000004367
      3        1          -0.000002093   -0.000004374    0.000005777
      4        6          -0.000013479    0.000005895   -0.000017786
      5        1          -0.000000311    0.000005458    0.000008464
      6        8           0.000019913   -0.000005673    0.000009521
      7        6          -0.000008248   -0.000007890    0.000003575
      8        1          -0.000000608   -0.000003337   -0.000001372
      9        1          -0.000002004    0.000002718   -0.000005727
     10        6          -0.000000267    0.000012012   -0.000004975
     11        1          -0.000000198    0.000005198    0.000001739
     12        6           0.000006317    0.000010247   -0.000004874
     13        1           0.000001493   -0.000001726   -0.000001683
     14        1           0.000000574    0.000003630   -0.000006085
 -------------------------------------------------------------------
 Cartesian Forces:  Max     0.000021784 RMS     0.000007586
 Z-matrix is all fixed cartesians, so copy forces.
 Leave Link  716 at Tue Oct 15 10:33:10 2019, MaxMem=   280000000 cpu:               0.7 elap:               0.0
 (Enter /home/soft/g16/l123.exe)
 IRC-IRC-IRC-IRC-IRC-IRC-IRC-IRC-IRC-IRC-IRC-IRC-IRC-IRC-IRC-IRC-IRC-IRC
          ******** Start new reaction path calculation ********
 Current Structure is TS -> form Hessian eigenvectors.
                            Diagonalizing Hessian.
 Supplied step size of   0.1000 bohr.
    Integration on MW PES will use step size of   0.1350 sqrt(amu)*bohr.
 Point Number:   0          Path Number:   1
 Calculating another point on the path.
 Point Number  1 in FORWARD path direction.
 Using LQA Reaction Path Following.
 IRC-IRC-IRC-IRC-IRC-IRC-IRC-IRC-IRC-IRC-IRC-IRC-IRC-IRC-IRC-IRC-IRC-IRC
 Leave Link  123 at Tue Oct 15 10:33:11 2019, MaxMem=   280000000 cpu:               0.6 elap:               0.0
 (Enter /home/soft/g16/l202.exe)
                          Input orientation:                          
 ---------------------------------------------------------------------
 Center     Atomic      Atomic             Coordinates (Angstroms)
 Number     Number       Type             X           Y           Z
 ---------------------------------------------------------------------
      1          6           0        1.172197   -0.828909   -0.271235
      2          1           0        1.951778   -1.493432    0.117837
      3          1           0        1.250941   -0.865722   -1.370284
      4          6           0       -0.135008   -1.302300    0.200133
      5          1           0       -0.300204   -2.308435    0.573308
      6          8           0       -1.270911   -0.652286   -0.027450
      7          6           0       -1.189291    0.783761   -0.096382
      8          1           0       -1.614025    1.047397   -1.082224
      9          1           0       -1.942921    1.081069    0.645701
     10          6           0        0.130956    1.406289    0.126155
     11          1           0        0.156109    2.443031   -0.208384
     12          6           0        1.415903    0.670905    0.138739
     13          1           0        2.163362    1.145748   -0.524286
     14          1           0        1.898094    0.613619    1.124150
 ---------------------------------------------------------------------
                    Distance matrix (angstroms):
                    1          2          3          4          5
     1  C    0.000000
     2  H    1.095771   0.000000
     3  H    1.102481   1.760595   0.000000
     4  C    1.468016   2.097136   2.139547   0.000000
     5  H    2.251713   2.437848   2.874894   1.085752   0.000000
     6  O    2.461585   3.333820   2.865047   1.328378   2.011470
     7  C    2.864943   3.885590   3.209104   2.356074   3.286432
     8  H    3.455612   4.539923   3.457026   3.058268   3.965919
     9  H    3.767326   4.698444   4.249111   3.024488   3.767293
    10  C    2.497641   3.424010   2.942063   2.722621   3.766300
    11  H    3.426656   4.338961   3.673761   3.778774   4.836909
    12  C    1.573821   2.229788   2.159997   2.510504   3.465593
    13  H    2.223896   2.724400   2.365214   3.435145   4.382379
    14  H    2.134224   2.335639   2.971441   2.942457   3.697883
                    6          7          8          9         10
     6  O    0.000000
     7  C    1.440016   0.000000
     8  H    2.029581   1.105344   0.000000
     9  H    1.977182   1.098653   1.759269   0.000000
    10  C    2.495307   1.476521   2.152659   2.162559   0.000000
    11  H    3.413225   2.139117   2.417595   2.643923   1.089670
    12  C    2.999570   2.618216   3.288307   3.421542   1.480553
    13  H    3.908197   3.399179   3.819636   4.270201   2.149798
    14  H    3.601567   3.324243   4.170279   3.898823   2.178783
                   11         12         13         14
    11  H    0.000000
    12  C    2.201819   0.000000
    13  H    2.410768   1.106242   0.000000
    14  H    2.856030   1.098556   1.752390   0.000000
 Symmetry turned off by external request.
 Stoichiometry    C5H8O
 Framework group  C1[X(C5H8O)]
 Deg. of freedom    36
 Full point group                 C1      NOp   1
 Rotational constants (GHZ):           5.2110202           4.5100040           2.5999232
 Leave Link  202 at Tue Oct 15 10:33:11 2019, MaxMem=   280000000 cpu:               0.6 elap:               0.0
 (Enter /home/soft/g16/l301.exe)
 Standard basis: 6-31+G(d) (6D, 7F)
 Ernie: Thresh=  0.10000D-02 Tol=  0.10000D-05 Strict=F.
   130 basis functions,   224 primitive gaussians,   130 cartesian basis functions
    23 alpha electrons       23 beta electrons
       nuclear repulsion energy       238.3753453726 Hartrees.
 IExCor=  402 DFT=T Ex+Corr=B3LYP ExCW=0 ScaHFX=  0.200000
 ScaDFX=  0.800000  0.720000  1.000000  0.810000 ScalE2=  1.000000  1.000000
 IRadAn=      5 IRanWt=     -1 IRanGd=            0 ICorTp=0 IEmpDi=  4
 NAtoms=   14 NActive=   14 NUniq=   14 SFac= 1.00D+00 NAtFMM=   60 NAOKFM=F Big=F
 Integral buffers will be    131072 words long.
 Raffenetti 2 integral format.
 Two-electron integral symmetry is turned off.
 Leave Link  301 at Tue Oct 15 10:33:11 2019, MaxMem=   280000000 cpu:               1.3 elap:               0.1
 (Enter /home/soft/g16/l302.exe)
 NPDir=0 NMtPBC=     1 NCelOv=     1 NCel=       1 NClECP=     1 NCelD=      1
         NCelK=      1 NCelE2=     1 NClLst=     1 CellRange=     0.0.
 One-electron integrals computed using PRISM.
 NBasis=   130 RedAO= T EigKep=  4.11D-05  NBF=   130
 NBsUse=   130 1.00D-06 EigRej= -1.00D+00 NBFU=   130
 Precomputing XC quadrature grid using
 IXCGrd= 4 IRadAn=           5 IRanWt=          -1 IRanGd=           0 AccXCQ= 0.00D+00.
 Generated NRdTot=       0 NPtTot=           0 NUsed=           0 NTot=          32
 NSgBfM=   130   130   130   130   130 MxSgAt=    14 MxSgA2=    14.
 Leave Link  302 at Tue Oct 15 10:33:11 2019, MaxMem=   280000000 cpu:               3.9 elap:               0.2
 (Enter /home/soft/g16/l303.exe)
 DipDrv:  MaxL=1.
 Leave Link  303 at Tue Oct 15 10:33:11 2019, MaxMem=   280000000 cpu:               1.4 elap:               0.1
 (Enter /home/soft/g16/l401.exe)
 Initial guess from the checkpoint file:  "irc4.chk"
 B after Tr=     0.072483    0.033829   -0.014761
         Rot=    1.000000    0.000104   -0.000015    0.000010 Ang=   0.01 deg.
 Guess basis will be translated and rotated to current coordinates.
 JPrj=2 DoOrth=T DoCkMO=T.
 Generating alternative initial guess.
 ExpMin= 4.38D-02 ExpMax= 5.48D+03 ExpMxC= 8.25D+02 IAcc=2 IRadAn=         4 AccDes= 0.00D+00
 Harris functional with IExCor=  402 and IRadAn=       4 diagonalized for initial guess.
 HarFok:  IExCor=  402 AccDes= 0.00D+00 IRadAn=         4 IDoV= 1 UseB2=F ITyADJ=14
 ICtDFT=  3500011 ScaDFX=  1.000000  1.000000  1.000000  1.000000
 FoFCou: FMM=F IPFlag=           0 FMFlag=      100000 FMFlg1=           0
         NFxFlg=           0 DoJE=T BraDBF=F KetDBF=T FulRan=T
         wScrn=  0.000000 ICntrl=       500 IOpCl=  0 I1Cent=   200000004 NGrid=           0
         NMat0=    1 NMatS0=      1 NMatT0=    0 NMatD0=    1 NMtDS0=    0 NMtDT0=    0
 Symmetry not used in FoFCou.
 Harris En= -270.463324096296    
 Leave Link  401 at Tue Oct 15 10:33:11 2019, MaxMem=   280000000 cpu:               8.3 elap:               0.4
 (Enter /home/soft/g16/l502.exe)
 Two-electron integral symmetry not used.
 Closed shell SCF:
 Using DIIS extrapolation, IDIIS=  1040.
 NGot=   280000000 LenX=   279961824 LenY=   279944483
 Requested convergence on RMS density matrix=1.00D-08 within 128 cycles.
 Requested convergence on MAX density matrix=1.00D-06.
 Requested convergence on             energy=1.00D-06.
 No special actions if energy rises.
 Fock matrices will be formed incrementally for  20 cycles.

 Cycle   1  Pass 1  IDiag  1:
 FoFJK:  IHMeth= 1 ICntrl=       0 DoSepK=F KAlg= 0 I1Cent=           0 FoldK=F
 IRaf= 990000000 NMat=       1 IRICut=       1 DoRegI=T DoRafI=F ISym2E= 0 IDoP0=0 IntGTp=1.
 FoFCou: FMM=F IPFlag=           0 FMFlag=      100000 FMFlg1=           0
         NFxFlg=           0 DoJE=F BraDBF=F KetDBF=F FulRan=T
         wScrn=  0.000000 ICntrl=         0 IOpCl=  0 I1Cent=           0 NGrid=           0
         NMat0=    1 NMatS0=      1 NMatT0=    0 NMatD0=    1 NMtDS0=    0 NMtDT0=    0
 Symmetry not used in FoFCou.
 E= -270.430660400751    
 DIIS: error= 5.89D-04 at cycle   1 NSaved=   1.
 NSaved= 1 IEnMin= 1 EnMin= -270.430660400751     IErMin= 1 ErrMin= 5.89D-04
 ErrMax= 5.89D-04  0.00D+00 EMaxC= 1.00D-01 BMatC= 1.17D-04 BMatP= 1.17D-04
 IDIUse=3 WtCom= 9.94D-01 WtEn= 5.89D-03
 Coeff-Com:  0.100D+01
 Coeff-En:   0.100D+01
 Coeff:      0.100D+01
 Gap=     0.450 Goal=   None    Shift=    0.000
 RMSDP=8.24D-04 MaxDP=2.38D-02              OVMax= 1.14D-02

 Cycle   2  Pass 1  IDiag  1:
 RMSU=  8.23D-04    CP:  9.99D-01
 E= -270.430950452562     Delta-E=       -0.000290051810 Rises=F Damp=F
 DIIS: error= 1.21D-04 at cycle   2 NSaved=   2.
 NSaved= 2 IEnMin= 2 EnMin= -270.430950452562     IErMin= 2 ErrMin= 1.21D-04
 ErrMax= 1.21D-04  0.00D+00 EMaxC= 1.00D-01 BMatC= 3.41D-06 BMatP= 1.17D-04
 IDIUse=3 WtCom= 9.99D-01 WtEn= 1.21D-03
 Coeff-Com: -0.498D-01 0.105D+01
 Coeff-En:   0.000D+00 0.100D+01
 Coeff:     -0.497D-01 0.105D+01
 Gap=     0.072 Goal=   None    Shift=    0.000
 RMSDP=2.21D-04 MaxDP=7.10D-03 DE=-2.90D-04 OVMax= 4.34D-03

 Cycle   3  Pass 1  IDiag  1:
 RMSU=  1.99D-04    CP:  9.97D-01  9.50D-01
 E= -270.430940350121     Delta-E=        0.000010102441 Rises=F Damp=F
 DIIS: error= 2.08D-04 at cycle   3 NSaved=   3.
 NSaved= 3 IEnMin= 2 EnMin= -270.430950452562     IErMin= 2 ErrMin= 1.21D-04
 ErrMax= 2.08D-04  0.00D+00 EMaxC= 1.00D-01 BMatC= 1.55D-05 BMatP= 3.41D-06
 IDIUse=3 WtCom= 4.09D-01 WtEn= 5.91D-01
 Coeff-Com: -0.509D-01 0.770D+00 0.281D+00
 Coeff-En:   0.000D+00 0.740D+00 0.260D+00
 Coeff:     -0.208D-01 0.753D+00 0.268D+00
 Gap=     0.072 Goal=   None    Shift=    0.000
 RMSDP=1.41D-04 MaxDP=3.55D-03 DE= 1.01D-05 OVMax= 6.47D-03

 Cycle   4  Pass 1  IDiag  1:
 RMSU=  1.09D-04    CP:  9.96D-01  1.04D+00  7.31D-01
 E= -270.430948105410     Delta-E=       -0.000007755289 Rises=F Damp=F
 DIIS: error= 2.04D-04 at cycle   4 NSaved=   4.
 NSaved= 4 IEnMin= 2 EnMin= -270.430950452562     IErMin= 2 ErrMin= 1.21D-04
 ErrMax= 2.04D-04  0.00D+00 EMaxC= 1.00D-01 BMatC= 8.05D-06 BMatP= 3.41D-06
 IDIUse=3 WtCom= 4.12D-01 WtEn= 5.88D-01
 Coeff-Com: -0.346D-01 0.383D+00 0.323D+00 0.329D+00
 Coeff-En:   0.000D+00 0.000D+00 0.414D+00 0.586D+00
 Coeff:     -0.143D-01 0.158D+00 0.376D+00 0.481D+00
 Gap=     0.072 Goal=   None    Shift=    0.000
 RMSDP=9.77D-05 MaxDP=2.60D-03 DE=-7.76D-06 OVMax= 3.65D-03

 Cycle   5  Pass 1  IDiag  1:
 RMSU=  3.57D-05    CP:  9.96D-01  1.00D+00  1.08D+00  6.10D-01
 E= -270.430957273046     Delta-E=       -0.000009167635 Rises=F Damp=F
 DIIS: error= 6.82D-05 at cycle   5 NSaved=   5.
 NSaved= 5 IEnMin= 5 EnMin= -270.430957273046     IErMin= 5 ErrMin= 6.82D-05
 ErrMax= 6.82D-05  0.00D+00 EMaxC= 1.00D-01 BMatC= 1.33D-06 BMatP= 3.41D-06
 IDIUse=1 WtCom= 1.00D+00 WtEn= 0.00D+00
 Coeff-Com: -0.101D-01 0.646D-01 0.205D+00 0.338D+00 0.402D+00
 Coeff:     -0.101D-01 0.646D-01 0.205D+00 0.338D+00 0.402D+00
 Gap=     0.072 Goal=   None    Shift=    0.000
 RMSDP=2.85D-05 MaxDP=8.47D-04 DE=-9.17D-06 OVMax= 8.67D-04

 Cycle   6  Pass 1  IDiag  1:
 RMSU=  1.16D-05    CP:  9.96D-01  1.01D+00  9.96D-01  6.79D-01  6.72D-01
 E= -270.430958730528     Delta-E=       -0.000001457482 Rises=F Damp=F
 DIIS: error= 9.25D-06 at cycle   6 NSaved=   6.
 NSaved= 6 IEnMin= 6 EnMin= -270.430958730528     IErMin= 6 ErrMin= 9.25D-06
 ErrMax= 9.25D-06  0.00D+00 EMaxC= 1.00D-01 BMatC= 3.07D-08 BMatP= 1.33D-06
 IDIUse=1 WtCom= 1.00D+00 WtEn= 0.00D+00
 Coeff-Com: -0.172D-02-0.106D-01 0.848D-01 0.153D+00 0.234D+00 0.541D+00
 Coeff:     -0.172D-02-0.106D-01 0.848D-01 0.153D+00 0.234D+00 0.541D+00
 Gap=     0.072 Goal=   None    Shift=    0.000
 RMSDP=7.79D-06 MaxDP=2.21D-04 DE=-1.46D-06 OVMax= 9.17D-05

 Cycle   7  Pass 1  IDiag  1:
 RMSU=  2.32D-06    CP:  9.96D-01  1.01D+00  1.03D+00  6.80D-01  7.03D-01
                    CP:  1.17D+00
 E= -270.430958758770     Delta-E=       -0.000000028242 Rises=F Damp=F
 DIIS: error= 3.18D-06 at cycle   7 NSaved=   7.
 NSaved= 7 IEnMin= 7 EnMin= -270.430958758770     IErMin= 7 ErrMin= 3.18D-06
 ErrMax= 3.18D-06  0.00D+00 EMaxC= 1.00D-01 BMatC= 2.55D-09 BMatP= 3.07D-08
 IDIUse=1 WtCom= 1.00D+00 WtEn= 0.00D+00
 Coeff-Com:  0.107D-02-0.178D-01 0.358D-02 0.112D-01 0.392D-01 0.267D+00
 Coeff-Com:  0.695D+00
 Coeff:      0.107D-02-0.178D-01 0.358D-02 0.112D-01 0.392D-01 0.267D+00
 Coeff:      0.695D+00
 Gap=     0.072 Goal=   None    Shift=    0.000
 RMSDP=6.10D-06 MaxDP=1.53D-04 DE=-2.82D-08 OVMax= 4.09D-05

 Cycle   8  Pass 1  IDiag  1:
 RMSU=  8.12D-07    CP:  9.96D-01  1.01D+00  1.05D+00  7.03D-01  7.39D-01
                    CP:  1.18D+00  8.44D-01
 E= -270.430958761550     Delta-E=       -0.000000002781 Rises=F Damp=F
 DIIS: error= 8.91D-07 at cycle   8 NSaved=   8.
 NSaved= 8 IEnMin= 8 EnMin= -270.430958761550     IErMin= 8 ErrMin= 8.91D-07
 ErrMax= 8.91D-07  0.00D+00 EMaxC= 1.00D-01 BMatC= 1.46D-10 BMatP= 2.55D-09
 IDIUse=1 WtCom= 1.00D+00 WtEn= 0.00D+00
 Coeff-Com:  0.434D-03-0.583D-02-0.138D-02-0.309D-02 0.510D-02 0.660D-01
 Coeff-Com:  0.244D+00 0.695D+00
 Coeff:      0.434D-03-0.583D-02-0.138D-02-0.309D-02 0.510D-02 0.660D-01
 Coeff:      0.244D+00 0.695D+00
 Gap=     0.072 Goal=   None    Shift=    0.000
 RMSDP=5.52D-07 MaxDP=1.52D-05 DE=-2.78D-09 OVMax= 8.73D-06

 Cycle   9  Pass 1  IDiag  1:
 RMSU=  1.39D-07    CP:  9.96D-01  1.01D+00  1.05D+00  7.02D-01  7.44D-01
                    CP:  1.22D+00  9.06D-01  9.87D-01
 E= -270.430958761732     Delta-E=       -0.000000000182 Rises=F Damp=F
 DIIS: error= 1.90D-07 at cycle   9 NSaved=   9.
 NSaved= 9 IEnMin= 9 EnMin= -270.430958761732     IErMin= 9 ErrMin= 1.90D-07
 ErrMax= 1.90D-07  0.00D+00 EMaxC= 1.00D-01 BMatC= 1.60D-11 BMatP= 1.46D-10
 IDIUse=1 WtCom= 1.00D+00 WtEn= 0.00D+00
 Coeff-Com:  0.870D-04-0.835D-03-0.863D-03-0.292D-02-0.173D-02 0.200D-02
 Coeff-Com:  0.425D-01 0.325D+00 0.637D+00
 Coeff:      0.870D-04-0.835D-03-0.863D-03-0.292D-02-0.173D-02 0.200D-02
 Coeff:      0.425D-01 0.325D+00 0.637D+00
 Gap=     0.072 Goal=   None    Shift=    0.000
 RMSDP=2.64D-07 MaxDP=6.81D-06 DE=-1.82D-10 OVMax= 2.56D-06

 Cycle  10  Pass 1  IDiag  1:
 RMSU=  4.47D-08    CP:  9.96D-01  1.01D+00  1.05D+00  7.02D-01  7.45D-01
                    CP:  1.22D+00  9.16D-01  1.05D+00  8.18D-01
 E= -270.430958761753     Delta-E=       -0.000000000021 Rises=F Damp=F
 DIIS: error= 3.78D-08 at cycle  10 NSaved=  10.
 NSaved=10 IEnMin=10 EnMin= -270.430958761753     IErMin=10 ErrMin= 3.78D-08
 ErrMax= 3.78D-08  0.00D+00 EMaxC= 1.00D-01 BMatC= 4.48D-13 BMatP= 1.60D-11
 IDIUse=1 WtCom= 1.00D+00 WtEn= 0.00D+00
 Coeff-Com: -0.874D-05 0.246D-03-0.127D-03-0.694D-03-0.995D-03-0.517D-02
 Coeff-Com: -0.738D-02 0.383D-01 0.183D+00 0.793D+00
 Coeff:     -0.874D-05 0.246D-03-0.127D-03-0.694D-03-0.995D-03-0.517D-02
 Coeff:     -0.738D-02 0.383D-01 0.183D+00 0.793D+00
 Gap=     0.072 Goal=   None    Shift=    0.000
 RMSDP=7.91D-08 MaxDP=2.36D-06 DE=-2.08D-11 OVMax= 6.06D-07

 Cycle  11  Pass 1  IDiag  1:
 RMSU=  2.02D-08    CP:  9.96D-01  1.01D+00  1.05D+00  7.02D-01  7.46D-01
                    CP:  1.22D+00  9.19D-01  1.07D+00  8.15D-01  1.21D+00
 E= -270.430958761755     Delta-E=       -0.000000000002 Rises=F Damp=F
 DIIS: error= 1.07D-08 at cycle  11 NSaved=  11.
 NSaved=11 IEnMin=11 EnMin= -270.430958761755     IErMin=11 ErrMin= 1.07D-08
 ErrMax= 1.07D-08  0.00D+00 EMaxC= 1.00D-01 BMatC= 3.57D-14 BMatP= 4.48D-13
 IDIUse=1 WtCom= 1.00D+00 WtEn= 0.00D+00
 Coeff-Com: -0.699D-05 0.131D-03 0.740D-05-0.137D-03-0.278D-03-0.195D-02
 Coeff-Com: -0.437D-02 0.123D-02 0.434D-01 0.308D+00 0.654D+00
 Coeff:     -0.699D-05 0.131D-03 0.740D-05-0.137D-03-0.278D-03-0.195D-02
 Coeff:     -0.437D-02 0.123D-02 0.434D-01 0.308D+00 0.654D+00
 Gap=     0.072 Goal=   None    Shift=    0.000
 RMSDP=1.44D-08 MaxDP=6.64D-07 DE=-1.99D-12 OVMax= 1.04D-07

 Cycle  12  Pass 1  IDiag  1:
 RMSU=  4.47D-09    CP:  9.96D-01  1.01D+00  1.05D+00  7.02D-01  7.46D-01
                    CP:  1.22D+00  9.19D-01  1.08D+00  8.40D-01  1.23D+00
                    CP:  9.51D-01
 E= -270.430958761754     Delta-E=        0.000000000001 Rises=F Damp=F
 DIIS: error= 3.83D-09 at cycle  12 NSaved=  12.
 NSaved=12 IEnMin=11 EnMin= -270.430958761755     IErMin=12 ErrMin= 3.83D-09
 ErrMax= 3.83D-09  0.00D+00 EMaxC= 1.00D-01 BMatC= 4.12D-15 BMatP= 3.57D-14
 IDIUse=1 WtCom= 1.00D+00 WtEn= 0.00D+00
 Coeff-Com: -0.153D-05 0.216D-04 0.134D-04-0.205D-05-0.135D-04-0.241D-03
 Coeff-Com: -0.857D-03-0.250D-02-0.460D-03 0.376D-01 0.200D+00 0.767D+00
 Coeff:     -0.153D-05 0.216D-04 0.134D-04-0.205D-05-0.135D-04-0.241D-03
 Coeff:     -0.857D-03-0.250D-02-0.460D-03 0.376D-01 0.200D+00 0.767D+00
 Gap=     0.072 Goal=   None    Shift=    0.000
 RMSDP=3.21D-09 MaxDP=8.91D-08 DE= 1.02D-12 OVMax= 5.67D-08

 SCF Done:  E(RB3LYP) =  -270.430958762     A.U. after   12 cycles
            NFock= 12  Conv=0.32D-08     -V/T= 2.0097
 KE= 2.678228556376D+02 PE=-1.104808959575D+03 EE= 3.281797998031D+02
 Leave Link  502 at Tue Oct 15 10:33:15 2019, MaxMem=   280000000 cpu:              87.1 elap:               3.7
 (Enter /home/soft/g16/l801.exe)
 DoSCS=F DFT=T ScalE2(SS,OS)=  1.000000  1.000000
 Range of M.O.s used for correlation:     1   130
 NBasis=   130 NAE=    23 NBE=    23 NFC=     0 NFV=     0
 NROrb=    130 NOA=    23 NOB=    23 NVA=   107 NVB=   107

 **** Warning!!: The largest alpha MO coefficient is  0.69002949D+02


 **** Warning!!: The smallest alpha delta epsilon is  0.71691749D-01

 Leave Link  801 at Tue Oct 15 10:33:15 2019, MaxMem=   280000000 cpu:               0.7 elap:               0.1
 (Enter /home/soft/g16/l1101.exe)
 Leave Link 1101 at Tue Oct 15 10:33:15 2019, MaxMem=   280000000 cpu:               0.5 elap:               0.0
 (Enter /home/soft/g16/l1102.exe)
 Symmetrizing basis deriv contribution to polar:
 IMax=3 JMax=2 DiffMx= 0.00D+00
 Leave Link 1102 at Tue Oct 15 10:33:15 2019, MaxMem=   280000000 cpu:               1.0 elap:               0.1
 (Enter /home/soft/g16/l1110.exe)
 Leave Link 1110 at Tue Oct 15 10:33:15 2019, MaxMem=   280000000 cpu:               0.4 elap:               0.0
 (Enter /home/soft/g16/l1002.exe)
 Minotr:  Closed shell wavefunction.
 Leave Link 1002 at Tue Oct 15 10:33:15 2019, MaxMem=   280000000 cpu:               0.9 elap:               0.1
 (Enter /home/soft/g16/l701.exe)
 ... and contract with generalized density number  0.
 Compute integral first derivatives.
 Leave Link  701 at Tue Oct 15 10:33:15 2019, MaxMem=   280000000 cpu:               2.3 elap:               0.1
 (Enter /home/soft/g16/l702.exe)
 L702 exits ... SP integral derivatives will be done elsewhere.
 Leave Link  702 at Tue Oct 15 10:33:16 2019, MaxMem=   280000000 cpu:               0.5 elap:               0.0
 (Enter /home/soft/g16/l703.exe)
 Integral derivatives from FoFJK, PRISM(SPDF).
 Compute integral first derivatives, UseDBF=F ICtDFT=           0.
 Calling FoFJK, ICntrl=      2147 FMM=F ISym2X=0 I1Cent= 0 IOpClX= 0 NMat=1 NMatS=1 NMatT=0.
 FoFJK:  IHMeth= 1 ICntrl=    2147 DoSepK=F KAlg= 0 I1Cent=           0 FoldK=F
 IRaf=         0 NMat=       1 IRICut=       1 DoRegI=T DoRafI=F ISym2E= 0 IDoP0=0 IntGTp=1.
 FoFCou: FMM=F IPFlag=           0 FMFlag=      100000 FMFlg1=         800
         NFxFlg=           0 DoJE=F BraDBF=F KetDBF=F FulRan=T
         wScrn=  0.000000 ICntrl=      2147 IOpCl=  0 I1Cent=           0 NGrid=           0
         NMat0=    1 NMatS0=      1 NMatT0=    0 NMatD0=    1 NMtDS0=    0 NMtDT0=    0
 Symmetry not used in FoFCou.
 Leave Link  703 at Tue Oct 15 10:33:16 2019, MaxMem=   280000000 cpu:              14.7 elap:               0.6
 (Enter /home/soft/g16/l716.exe)
 Dipole        = 1.57897327D-01-2.66806624D-01-3.45827445D-01
 Polarizability= 0.00000000D+00 0.00000000D+00 0.00000000D+00
                 0.00000000D+00 0.00000000D+00 0.00000000D+00
 -------------------------------------------------------------------
 Center     Atomic                   Forces (Hartrees/Bohr)
 Number     Number              X              Y              Z
 -------------------------------------------------------------------
      1        6          -0.000007656   -0.000143447   -0.000100496
      2        1           0.000002298   -0.000010890   -0.000008867
      3        1           0.000006023    0.000027231    0.000023459
      4        6          -0.000032479   -0.000221702   -0.000297328
      5        1           0.000029586    0.000091844    0.000048823
      6        8           0.000164682   -0.000128177    0.000053051
      7        6          -0.000072655    0.000247693    0.000336143
      8        1          -0.000036659    0.000018578    0.000107461
      9        1           0.000070910   -0.000052767    0.000035549
     10        6           0.000052704    0.000353919   -0.000637716
     11        1           0.000024984   -0.000238297   -0.000120481
     12        6          -0.000111334    0.000101170    0.000444600
     13        1          -0.000001171   -0.000024353    0.000104006
     14        1          -0.000089231   -0.000020802    0.000011796
 -------------------------------------------------------------------
 Cartesian Forces:  Max     0.000637716 RMS     0.000174421
 Z-matrix is all fixed cartesians, so copy forces.
 Leave Link  716 at Tue Oct 15 10:33:16 2019, MaxMem=   280000000 cpu:               0.9 elap:               0.1
 (Enter /home/soft/g16/l123.exe)
 IRC-IRC-IRC-IRC-IRC-IRC-IRC-IRC-IRC-IRC-IRC-IRC-IRC-IRC-IRC-IRC-IRC-IRC
 Pt  1 Step number   1 out of a maximum of  20
 Using modified Bulirsch-Stoer corrector integration.
   Using distance weighted interpolants to fit PES.
 PreDWI: IReCr0= 2 IReCr1= 1 IReCr2= 1 IReCr3= 1
 Modified Bulirsch-Stoer Extrapolation Cycles:
    EPS =    0.000010000000000
    Cycle     1 NS=    48
      PEZero:  N= 2 I= 1 D=  3.51D-04 Err=  7.50D-03
    Cycle     2 NS=    64 Truncation Error =  0.007496459
      PEZero:  N= 3 I= 2 D=  3.51D-04 Err=  6.31D-04
      PEZero:  N= 3 I= 1 D=  7.03D-04 Err=  6.55D-03
    Cycle     3 NS=    96 Truncation Error =  0.000631242
      PEZero:  N= 4 I= 3 D=  1.76D-04 Err=  2.80D-04
      PEZero:  N= 4 I= 2 D=  5.27D-04 Err=  2.59D-04
      PEZero:  N= 4 I= 1 D=  8.79D-04 Err=  6.89D-04
    Cycle     4 NS=   128 Truncation Error =  0.000258571
      PEZero:  N= 5 I= 4 D=  1.76D-04 Err=  1.79D-04
      PEZero:  N= 5 I= 3 D=  3.51D-04 Err=  1.04D-05
      PEZero:  N= 5 I= 2 D=  7.03D-04 Err=  1.19D-04
    Cycle     5 NS=   192 Truncation Error =  0.000010355
      PEZero:  N= 6 I= 5 D=  8.79D-05 Err=  1.33D-04
      PEZero:  N= 6 I= 4 D=  2.64D-04 Err=  2.18D-06
      PEZero:  N= 6 I= 3 D=  4.39D-04 Err=  3.59D-06
    Cycle     6 NS=   256 Truncation Error =  0.000002182
 BS completed in    6 cycles and     784 integration steps.
 Maximum DWI energy   std dev =  0.000000142 at pt    24
 Maximum DWI gradient std dev =  0.348178267 at pt     4
 SUMMARY OF CORRECTOR INTEGRATION:
   Predictor End Point Energy =  -270.430959
   Old End Point Energy       =  -270.430959
   Corrected End Point Energy =  -270.430959
   Predictor End-Start Dist.  =     0.134955
   Old End-Start Dist.        =     0.134955
   New End-Start Dist.        =     0.134903
   New End-Old End Dist.      =     0.002431
 CORRECTOR INTEGRATION CONVERGENCE:
   Recorrection delta-x convergence threshold:    0.010000
   Delta-x Convergence Met
 Point Number:   1          Path Number:   1
                    CURRENT STRUCTURE
                Cartesian Coordinates (Ang):                
 ---------------------------------------------------------------------
 Center     Atomic                     Coordinates (Angstroms)
 Number     Number                        X           Y           Z
 ---------------------------------------------------------------------
      1          6                    1.172206   -0.829008   -0.271161
      2          1                    1.951781   -1.493429    0.118095
      3          1                    1.250984   -0.865971   -1.370152
      4          6                   -0.135035   -1.302301    0.200133
      5          1                   -0.300098   -2.308110    0.573955
      6          8                   -1.270864   -0.652330   -0.027470
      7          6                   -1.189256    0.783875   -0.096396
      8          1                   -1.613909    1.047421   -1.082198
      9          1                   -1.942877    1.081006    0.645606
     10          6                    0.130938    1.406275    0.126152
     11          1                    0.156179    2.442673   -0.208386
     12          6                    1.415829    0.670978    0.138664
     13          1                    2.163159    1.145695   -0.524481
     14          1                    1.898064    0.613827    1.123964
 ---------------------------------------------------------------------
   CHANGE IN THE REACTION COORDINATE =    0.13490
   NET REACTION COORDINATE UP TO THIS POINT =    0.13490
  # OF POINTS ALONG THE PATH =   1
  # OF STEPS =   1

 Calculating another point on the path.
 Point Number  2 in FORWARD path direction.
 Using LQA Reaction Path Following.
   LQA: T_Est iteration completed in    3 iterations.
 IRC-IRC-IRC-IRC-IRC-IRC-IRC-IRC-IRC-IRC-IRC-IRC-IRC-IRC-IRC-IRC-IRC-IRC
 Leave Link  123 at Tue Oct 15 10:33:17 2019, MaxMem=   280000000 cpu:               4.7 elap:               0.3
 (Enter /home/soft/g16/l202.exe)
                          Input orientation:                          
 ---------------------------------------------------------------------
 Center     Atomic      Atomic             Coordinates (Angstroms)
 Number     Number       Type             X           Y           Z
 ---------------------------------------------------------------------
      1          6           0        1.171951   -0.830615   -0.272234
      2          1           0        1.951761   -1.495512    0.115845
      3          1           0        1.253697   -0.859705   -1.370721
      4          6           0       -0.134635   -1.305033    0.195691
      5          1           0       -0.298315   -2.305184    0.585568
      6          8           0       -1.269417   -0.653014   -0.026994
      7          6           0       -1.190114    0.785897   -0.091246
      8          1           0       -1.625381    1.054183   -1.070733
      9          1           0       -1.937939    1.073858    0.660584
     10          6           0        0.131787    1.409568    0.117133
     11          1           0        0.160658    2.437816   -0.243079
     12          6           0        1.414034    0.671313    0.145175
     13          1           0        2.168677    1.145884   -0.508958
     14          1           0        1.886895    0.606986    1.134726
 ---------------------------------------------------------------------
                    Distance matrix (angstroms):
                    1          2          3          4          5
     1  C    0.000000
     2  H    1.095808   0.000000
     3  H    1.101909   1.761086   0.000000
     4  C    1.466695   2.096594   2.139961   0.000000
     5  H    2.252079   2.437017   2.885345   1.085862   0.000000
     6  O    2.460074   3.332596   2.866082   1.327572   2.011949
     7  C    2.867965   3.888328   3.212052   2.359737   3.287577
     8  H    3.466285   4.550259   3.470165   3.064646   3.973636
     9  H    3.764118   4.693418   4.248695   3.021118   3.756584
    10  C    2.500394   3.428090   2.936323   2.728775   3.768793
    11  H    3.421434   4.336813   3.652391   3.780032   4.836669
    12  C    1.577536   2.232742   2.160478   2.511349   3.462025
    13  H    2.226219   2.722940   2.366899   3.436390   4.381085
    14  H    2.134802   2.337268   2.971429   2.936697   3.682044
                    6          7          8          9         10
     6  O    0.000000
     7  C    1.442526   0.000000
     8  H    2.032393   1.104911   0.000000
     9  H    1.975290   1.098823   1.759414   0.000000
    10  C    2.497677   1.476418   2.150572   2.166058   0.000000
    11  H    3.412483   2.139270   2.406115   2.661034   1.089899
    12  C    2.997397   2.617368   3.295916   3.415174   1.479853
    13  H    3.910091   3.403756   3.836518   4.270517   2.147194
    14  H    3.591587   3.317077   4.171344   3.882285   2.181751
                   11         12         13         14
    11  H    0.000000
    12  C    2.200506   0.000000
    13  H    2.402482   1.105710   0.000000
    14  H    2.868829   1.098611   1.752572   0.000000
 Symmetry turned off by external request.
 Stoichiometry    C5H8O
 Framework group  C1[X(C5H8O)]
 Deg. of freedom    36
 Full point group                 C1      NOp   1
 Rotational constants (GHZ):           5.1975474           4.5143268           2.5981065
 Leave Link  202 at Tue Oct 15 10:33:17 2019, MaxMem=   280000000 cpu:               0.9 elap:               0.1
 (Enter /home/soft/g16/l301.exe)
 Standard basis: 6-31+G(d) (6D, 7F)
 Ernie: Thresh=  0.10000D-02 Tol=  0.10000D-05 Strict=F.
   130 basis functions,   224 primitive gaussians,   130 cartesian basis functions
    23 alpha electrons       23 beta electrons
       nuclear repulsion energy       238.3040663414 Hartrees.
 IExCor=  402 DFT=T Ex+Corr=B3LYP ExCW=0 ScaHFX=  0.200000
 ScaDFX=  0.800000  0.720000  1.000000  0.810000 ScalE2=  1.000000  1.000000
 IRadAn=      5 IRanWt=     -1 IRanGd=            0 ICorTp=0 IEmpDi=  4
 NAtoms=   14 NActive=   14 NUniq=   14 SFac= 1.00D+00 NAtFMM=   60 NAOKFM=F Big=F
 Integral buffers will be    131072 words long.
 Raffenetti 2 integral format.
 Two-electron integral symmetry is turned off.
 Leave Link  301 at Tue Oct 15 10:33:17 2019, MaxMem=   280000000 cpu:               1.2 elap:               0.1
 (Enter /home/soft/g16/l302.exe)
 NPDir=0 NMtPBC=     1 NCelOv=     1 NCel=       1 NClECP=     1 NCelD=      1
         NCelK=      1 NCelE2=     1 NClLst=     1 CellRange=     0.0.
 One-electron integrals computed using PRISM.
 NBasis=   130 RedAO= T EigKep=  4.21D-05  NBF=   130
 NBsUse=   130 1.00D-06 EigRej= -1.00D+00 NBFU=   130
 Precomputing XC quadrature grid using
 IXCGrd= 4 IRadAn=           5 IRanWt=          -1 IRanGd=           0 AccXCQ= 0.00D+00.
 Generated NRdTot=       0 NPtTot=           0 NUsed=           0 NTot=          32
 NSgBfM=   130   130   130   130   130 MxSgAt=    14 MxSgA2=    14.
 Leave Link  302 at Tue Oct 15 10:33:17 2019, MaxMem=   280000000 cpu:               4.0 elap:               0.2
 (Enter /home/soft/g16/l303.exe)
 DipDrv:  MaxL=1.
 Leave Link  303 at Tue Oct 15 10:33:17 2019, MaxMem=   280000000 cpu:               0.5 elap:               0.0
 (Enter /home/soft/g16/l401.exe)
 Initial guess from the checkpoint file:  "irc4.chk"
 B after Tr=    -0.000064   -0.000095    0.000579
         Rot=    1.000000    0.000187   -0.000014    0.000010 Ang=   0.02 deg.
 Guess basis will be translated and rotated to current coordinates.
 JPrj=2 DoOrth=T DoCkMO=T.
 Generating alternative initial guess.
 ExpMin= 4.38D-02 ExpMax= 5.48D+03 ExpMxC= 8.25D+02 IAcc=2 IRadAn=         4 AccDes= 0.00D+00
 Harris functional with IExCor=  402 and IRadAn=       4 diagonalized for initial guess.
 HarFok:  IExCor=  402 AccDes= 0.00D+00 IRadAn=         4 IDoV= 1 UseB2=F ITyADJ=14
 ICtDFT=  3500011 ScaDFX=  1.000000  1.000000  1.000000  1.000000
 FoFCou: FMM=F IPFlag=           0 FMFlag=      100000 FMFlg1=           0
         NFxFlg=           0 DoJE=T BraDBF=F KetDBF=T FulRan=T
         wScrn=  0.000000 ICntrl=       500 IOpCl=  0 I1Cent=   200000004 NGrid=           0
         NMat0=    1 NMatS0=      1 NMatT0=    0 NMatD0=    1 NMtDS0=    0 NMtDT0=    0
 Symmetry not used in FoFCou.
 Harris En= -270.463674926845    
 Leave Link  401 at Tue Oct 15 10:33:17 2019, MaxMem=   280000000 cpu:               8.1 elap:               0.4
 (Enter /home/soft/g16/l502.exe)
 Two-electron integral symmetry not used.
 Closed shell SCF:
 Using DIIS extrapolation, IDIIS=  1040.
 NGot=   280000000 LenX=   279961824 LenY=   279944483
 Requested convergence on RMS density matrix=1.00D-08 within 128 cycles.
 Requested convergence on MAX density matrix=1.00D-06.
 Requested convergence on             energy=1.00D-06.
 No special actions if energy rises.
 Fock matrices will be formed incrementally for  20 cycles.

 Cycle   1  Pass 1  IDiag  1:
 FoFJK:  IHMeth= 1 ICntrl=       0 DoSepK=F KAlg= 0 I1Cent=           0 FoldK=F
 IRaf= 990000000 NMat=       1 IRICut=       1 DoRegI=T DoRafI=F ISym2E= 0 IDoP0=0 IntGTp=1.
 FoFCou: FMM=F IPFlag=           0 FMFlag=      100000 FMFlg1=           0
         NFxFlg=           0 DoJE=F BraDBF=F KetDBF=F FulRan=T
         wScrn=  0.000000 ICntrl=         0 IOpCl=  0 I1Cent=           0 NGrid=           0
         NMat0=    1 NMatS0=      1 NMatT0=    0 NMatD0=    1 NMtDS0=    0 NMtDT0=    0
 Symmetry not used in FoFCou.
 E= -270.430732887800    
 DIIS: error= 5.84D-04 at cycle   1 NSaved=   1.
 NSaved= 1 IEnMin= 1 EnMin= -270.430732887800     IErMin= 1 ErrMin= 5.84D-04
 ErrMax= 5.84D-04  0.00D+00 EMaxC= 1.00D-01 BMatC= 1.19D-04 BMatP= 1.19D-04
 IDIUse=3 WtCom= 9.94D-01 WtEn= 5.84D-03
 Coeff-Com:  0.100D+01
 Coeff-En:   0.100D+01
 Coeff:      0.100D+01
 Gap=     0.449 Goal=   None    Shift=    0.000
 RMSDP=8.11D-04 MaxDP=2.28D-02              OVMax= 1.17D-02

 Cycle   2  Pass 1  IDiag  1:
 RMSU=  8.10D-04    CP:  9.99D-01
 E= -270.431029212038     Delta-E=       -0.000296324239 Rises=F Damp=F
 DIIS: error= 1.20D-04 at cycle   2 NSaved=   2.
 NSaved= 2 IEnMin= 2 EnMin= -270.431029212038     IErMin= 2 ErrMin= 1.20D-04
 ErrMax= 1.20D-04  0.00D+00 EMaxC= 1.00D-01 BMatC= 3.86D-06 BMatP= 1.19D-04
 IDIUse=3 WtCom= 9.99D-01 WtEn= 1.20D-03
 Coeff-Com: -0.455D-01 0.105D+01
 Coeff-En:   0.000D+00 0.100D+01
 Coeff:     -0.454D-01 0.105D+01
 Gap=     0.072 Goal=   None    Shift=    0.000
 RMSDP=2.52D-04 MaxDP=7.96D-03 DE=-2.96D-04 OVMax= 5.55D-03

 Cycle   3  Pass 1  IDiag  1:
 RMSU=  2.29D-04    CP:  9.96D-01  9.46D-01
 E= -270.431007506516     Delta-E=        0.000021705522 Rises=F Damp=F
 DIIS: error= 2.72D-04 at cycle   3 NSaved=   3.
 NSaved= 3 IEnMin= 2 EnMin= -270.431029212038     IErMin= 2 ErrMin= 1.20D-04
 ErrMax= 2.72D-04  0.00D+00 EMaxC= 1.00D-01 BMatC= 2.52D-05 BMatP= 3.86D-06
 IDIUse=3 WtCom= 3.77D-01 WtEn= 6.23D-01
 Coeff-Com: -0.516D-01 0.806D+00 0.246D+00
 Coeff-En:   0.000D+00 0.807D+00 0.193D+00
 Coeff:     -0.195D-01 0.807D+00 0.213D+00
 Gap=     0.072 Goal=   None    Shift=    0.000
 RMSDP=1.46D-04 MaxDP=3.35D-03 DE= 2.17D-05 OVMax= 6.80D-03

 Cycle   4  Pass 1  IDiag  1:
 RMSU=  1.05D-04    CP:  9.96D-01  1.03D+00  6.80D-01
 E= -270.431032475851     Delta-E=       -0.000024969335 Rises=F Damp=F
 DIIS: error= 1.47D-04 at cycle   4 NSaved=   4.
 NSaved= 4 IEnMin= 4 EnMin= -270.431032475851     IErMin= 2 ErrMin= 1.20D-04
 ErrMax= 1.47D-04  0.00D+00 EMaxC= 1.00D-01 BMatC= 4.29D-06 BMatP= 3.86D-06
 IDIUse=3 WtCom= 4.52D-01 WtEn= 5.48D-01
 Coeff-Com: -0.350D-01 0.381D+00 0.240D+00 0.415D+00
[...]
     10        6          -0.000670305   -0.012051036    0.004438273
     11        1          -0.000117693   -0.000980526    0.002714406
     12        6           0.000197091   -0.000046155   -0.003771663
     13        1          -0.000588313    0.000231742   -0.000193238
     14        1           0.000341260    0.000186993   -0.000407813
 -------------------------------------------------------------------
 Cartesian Forces:  Max     0.012051036 RMS     0.003242582
 Z-matrix is all fixed cartesians, so copy forces.
 Leave Link  716 at Tue Oct 15 10:42:45 2019, MaxMem=   280000000 cpu:               0.5 elap:               0.0
 (Enter /home/soft/g16/l123.exe)
 IRC-IRC-IRC-IRC-IRC-IRC-IRC-IRC-IRC-IRC-IRC-IRC-IRC-IRC-IRC-IRC-IRC-IRC
 Pt 80 Step number   1 out of a maximum of  20
 Using modified Bulirsch-Stoer corrector integration.
   Using distance weighted interpolants to fit PES.
 PreDWI: IReCr0= 2 IReCr1= 1 IReCr2= 1 IReCr3= 1
 Modified Bulirsch-Stoer Extrapolation Cycles:
    EPS =    0.000010000000000
    Cycle     1 NS=    48
      PEZero:  N= 2 I= 1 D=  7.03D-04 Err=  4.45D-05
    Cycle     2 NS=    64 Truncation Error =  0.000044507
      PEZero:  N= 3 I= 2 D=  7.03D-04 Err=  2.96D-05
      PEZero:  N= 3 I= 1 D=  1.41D-03 Err=  1.89D-07
    Cycle     3 NS=    96 Truncation Error =  0.000000189
 BS completed in    3 cycles and     208 integration steps.
 Maximum DWI energy   std dev =  0.000002285 at pt    23
 Maximum DWI gradient std dev =  0.047215273 at pt    57
 SUMMARY OF CORRECTOR INTEGRATION:
   Predictor End Point Energy =  -270.445636
   Old End Point Energy       =  -270.445636
   Corrected End Point Energy =  -270.445639
   Predictor End-Start Dist.  =     0.134924
   Old End-Start Dist.        =     0.134924
   New End-Start Dist.        =     0.134848
   New End-Old End Dist.      =     0.004788
 CORRECTOR INTEGRATION CONVERGENCE:
   Recorrection delta-x convergence threshold:    0.010000
   Delta-x Convergence Met
 Point Number:  40          Path Number:   2
                    CURRENT STRUCTURE
                Cartesian Coordinates (Ang):                
 ---------------------------------------------------------------------
 Center     Atomic                     Coordinates (Angstroms)
 Number     Number                        X           Y           Z
 ---------------------------------------------------------------------
      1          6                    1.190931   -0.820188   -0.272523
      2          1                    1.973658   -1.424226    0.200571
      3          1                    1.134650   -1.141629   -1.328234
      4          6                   -0.131551   -1.070854    0.417436
      5          1                   -0.277224   -2.037318    0.907555
      6          8                   -1.294778   -0.650916   -0.150645
      7          6                   -1.162662    0.773434   -0.248011
      8          1                   -1.196696    1.068464   -1.312000
      9          1                   -2.047708    1.186474    0.247153
     10          6                    0.103576    1.147539    0.462007
     11          1                    0.085245    2.134618    0.933403
     12          6                    1.421295    0.683098   -0.098433
     13          1                    1.747773    1.204851   -1.020321
     14          1                    2.206926    0.852190    0.646665
 ---------------------------------------------------------------------
   CHANGE IN THE REACTION COORDINATE =    0.13485
   NET REACTION COORDINATE UP TO THIS POINT =    5.39245
  # OF POINTS ALONG THE PATH =  80
  # OF STEPS =   1

 Maximum number of steps reached.
 Calculation of REVERSE path complete.
 Reaction path calculation complete.
 
 Energies reported relative to the TS energy of        -270.430933
 --------------------------------------------------------------------------
    Summary of reaction path following
 --------------------------------------------------------------------------
                        Energy    RxCoord
   1                   -0.01471  -5.39245
   2                   -0.01380  -5.25761
   3                   -0.01296  -5.12278
   4                   -0.01221  -4.98793
   5                   -0.01152  -4.85310
   6                   -0.01088  -4.71835
   7                   -0.01031  -4.58355
   8                   -0.00977  -4.44884
   9                   -0.00928  -4.31397
  10                   -0.00883  -4.17915
  11                   -0.00841  -4.04429
  12                   -0.00801  -3.90950
  13                   -0.00764  -3.77473
  14                   -0.00728  -3.63990
  15                   -0.00693  -3.50509
  16                   -0.00660  -3.37031
  17                   -0.00627  -3.23546
  18                   -0.00595  -3.10070
  19                   -0.00562  -2.96585
  20                   -0.00530  -2.83100
  21                   -0.00498  -2.69626
  22                   -0.00467  -2.56187
  23                   -0.00435  -2.42749
  24                   -0.00402  -2.29278
  25                   -0.00370  -2.15796
  26                   -0.00337  -2.02306
  27                   -0.00305  -1.88844
  28                   -0.00274  -1.75365
  29                   -0.00242  -1.61889
  30                   -0.00211  -1.48401
  31                   -0.00181  -1.34909
  32                   -0.00152  -1.21418
  33                   -0.00125  -1.07926
  34                   -0.00099  -0.94434
  35                   -0.00075  -0.80943
  36                   -0.00054  -0.67452
  37                   -0.00036  -0.53961
  38                   -0.00021  -0.40470
  39                   -0.00010  -0.26979
  40                   -0.00002  -0.13490
  41                    0.00000   0.00000
  42                   -0.00003   0.13490
  43                   -0.00011   0.26980
  44                   -0.00024   0.40470
  45                   -0.00044   0.53961
  46                   -0.00070   0.67452
  47                   -0.00103   0.80943
  48                   -0.00143   0.94434
  49                   -0.00189   1.07925
  50                   -0.00243   1.21416
  51                   -0.00303   1.34907
  52                   -0.00370   1.48399
  53                   -0.00445   1.61889
  54                   -0.00526   1.75380
  55                   -0.00615   1.88870
  56                   -0.00710   2.02358
  57                   -0.00814   2.15837
  58                   -0.00924   2.29320
  59                   -0.01043   2.42794
  60                   -0.01171   2.56272
  61                   -0.01307   2.69747
  62                   -0.01454   2.83228
  63                   -0.01612   2.96713
  64                   -0.01781   3.10193
  65                   -0.01962   3.23668
  66                   -0.02156   3.37142
  67                   -0.02363   3.50614
  68                   -0.02582   3.64092
  69                   -0.02813   3.77575
  70                   -0.03056   3.91061
  71                   -0.03308   4.04549
  72                   -0.03570   4.18037
  73                   -0.03837   4.31526
  74                   -0.04110   4.45013
  75                   -0.04387   4.58502
  76                   -0.04665   4.71990
  77                   -0.04942   4.85479
  78                   -0.05218   4.98968
  79                   -0.05492   5.12457
  80                   -0.05761   5.25946
  81                   -0.06025   5.39436
 --------------------------------------------------------------------------
 
 Total number of points:                   80
 Total number of gradient calculations:   102
 Total number of Hessian calculations:      1
 IRC-IRC-IRC-IRC-IRC-IRC-IRC-IRC-IRC-IRC-IRC-IRC-IRC-IRC-IRC-IRC-IRC-IRC
 Leave Link  123 at Tue Oct 15 10:42:46 2019, MaxMem=   280000000 cpu:               1.3 elap:               0.1
 (Enter /home/soft/g16/l202.exe)
                          Input orientation:                          
 ---------------------------------------------------------------------
 Center     Atomic      Atomic             Coordinates (Angstroms)
 Number     Number       Type             X           Y           Z
 ---------------------------------------------------------------------
      1          6           0        1.190948   -0.820167   -0.272533
      2          1           0        1.973636   -1.424188    0.200641
      3          1           0        1.134528   -1.141962   -1.328372
      4          6           0       -0.131553   -1.070881    0.417464
      5          1           0       -0.277206   -2.037410    0.908072
      6          8           0       -1.294793   -0.650901   -0.150687
      7          6           0       -1.162678    0.773393   -0.248051
      8          1           0       -1.196461    1.068626   -1.312202
      9          1           0       -2.047765    1.186481    0.246988
     10          6           0        0.103551    1.147686    0.462386
     11          1           0        0.085292    2.133868    0.931727
     12          6           0        1.421357    0.683081   -0.098479
     13          1           0        1.747582    1.205015   -1.020629
     14          1           0        2.206752    0.852077    0.646432
 ---------------------------------------------------------------------
                    Distance matrix (angstroms):
                    1          2          3          4          5
     1  C    0.000000
     2  H    1.096055   0.000000
     3  H    1.105229   1.766815   0.000000
     4  C    1.512602   2.145614   2.157767   0.000000
     5  H    2.242986   2.437784   2.792222   1.093659   0.000000
     6  O    2.494475   3.376986   2.744026   1.360994   2.019619
     7  C    2.842462   3.855795   3.180068   2.215282   3.165643
     8  H    3.216858   4.307242   3.212549   2.950130   3.927099
     9  H    3.845231   4.794728   4.246221   2.965909   3.737029
    10  C    2.365372   3.190653   3.084188   2.231442   3.238588
    11  H    3.376246   4.093909   4.115823   3.252983   4.187066
    12  C    1.530731   2.198880   2.219389   2.398773   3.361448
    13  H    2.229540   2.907802   2.445167   3.283133   4.281703
    14  H    2.161655   2.331192   3.004281   3.036093   3.819376
                    6          7          8          9         10
     6  O    0.000000
     7  C    1.433718   0.000000
     8  H    2.077393   1.104863   0.000000
     9  H    2.025114   1.095027   1.780360   0.000000
    10  C    2.359267   1.499384   2.201238   2.162421   0.000000
    11  H    3.291077   2.190935   2.795147   2.432353   1.092322
    12  C    3.026500   2.589935   2.911141   3.522437   1.505669
    13  H    3.668415   3.041840   2.961589   4.001482   2.214827
    14  H    3.892962   3.487025   3.932556   4.286291   2.131832
                   11         12         13         14
    11  H    0.000000
    12  C    2.225123   0.000000
    13  H    2.727209   1.108692   0.000000
    14  H    2.494989   1.095580   1.764793   0.000000
 Symmetry turned off by external request.
 Stoichiometry    C5H8O
 Framework group  C1[X(C5H8O)]
 Deg. of freedom    36
 Full point group                 C1      NOp   1
 Rotational constants (GHZ):           5.7815384           4.3068320           2.8433933
 Leave Link  202 at Tue Oct 15 10:42:46 2019, MaxMem=   280000000 cpu:               0.4 elap:               0.0
 (Enter /home/soft/g16/l601.exe)
 Copying SCF densities to generalized density rwf, IOpCl= 0 IROHF=0.

 **********************************************************************

            Population analysis using the SCF density.

 **********************************************************************

 Alpha  occ. eigenvalues --  -19.18586 -10.26855 -10.24529 -10.19732 -10.19634
 Alpha  occ. eigenvalues --  -10.19161  -1.07648  -0.81049  -0.75813  -0.65300
 Alpha  occ. eigenvalues --   -0.63553  -0.53286  -0.50984  -0.49293  -0.47213
 Alpha  occ. eigenvalues --   -0.43250  -0.41674  -0.40536  -0.36093  -0.34494
 Alpha  occ. eigenvalues --   -0.33929  -0.29236  -0.18955
 Alpha virt. eigenvalues --   -0.06560   0.00775   0.02233   0.02670   0.03006
 Alpha virt. eigenvalues --    0.04788   0.05230   0.06033   0.06396   0.07116
 Alpha virt. eigenvalues --    0.09693   0.10294   0.10793   0.11622   0.12337
 Alpha virt. eigenvalues --    0.13166   0.13814   0.16459   0.16773   0.17109
 Alpha virt. eigenvalues --    0.17654   0.20019   0.20852   0.21320   0.23804
 Alpha virt. eigenvalues --    0.24328   0.24643   0.26504   0.27302   0.28174
 Alpha virt. eigenvalues --    0.29967   0.31533   0.33135   0.34176   0.35612
 Alpha virt. eigenvalues --    0.36024   0.36597   0.39971   0.40818   0.60559
 Alpha virt. eigenvalues --    0.62801   0.66068   0.67385   0.68062   0.69820
 Alpha virt. eigenvalues --    0.70676   0.72462   0.74326   0.77459   0.80485
 Alpha virt. eigenvalues --    0.83772   0.86532   0.89343   0.91709   0.94439
 Alpha virt. eigenvalues --    0.96840   0.99719   1.02991   1.06034   1.08132
 Alpha virt. eigenvalues --    1.08587   1.13547   1.15372   1.20128   1.24636
 Alpha virt. eigenvalues --    1.29425   1.31057   1.37205   1.39429   1.45665
 Alpha virt. eigenvalues --    1.49195   1.58125   1.64595   1.68663   1.73610
 Alpha virt. eigenvalues --    1.77397   1.79861   1.86235   1.89988   1.94971
 Alpha virt. eigenvalues --    1.99335   2.00096   2.04193   2.08474   2.10777
 Alpha virt. eigenvalues --    2.17515   2.21770   2.24885   2.28293   2.35421
 Alpha virt. eigenvalues --    2.38227   2.41543   2.46276   2.53736   2.62949
 Alpha virt. eigenvalues --    2.66400   2.69614   2.76915   2.83776   2.88241
 Alpha virt. eigenvalues --    2.98438   4.22028   4.22249   4.32004   4.42155
 Alpha virt. eigenvalues --    4.51310   4.67307
          Condensed to atoms (all electrons):
               1          2          3          4          5          6
     1  C    6.653979   0.407212   0.338177  -0.477104  -0.060483  -0.068579
     2  H    0.407212   0.509789  -0.029554  -0.046008  -0.001806   0.006478
     3  H    0.338177  -0.029554   0.518505   0.015950   0.001081  -0.009576
     4  C   -0.477104  -0.046008   0.015950   6.035883   0.363236   0.151233
     5  H   -0.060483  -0.001806   0.001081   0.363236   0.553969  -0.061237
     6  O   -0.068579   0.006478  -0.009576   0.151233  -0.061237   8.291023
     7  C    0.043917  -0.004356  -0.003948  -0.262469   0.023901   0.163141
     8  H   -0.011296  -0.000042   0.001806   0.037645  -0.000556  -0.045763
     9  H   -0.009496   0.000024  -0.000056   0.007212   0.000138  -0.063719
    10  C    0.012797   0.024254  -0.001637   0.179319  -0.017601  -0.159879
    11  H    0.028926  -0.000177  -0.000229  -0.015518  -0.000065   0.011948
    12  C   -0.343759  -0.068315  -0.048295   0.114512   0.022333   0.027531
    13  H   -0.087602   0.002519   0.000675   0.071848  -0.000223  -0.001414
    14  H   -0.058851  -0.008936   0.002509  -0.015316  -0.000064   0.000393
               7          8          9         10         11         12
     1  C    0.043917  -0.011296  -0.009496   0.012797   0.028926  -0.343759
     2  H   -0.004356  -0.000042   0.000024   0.024254  -0.000177  -0.068315
     3  H   -0.003948   0.001806  -0.000056  -0.001637  -0.000229  -0.048295
     4  C   -0.262469   0.037645   0.007212   0.179319  -0.015518   0.114512
     5  H    0.023901  -0.000556   0.000138  -0.017601  -0.000065   0.022333
     6  O    0.163141  -0.045763  -0.063719  -0.159879   0.011948   0.027531
     7  C    5.449322   0.362948   0.418592   0.254283  -0.046070  -0.049803
     8  H    0.362948   0.550076  -0.040901  -0.045553   0.002911  -0.013856
     9  H    0.418592  -0.040901   0.537859  -0.070669  -0.005592   0.025368
    10  C    0.254283  -0.045553  -0.070669   5.570395   0.361564  -0.048066
    11  H   -0.046070   0.002911  -0.005592   0.361564   0.540301  -0.045284
    12  C   -0.049803  -0.013856   0.025368  -0.048066  -0.045284   6.131123
    13  H   -0.033059   0.002927   0.000012  -0.093276   0.000349   0.420790
    14  H    0.015171  -0.000016  -0.000158  -0.052827  -0.003799   0.430465
              13         14
     1  C   -0.087602  -0.058851
     2  H    0.002519  -0.008936
     3  H    0.000675   0.002509
     4  C    0.071848  -0.015316
     5  H   -0.000223  -0.000064
     6  O   -0.001414   0.000393
     7  C   -0.033059   0.015171
     8  H    0.002927  -0.000016
     9  H    0.000012  -0.000158
    10  C   -0.093276  -0.052827
    11  H    0.000349  -0.003799
    12  C    0.420790   0.430465
    13  H    0.567901  -0.039052
    14  H   -0.039052   0.521511
 Mulliken charges:
               1
     1  C   -0.367837
     2  H    0.208918
     3  H    0.214592
     4  C   -0.160422
     5  H    0.177377
     6  O   -0.241579
     7  C   -0.331570
     8  H    0.199672
     9  H    0.201387
    10  C    0.086896
    11  H    0.170733
    12  C   -0.554744
    13  H    0.187604
    14  H    0.208972
 Sum of Mulliken charges =   0.00000
 Mulliken charges with hydrogens summed into heavy atoms:
               1
     1  C    0.055673
     4  C    0.016955
     6  O   -0.241579
     7  C    0.069489
    10  C    0.257630
    12  C   -0.158168
 APT charges:
               1
     1  C   -0.718237
     2  H    0.527290
     3  H    0.402403
     4  C   -0.646282
     5  H    0.530125
     6  O   -0.203995
     7  C   -0.783598
     8  H    0.409745
     9  H    0.540228
    10  C   -0.405929
    11  H    0.511013
    12  C   -1.098195
    13  H    0.417615
    14  H    0.517818
 Sum of APT charges =   0.00000
 APT charges with hydrogens summed into heavy atoms:
               1
     1  C    0.211456
     4  C   -0.116158
     6  O   -0.203995
     7  C    0.166375
    10  C    0.105084
    12  C   -0.162763
 Electronic spatial extent (au):  <R**2>=            500.5091
 Charge=              0.0000 electrons
 Dipole moment (field-independent basis, Debye):
    X=              0.9829    Y=              0.3879    Z=             -0.5808  Tot=              1.2057
 Quadrupole moment (field-independent basis, Debye-Ang):
   XX=            -38.1498   YY=            -35.3156   ZZ=            -39.5713
   XY=             -2.9543   XZ=              0.1195   YZ=             -1.1947
 Traceless Quadrupole moment (field-independent basis, Debye-Ang):
   XX=             -0.4709   YY=              2.3633   ZZ=             -1.8924
   XY=             -2.9543   XZ=              0.1195   YZ=             -1.1947
 Octapole moment (field-independent basis, Debye-Ang**2):
  XXX=             -7.2560  YYY=             -7.7918  ZZZ=             -5.7574  XYY=             -3.3329
  XXY=              2.7096  XXZ=              2.6943  XZZ=             -3.0965  YZZ=             -2.1081
  YYZ=              3.1331  XYZ=              1.0253
 Hexadecapole moment (field-independent basis, Debye-Ang**3):
 XXXX=           -334.2610 YYYY=           -255.8435 ZZZZ=           -105.5895 XXXY=             -7.7053
 XXXZ=              4.6343 YYYX=              1.4454 YYYZ=             -3.5660 ZZZX=              2.1514
 ZZZY=             -3.9804 XXYY=            -99.5082 XXZZ=            -72.1031 YYZZ=            -57.7683
 XXYZ=             -1.3546 YYXZ=             -0.0244 ZZXY=              0.4497
 N-N= 2.413576470827D+02 E-N=-1.110977759005D+03  KE= 2.678399253990D+02
  Exact polarizability:   0.000   0.000   0.000   0.000   0.000   0.000
 Approx polarizability:  90.458   9.396 169.178   0.874   0.107  85.074
 No NMR shielding tensors so no spin-rotation constants.
 Leave Link  601 at Tue Oct 15 10:42:46 2019, MaxMem=   280000000 cpu:               2.3 elap:               0.1
 (Enter /home/soft/g16/l9999.exe)

 This type of calculation cannot be archived.


 DESK:  A WASTEBASKET WITH DRAWERS.
 Job cpu time:       0 days  3 hours 37 minutes 15.1 seconds.
 Elapsed time:       0 days  0 hours  9 minutes 58.1 seconds.
 File lengths (MBytes):  RWF=    332 Int=      0 D2E=      0 Chk=      8 Scr=      8
 Normal termination of Gaussian 16 at Tue Oct 15 10:42:46 2019.
