 Entering Gaussian System, Link 0=g16
 Input=irc4.gjf
 Output=irc4.log
 Initial command:
 /home/soft/g16/l1.exe "/tmp/gaussian/Gau-211613.inp" -scrdir="/tmp/gaussian/"
 Entering Link 1 = /home/soft/g16/l1.exe PID=    211614.
  
 Copyright (c) 1988,1990,1992,1993,1995,1998,2003,2009,2016,
            Gaussian, Inc.  All Rights Reserved.
  
 This is part of the Gaussian(R) 16 program.  It is based on
 the Gaussian(R) 09 system (copyright 2009, Gaussian, Inc.),
 the Gaussian(R) 03 system (copyright 2003, Gaussian, Inc.),
 the Gaussian(R) 98 system (copyright 1998, Gaussian, Inc.),
 the Gaussian(R) 94 system (copyright 1995, Gaussian, Inc.),
 the Gaussian 92(TM) system (copyright 1992, Gaussian, Inc.),
 the Gaussian 90(TM) system (copyright 1990, Gaussian, Inc.),
 the Gaussian 88(TM) system (copyright 1988, Gaussian, Inc.),
 the Gaussian 86(TM) system (copyright 1986, Carnegie Mellon
 University), and the Gaussian 82(TM) system (copyright 1983,
 Carnegie Mellon University). Gaussian is a federally registered
 trademark of Gaussian, Inc.
  
 This software contains proprietary and confidential information,
 including trade secrets, belonging to Gaussian, Inc.
  
 This software is provided under written license and may be
 used, copied, transmitted, or stored only in accord with that
 written license.
  
 The following legend is applicable only to US Government
 contracts under FAR:
  
                    RESTRICTED RIGHTS LEGEND
  
 Use, reproduction and disclosure by the US Government is
 subject to restrictions as set forth in subparagraphs (a)
 and (c) of the Commercial Computer Software - Restricted
 Rights clause in FAR 52.227-19.
  
 Gaussian, Inc.
 340 Quinnipiac St., Bldg. 40, Wallingford CT 06492
  
  
 ---------------------------------------------------------------
 Warning -- This program may not be used in any manner that
 competes with the business of Gaussian, Inc. or will provide
 assistance to any competitor of Gaussian, Inc.  The licensee
 of this program is prohibited from giving any competitor of
 Gaussian, Inc. access to this program.  By using this program,
 the user acknowledges that Gaussian, Inc. is engaged in the
 business of creating and licensing software in the field of
 computational chemistry and represents and warrants to the
 licensee that it is not a competitor of Gaussian, Inc. and that
 it will not use this program in any manner prohibited above.
 ---------------------------------------------------------------
  

 Cite this work as:
 Gaussian 16, Revision A.03,
 M. J. Frisch, G. W. Trucks, H. B. Schlegel, G. E. Scuseria, 
 M. A. Robb, J. R. Cheeseman, G. Scalmani, V. Barone, 
 G. A. Petersson, H. Nakatsuji, X. Li, M. Caricato, A. V. Marenich, 
 J. Bloino, B. G. Janesko, R. Gomperts, B. Mennucci, H. P. Hratchian, 
 J. V. Ortiz, A. F. Izmaylov, J. L. Sonnenberg, D. Williams-Young, 
 F. Ding, F. Lipparini, F. Egidi, J. Goings, B. Peng, A. Petrone, 
 T. Henderson, D. Ranasinghe, V. G. Zakrzewski, J. Gao, N. Rega, 
 G. Zheng, W. Liang, M. Hada, M. Ehara, K. Toyota, R. Fukuda, 
 J. Hasegawa, M. Ishida, T. Nakajima, Y. Honda, O. Kitao, H. Nakai, 
 T. Vreven, K. Throssell, J. A. Montgomery, Jr., J. E. Peralta, 
 F. Ogliaro, M. J. Bearpark, J. J. Heyd, E. N. Brothers, K. N. Kudin, 
 V. N. Staroverov, T. A. Keith, R. Kobayashi, J. Normand, 
 K. Raghavachari, A. P. Rendell, J. C. Burant, S. S. Iyengar, 
 J. Tomasi, M. Cossi, J. M. Millam, M. Klene, C. Adamo, R. Cammi, 
 J. W. Ochterski, R. L. Martin, K. Morokuma, O. Farkas, 
 J. B. Foresman, and D. J. Fox, Gaussian, Inc., Wallingford CT, 2016.
 
 ******************************************
 Gaussian 16:  ES64L-G16RevA.03 25-Dec-2016
                15-Oct-2019 
 ******************************************
 %chk=irc4.chk
 %nprocshared=24
 Will use up to   24 processors via shared memory.
 ------------------------------------------------------------
 #p irc=(lqa,calcfc,maxpoints=50,stepsize=20) b3lyp/6-31+g(d)
 ------------------------------------------------------------
 1/10=4,18=10,26=3,38=1,39=20,42=50,44=3,45=2,172=1/1,23;
 2/12=2,17=6,18=5,29=1,40=1/2;
 3/5=1,6=6,7=11,11=2,25=1,30=1,71=2,74=-5,140=1/1,2,3;
 4//1;
 5/5=2,38=5/2;
 8/6=4,10=90,11=11/1;
 11/6=1,8=1,9=11,15=111,16=1/1,2,10;
 10/6=1,13=1/2;
 6/7=2,8=2,9=2,10=2,28=1/1;
 7/10=1,18=20,25=1/1,2,3,16;
 1/10=4,18=10,26=3,39=20,42=50,44=3,45=2/23(2);
 2/29=1/2;
 99/5=20/99;
 2/29=1/2;
 3/5=1,6=6,7=11,11=2,25=1,30=1,71=2,74=-5,140=1/1,2,3;
 4/5=5,16=3,69=1/1;
 5/5=2,38=5/2;
 8/6=4,10=90,11=11/1;
 11/6=1,8=1,9=11,15=111,16=1/1,2,10;
 10/6=1,13=1/2;
 7/10=1,18=20,25=1/1,2,3,16;
 1/18=10,26=3,39=20,42=50,44=3,45=2/23(-8);
 2/29=1/2;
 6/7=2,8=2,9=2,10=2,19=2,28=1/1;
 99/5=20,9=1/99;
 Leave Link    1 at Tue Oct 15 11:19:14 2019, MaxMem=           0 cpu:               3.2 elap:               0.1
 (Enter /home/soft/g16/l101.exe)
 -------------------
 Title Card Required
 -------------------
 Symbolic Z-matrix:
 Charge =  0 Multiplicity = 1
 C                     1.13406  -0.84534  -0.26198 
 H                     1.91342  -1.50927   0.12843 
 H                     1.20979  -0.89021  -1.36148 
 C                    -0.17382  -1.31748   0.21281 
 H                    -0.34025  -2.32893   0.57065 
 O                    -1.31071  -0.66962  -0.01992 
 C                    -1.22679   0.76391  -0.09346 
 H                    -1.64087   1.02281  -1.08553 
 H                    -1.98615   1.07014   0.63881 
 C                     0.0917    1.385     0.14326 
 H                     0.11334   2.42946  -0.16586 
 C                     1.37923   0.65268   0.14022 
 H                     2.11918   1.12755  -0.532 
 H                     1.87088   0.60275   1.12126 
 
 ITRead=  0  0  0  0  0  0  0  0  0  0  0  0  0  0
 MicOpt= -1 -1 -1 -1 -1 -1 -1 -1 -1 -1 -1 -1 -1 -1
 NAtoms=     14 NQM=       14 NQMF=       0 NMMI=      0 NMMIF=      0
                NMic=       0 NMicF=      0.
                    Isotopes and Nuclear Properties:
 (Nuclear quadrupole moments (NQMom) in fm**2, nuclear magnetic moments (NMagM)
  in nuclear magnetons)

  Atom         1           2           3           4           5           6           7           8           9          10
 IAtWgt=          12           1           1          12           1          16          12           1           1          12
 AtmWgt=  12.0000000   1.0078250   1.0078250  12.0000000   1.0078250  15.9949146  12.0000000   1.0078250   1.0078250  12.0000000
 NucSpn=           0           1           1           0           1           0           0           1           1           0
 AtZEff=  -0.0000000  -0.0000000  -0.0000000  -0.0000000  -0.0000000  -0.0000000  -0.0000000  -0.0000000  -0.0000000  -0.0000000
 NQMom=    0.0000000   0.0000000   0.0000000   0.0000000   0.0000000   0.0000000   0.0000000   0.0000000   0.0000000   0.0000000
 NMagM=    0.0000000   2.7928460   2.7928460   0.0000000   2.7928460   0.0000000   0.0000000   2.7928460   2.7928460   0.0000000
 AtZNuc=   6.0000000   1.0000000   1.0000000   6.0000000   1.0000000   8.0000000   6.0000000   1.0000000   1.0000000   6.0000000

  Atom        11          12          13          14
 IAtWgt=           1          12           1           1
 AtmWgt=   1.0078250  12.0000000   1.0078250   1.0078250
 NucSpn=           1           0           1           1
 AtZEff=  -0.0000000  -0.0000000  -0.0000000  -0.0000000
 NQMom=    0.0000000   0.0000000   0.0000000   0.0000000
 NMagM=    2.7928460   0.0000000   2.7928460   2.7928460
 AtZNuc=   1.0000000   6.0000000   1.0000000   1.0000000
 Leave Link  101 at Tue Oct 15 11:19:15 2019, MaxMem=   280000000 cpu:               3.0 elap:               0.2
 (Enter /home/soft/g16/l123.exe)
 IRC-IRC-IRC-IRC-IRC-IRC-IRC-IRC-IRC-IRC-IRC-IRC-IRC-IRC-IRC-IRC-IRC-IRC
 ------------------------------------------------------------------------
 INPUT DATA FOR L123
 ------------------------------------------------------------------------
 GENERAL PARAMETERS:
 Follow reaction path in both directions.
 Maximum points per path      =  50
 Step size                    =   0.200 bohr
 Integration scheme           = LQA                                 
 Initial Hessian              = CalcFC
 Hessian evaluation           = All updating
 Hessian updating method      = Bofill                              
 ------------------------------------------------------------------------
 IRC-IRC-IRC-IRC-IRC-IRC-IRC-IRC-IRC-IRC-IRC-IRC-IRC-IRC-IRC-IRC-IRC-IRC
 Leave Link  123 at Tue Oct 15 11:19:15 2019, MaxMem=   280000000 cpu:               0.7 elap:               0.1
 (Enter /home/soft/g16/l202.exe)
                          Input orientation:                          
 ---------------------------------------------------------------------
 Center     Atomic      Atomic             Coordinates (Angstroms)
 Number     Number       Type             X           Y           Z
 ---------------------------------------------------------------------
      1          6           0        1.134057   -0.845338   -0.261978
      2          1           0        1.913422   -1.509268    0.128428
      3          1           0        1.209794   -0.890206   -1.361481
      4          6           0       -0.173816   -1.317483    0.212810
      5          1           0       -0.340250   -2.328931    0.570647
      6          8           0       -1.310708   -0.669615   -0.019924
      7          6           0       -1.226785    0.763911   -0.093461
      8          1           0       -1.640868    1.022812   -1.085532
      9          1           0       -1.986149    1.070137    0.638806
     10          6           0        0.091699    1.384999    0.143261
     11          1           0        0.113340    2.429464   -0.165864
     12          6           0        1.379230    0.652680    0.140223
     13          1           0        2.119183    1.127547   -0.531998
     14          1           0        1.870883    0.602753    1.121255
 ---------------------------------------------------------------------
                    Distance matrix (angstroms):
                    1          2          3          4          5
     1  C    0.000000
     2  H    1.095732   0.000000
     3  H    1.103021   1.760159   0.000000
     4  C    1.469312   2.097728   2.139003   0.000000
     5  H    2.251198   2.438533   2.864557   1.085714   0.000000
     6  O    2.462995   3.334972   2.863803   1.329068   2.010943
     7  C    2.862107   3.882973   3.206383   2.352604   3.285218
     8  H    3.445059   4.529692   3.444134   3.052034   3.958373
     9  H    3.770430   4.703240   4.249488   3.027665   3.777207
    10  C    2.495021   3.419894   2.948040   2.716384   3.763312
    11  H    3.431535   4.340566   3.694851   3.776965   4.836374
    12  C    1.570329   2.226998   2.159704   2.509734   3.468700
    13  H    2.221634   2.726040   2.363548   3.433767   4.383136
    14  H    2.133826   2.334127   2.971522   2.948453   3.713092
                    6          7          8          9         10
     6  O    0.000000
     7  C    1.437862   0.000000
     8  H    2.027026   1.105757   0.000000
     9  H    1.979112   1.098464   1.759204   0.000000
    10  C    2.492953   1.476546   2.154739   2.159202   0.000000
    11  H    3.413723   2.138982   2.429342   2.627378   1.089465
    12  C    3.001646   2.618835   3.280315   3.427628   1.481228
    13  H    3.905914   3.394120   3.802020   4.269406   2.152428
    14  H    3.611611   3.331224   4.168783   3.915086   2.175747
                   11         12         13         14
    11  H    0.000000
    12  C    2.202982   0.000000
    13  H    2.419183   1.106757   0.000000
    14  H    2.842975   1.098471   1.752229   0.000000
 Symmetry turned off by external request.
 Stoichiometry    C5H8O
 Framework group  C1[X(C5H8O)]
 Deg. of freedom    36
 Full point group                 C1      NOp   1
 Rotational constants (GHZ):           5.2238757           4.5059219           2.6018643
 Leave Link  202 at Tue Oct 15 11:19:15 2019, MaxMem=   280000000 cpu:               1.0 elap:               0.1
 (Enter /home/soft/g16/l301.exe)
 Standard basis: 6-31+G(d) (6D, 7F)
 Ernie: Thresh=  0.10000D-02 Tol=  0.10000D-05 Strict=F.
   130 basis functions,   224 primitive gaussians,   130 cartesian basis functions
    23 alpha electrons       23 beta electrons
       nuclear repulsion energy       238.4443127730 Hartrees.
 IExCor=  402 DFT=T Ex+Corr=B3LYP ExCW=0 ScaHFX=  0.200000
 ScaDFX=  0.800000  0.720000  1.000000  0.810000 ScalE2=  1.000000  1.000000
 IRadAn=      5 IRanWt=     -1 IRanGd=            0 ICorTp=0 IEmpDi=  4
 NAtoms=   14 NActive=   14 NUniq=   14 SFac= 1.00D+00 NAtFMM=   60 NAOKFM=F Big=F
 Integral buffers will be    131072 words long.
 Raffenetti 2 integral format.
 Two-electron integral symmetry is turned off.
 Leave Link  301 at Tue Oct 15 11:19:15 2019, MaxMem=   280000000 cpu:               2.2 elap:               0.1
 (Enter /home/soft/g16/l302.exe)
 NPDir=0 NMtPBC=     1 NCelOv=     1 NCel=       1 NClECP=     1 NCelD=      1
         NCelK=      1 NCelE2=     1 NClLst=     1 CellRange=     0.0.
 One-electron integrals computed using PRISM.
 NBasis=   130 RedAO= T EigKep=  4.01D-05  NBF=   130
 NBsUse=   130 1.00D-06 EigRej= -1.00D+00 NBFU=   130
 Precomputing XC quadrature grid using
 IXCGrd= 4 IRadAn=           5 IRanWt=          -1 IRanGd=           0 AccXCQ= 0.00D+00.
 Generated NRdTot=       0 NPtTot=           0 NUsed=           0 NTot=          32
 NSgBfM=   130   130   130   130   130 MxSgAt=    14 MxSgA2=    14.
 Leave Link  302 at Tue Oct 15 11:19:15 2019, MaxMem=   280000000 cpu:               5.3 elap:               0.3
 (Enter /home/soft/g16/l303.exe)
 DipDrv:  MaxL=1.
 Leave Link  303 at Tue Oct 15 11:19:15 2019, MaxMem=   280000000 cpu:               1.6 elap:               0.1
 (Enter /home/soft/g16/l401.exe)
 ExpMin= 4.38D-02 ExpMax= 5.48D+03 ExpMxC= 8.25D+02 IAcc=3 IRadAn=         5 AccDes= 0.00D+00
 Harris functional with IExCor=  402 and IRadAn=       5 diagonalized for initial guess.
 HarFok:  IExCor=  402 AccDes= 0.00D+00 IRadAn=         5 IDoV= 1 UseB2=F ITyADJ=14
 ICtDFT=  3500011 ScaDFX=  1.000000  1.000000  1.000000  1.000000
 FoFCou: FMM=F IPFlag=           0 FMFlag=      100000 FMFlg1=           0
         NFxFlg=           0 DoJE=T BraDBF=F KetDBF=T FulRan=T
         wScrn=  0.000000 ICntrl=       500 IOpCl=  0 I1Cent=   200000004 NGrid=           0
         NMat0=    1 NMatS0=      1 NMatT0=    0 NMatD0=    1 NMtDS0=    0 NMtDT0=    0
 Symmetry not used in FoFCou.
 Harris En= -270.463130153254    
 JPrj=0 DoOrth=F DoCkMO=F.
 Leave Link  401 at Tue Oct 15 11:19:16 2019, MaxMem=   280000000 cpu:               9.2 elap:               0.5
 (Enter /home/soft/g16/l502.exe)
 Two-electron integral symmetry not used.
 Closed shell SCF:
 Using DIIS extrapolation, IDIIS=  1040.
 NGot=   280000000 LenX=   279961824 LenY=   279944483
 Requested convergence on RMS density matrix=1.00D-08 within 128 cycles.
 Requested convergence on MAX density matrix=1.00D-06.
 Requested convergence on             energy=1.00D-06.
 No special actions if energy rises.
 Fock matrices will be formed incrementally for  20 cycles.

 Cycle   1  Pass 1  IDiag  1:
 FoFJK:  IHMeth= 1 ICntrl=       0 DoSepK=F KAlg= 0 I1Cent=           0 FoldK=F
 IRaf= 990000000 NMat=       1 IRICut=       1 DoRegI=T DoRafI=F ISym2E= 0 IDoP0=0 IntGTp=1.
 FoFCou: FMM=F IPFlag=           0 FMFlag=      100000 FMFlg1=           0
         NFxFlg=           0 DoJE=F BraDBF=F KetDBF=F FulRan=T
         wScrn=  0.000000 ICntrl=         0 IOpCl=  0 I1Cent=           0 NGrid=           0
         NMat0=    1 NMatS0=      1 NMatT0=    0 NMatD0=    1 NMtDS0=    0 NMtDT0=    0
 Symmetry not used in FoFCou.
 E= -270.161288918463    
 DIIS: error= 2.43D-02 at cycle   1 NSaved=   1.
 NSaved= 1 IEnMin= 1 EnMin= -270.161288918463     IErMin= 1 ErrMin= 2.43D-02
 ErrMax= 2.43D-02  0.00D+00 EMaxC= 1.00D-01 BMatC= 2.16D-01 BMatP= 2.16D-01
 IDIUse=3 WtCom= 7.57D-01 WtEn= 2.43D-01
 Coeff-Com:  0.100D+01
 Coeff-En:   0.100D+01
 Coeff:      0.100D+01
 Gap=    -0.201 Goal=   None    Shift=    0.000
 GapD=   -0.201 DampG=0.250 DampE=0.500 DampFc=0.2500 IDamp=-1.
 Damping current iteration by 2.50D-01
 RMSDP=2.30D-02 MaxDP=4.56D-01              OVMax= 7.04D-01

 Cycle   2  Pass 1  IDiag  1:
 RMSU=  5.69D-03    CP:  9.73D-01
 E= -270.273867709742     Delta-E=       -0.112578791279 Rises=F Damp=T
 DIIS: error= 1.17D-02 at cycle   2 NSaved=   2.
 NSaved= 2 IEnMin= 2 EnMin= -270.273867709742     IErMin= 2 ErrMin= 1.17D-02
 ErrMax= 1.17D-02  0.00D+00 EMaxC= 1.00D-01 BMatC= 3.85D-02 BMatP= 2.16D-01
 IDIUse=3 WtCom= 8.83D-01 WtEn= 1.17D-01
 Coeff-Com: -0.232D+00 0.123D+01
 Coeff-En:   0.226D-01 0.977D+00
 Coeff:     -0.202D+00 0.120D+01
 Gap=     0.311 Goal=   None    Shift=    0.000
 RMSDP=1.36D-02 MaxDP=3.19D-01 DE=-1.13D-01 OVMax= 8.95D-01

 Cycle   3  Pass 1  IDiag  1:
 RMSU=  1.22D-02    CP:  1.03D+00 -2.22D-02
 E= -270.328535452897     Delta-E=       -0.054667743155 Rises=F Damp=F
 DIIS: error= 1.53D-02 at cycle   3 NSaved=   3.
 NSaved= 3 IEnMin= 3 EnMin= -270.328535452897     IErMin= 2 ErrMin= 1.17D-02
 ErrMax= 1.53D-02  0.00D+00 EMaxC= 1.00D-01 BMatC= 7.50D-02 BMatP= 3.85D-02
 IDIUse=2 WtCom= 0.00D+00 WtEn= 1.00D+00
 Coeff-En:   0.000D+00 0.252D+00 0.748D+00
 Coeff:      0.000D+00 0.252D+00 0.748D+00
 Gap=    -0.062 Goal=   None    Shift=    0.000
 RMSDP=1.99D-02 MaxDP=3.67D-01 DE=-5.47D-02 OVMax= 8.61D-01

 Cycle   4  Pass 1  IDiag  1:
 RMSU=  8.94D-03    CP:  8.51D-01  1.69D+00 -1.41D-01
 E= -269.727918924178     Delta-E=        0.600616528719 Rises=F Damp=F
 DIIS: error= 4.79D-02 at cycle   4 NSaved=   4.
 NSaved= 4 IEnMin= 3 EnMin= -270.328535452897     IErMin= 2 ErrMin= 1.17D-02
 ErrMax= 4.79D-02  0.00D+00 EMaxC= 1.00D-01 BMatC= 4.96D-01 BMatP= 3.85D-02
 IDIUse=2 WtCom= 0.00D+00 WtEn= 1.00D+00
 Coeff-En:   0.000D+00 0.000D+00 0.778D+00 0.222D+00
 Coeff:      0.000D+00 0.000D+00 0.778D+00 0.222D+00
 Gap=     0.037 Goal=   None    Shift=    0.000
 RMSDP=1.28D-02 MaxDP=2.74D-01 DE= 6.01D-01 OVMax= 4.93D-01

 Cycle   5  Pass 1  IDiag  1:
 RMSU=  5.21D-03    CP:  9.43D-01  3.09D-01  5.27D-01  8.89D-01
 E= -270.352498950027     Delta-E=       -0.624580025849 Rises=F Damp=F
 DIIS: error= 1.63D-02 at cycle   5 NSaved=   5.
 NSaved= 5 IEnMin= 5 EnMin= -270.352498950027     IErMin= 2 ErrMin= 1.17D-02
 ErrMax= 1.63D-02  0.00D+00 EMaxC= 1.00D-01 BMatC= 6.35D-02 BMatP= 3.85D-02
 IDIUse=2 WtCom= 0.00D+00 WtEn= 1.00D+00
 Coeff-En:   0.000D+00 0.000D+00 0.458D+00 0.000D+00 0.542D+00
 Coeff:      0.000D+00 0.000D+00 0.458D+00 0.000D+00 0.542D+00
 Gap=     0.057 Goal=   None    Shift=    0.000
 RMSDP=6.54D-03 MaxDP=1.49D-01 DE=-6.25D-01 OVMax= 3.01D-01

 Cycle   6  Pass 1  IDiag  1:
 RMSU=  9.57D-04    CP:  9.98D-01 -6.61D-02  8.20D-01  4.12D-01  6.29D-01
 E= -270.425421702964     Delta-E=       -0.072922752937 Rises=F Damp=F
 DIIS: error= 4.47D-03 at cycle   6 NSaved=   6.
 NSaved= 6 IEnMin= 6 EnMin= -270.425421702964     IErMin= 6 ErrMin= 4.47D-03
 ErrMax= 4.47D-03  0.00D+00 EMaxC= 1.00D-01 BMatC= 3.96D-03 BMatP= 3.85D-02
 IDIUse=3 WtCom= 9.55D-01 WtEn= 4.47D-02
 Coeff-Com: -0.101D+00 0.139D+00 0.844D-01-0.274D-01 0.217D+00 0.688D+00
 Coeff-En:   0.000D+00 0.000D+00 0.000D+00 0.000D+00 0.138D+00 0.862D+00
 Coeff:     -0.966D-01 0.133D+00 0.806D-01-0.262D-01 0.214D+00 0.696D+00
 Gap=     0.067 Goal=   None    Shift=    0.000
 RMSDP=2.56D-03 MaxDP=8.16D-02 DE=-7.29D-02 OVMax= 1.06D-01

 Cycle   7  Pass 1  IDiag  1:
 RMSU=  7.01D-04    CP:  9.88D-01  1.77D-02  8.61D-01  6.08D-01  9.22D-01
                    CP:  6.36D-01
 E= -270.429177634896     Delta-E=       -0.003755931932 Rises=F Damp=F
 DIIS: error= 2.74D-03 at cycle   7 NSaved=   7.
 NSaved= 7 IEnMin= 7 EnMin= -270.429177634896     IErMin= 7 ErrMin= 2.74D-03
 ErrMax= 2.74D-03  0.00D+00 EMaxC= 1.00D-01 BMatC= 1.39D-03 BMatP= 3.96D-03
 IDIUse=3 WtCom= 9.73D-01 WtEn= 2.74D-02
 Coeff-Com: -0.428D-01 0.487D-01 0.979D-02-0.109D-01 0.638D-01 0.518D+00
 Coeff-Com:  0.413D+00
 Coeff-En:   0.000D+00 0.000D+00 0.000D+00 0.000D+00 0.000D+00 0.331D+00
 Coeff-En:   0.669D+00
 Coeff:     -0.417D-01 0.474D-01 0.952D-02-0.106D-01 0.620D-01 0.513D+00
 Coeff:      0.420D+00
 Gap=     0.070 Goal=   None    Shift=    0.000
 RMSDP=6.80D-04 MaxDP=1.67D-02 DE=-3.76D-03 OVMax= 2.67D-02

 Cycle   8  Pass 1  IDiag  1:
 RMSU=  1.67D-04    CP:  9.93D-01 -1.83D-02  8.74D-01  5.55D-01  8.64D-01
                    CP:  7.85D-01  8.62D-01
 E= -270.430820187235     Delta-E=       -0.001642552339 Rises=F Damp=F
 DIIS: error= 5.84D-04 at cycle   8 NSaved=   8.
 NSaved= 8 IEnMin= 8 EnMin= -270.430820187235     IErMin= 8 ErrMin= 5.84D-04
 ErrMax= 5.84D-04  0.00D+00 EMaxC= 1.00D-01 BMatC= 9.55D-05 BMatP= 1.39D-03
 IDIUse=3 WtCom= 9.94D-01 WtEn= 5.84D-03
 Coeff-Com: -0.721D-02 0.719D-02-0.184D-02-0.233D-02-0.783D-04 0.213D+00
 Coeff-Com:  0.188D+00 0.603D+00
 Coeff-En:   0.000D+00 0.000D+00 0.000D+00 0.000D+00 0.000D+00 0.479D-01
 Coeff-En:   0.000D+00 0.952D+00
 Coeff:     -0.717D-02 0.715D-02-0.183D-02-0.232D-02-0.778D-04 0.212D+00
 Coeff:      0.187D+00 0.605D+00
 Gap=     0.071 Goal=   None    Shift=    0.000
 RMSDP=1.16D-04 MaxDP=3.24D-03 DE=-1.64D-03 OVMax= 4.80D-03

 Cycle   9  Pass 1  IDiag  1:
 RMSU=  4.15D-05    CP:  9.93D-01 -2.37D-02  8.72D-01  5.47D-01  8.53D-01
                    CP:  8.07D-01  8.26D-01  9.27D-01
 E= -270.430913014356     Delta-E=       -0.000092827120 Rises=F Damp=F
 DIIS: error= 2.95D-04 at cycle   9 NSaved=   9.
 NSaved= 9 IEnMin= 9 EnMin= -270.430913014356     IErMin= 9 ErrMin= 2.95D-04
 ErrMax= 2.95D-04  0.00D+00 EMaxC= 1.00D-01 BMatC= 1.58D-05 BMatP= 9.55D-05
 IDIUse=3 WtCom= 9.97D-01 WtEn= 2.95D-03
 Coeff-Com:  0.235D-02-0.360D-02-0.226D-02-0.207D-05-0.100D-01 0.733D-01
 Coeff-Com:  0.497D-01 0.338D+00 0.553D+00
 Coeff-En:   0.000D+00 0.000D+00 0.000D+00 0.000D+00 0.000D+00 0.000D+00
 Coeff-En:   0.000D+00 0.000D+00 0.100D+01
 Coeff:      0.234D-02-0.359D-02-0.225D-02-0.206D-05-0.100D-01 0.730D-01
 Coeff:      0.496D-01 0.337D+00 0.554D+00
 Gap=     0.072 Goal=   None    Shift=    0.000
 RMSDP=7.55D-05 MaxDP=2.29D-03 DE=-9.28D-05 OVMax= 2.44D-03

 Cycle  10  Pass 1  IDiag  1:
 RMSU=  1.72D-05    CP:  9.94D-01 -2.80D-02  8.75D-01  5.41D-01  8.49D-01
                    CP:  8.18D-01  8.36D-01  1.03D+00  9.82D-01
 E= -270.430931065064     Delta-E=       -0.000018050708 Rises=F Damp=F
 DIIS: error= 9.12D-05 at cycle  10 NSaved=  10.
 NSaved=10 IEnMin=10 EnMin= -270.430931065064     IErMin=10 ErrMin= 9.12D-05
 ErrMax= 9.12D-05  0.00D+00 EMaxC= 1.00D-01 BMatC= 1.76D-06 BMatP= 1.58D-05
 IDIUse=1 WtCom= 1.00D+00 WtEn= 0.00D+00
 Coeff-Com:  0.175D-02-0.252D-02-0.190D-03 0.279D-03-0.265D-02 0.355D-02
 Coeff-Com: -0.105D-01-0.484D-03 0.609D-01 0.950D+00
 Coeff:      0.175D-02-0.252D-02-0.190D-03 0.279D-03-0.265D-02 0.355D-02
 Coeff:     -0.105D-01-0.484D-03 0.609D-01 0.950D+00
 Gap=     0.072 Goal=   None    Shift=    0.000
 RMSDP=2.58D-05 MaxDP=4.66D-04 DE=-1.81D-05 OVMax= 1.09D-03

 Cycle  11  Pass 1  IDiag  1:
 RMSU=  5.27D-06    CP:  9.94D-01 -2.95D-02  8.76D-01  5.39D-01  8.47D-01
                    CP:  8.20D-01  8.35D-01  1.07D+00  1.08D+00  1.11D+00
 E= -270.430933241406     Delta-E=       -0.000002176342 Rises=F Damp=F
 DIIS: error= 8.07D-06 at cycle  11 NSaved=  11.
 NSaved=11 IEnMin=11 EnMin= -270.430933241406     IErMin=11 ErrMin= 8.07D-06
 ErrMax= 8.07D-06  0.00D+00 EMaxC= 1.00D-01 BMatC= 1.46D-08 BMatP= 1.76D-06
 IDIUse=1 WtCom= 1.00D+00 WtEn= 0.00D+00
 Coeff-Com:  0.324D-03-0.429D-03 0.659D-04 0.666D-04-0.481D-03-0.430D-03
 Coeff-Com: -0.395D-02-0.104D-01-0.111D-01 0.261D+00 0.765D+00
 Coeff:      0.324D-03-0.429D-03 0.659D-04 0.666D-04-0.481D-03-0.430D-03
 Coeff:     -0.395D-02-0.104D-01-0.111D-01 0.261D+00 0.765D+00
 Gap=     0.072 Goal=   None    Shift=    0.000
 RMSDP=3.16D-06 MaxDP=6.00D-05 DE=-2.18D-06 OVMax= 1.33D-04

 Cycle  12  Pass 1  IDiag  1:
 RMSU=  1.19D-06    CP:  9.94D-01 -2.96D-02  8.76D-01  5.39D-01  8.47D-01
                    CP:  8.20D-01  8.34D-01  1.07D+00  1.08D+00  1.14D+00
                    CP:  1.06D+00
 E= -270.430933259930     Delta-E=       -0.000000018524 Rises=F Damp=F
 DIIS: error= 1.77D-06 at cycle  12 NSaved=  12.
 NSaved=12 IEnMin=12 EnMin= -270.430933259930     IErMin=12 ErrMin= 1.77D-06
 ErrMax= 1.77D-06  0.00D+00 EMaxC= 1.00D-01 BMatC= 9.94D-10 BMatP= 1.46D-08
 IDIUse=1 WtCom= 1.00D+00 WtEn= 0.00D+00
 Coeff-Com: -0.146D-04 0.298D-04 0.370D-04 0.618D-05-0.912D-04 0.748D-03
 Coeff-Com: -0.269D-04-0.198D-03-0.584D-02 0.445D-01 0.377D+00 0.584D+00
 Coeff:     -0.146D-04 0.298D-04 0.370D-04 0.618D-05-0.912D-04 0.748D-03
 Coeff:     -0.269D-04-0.198D-03-0.584D-02 0.445D-01 0.377D+00 0.584D+00
 Gap=     0.072 Goal=   None    Shift=    0.000
 RMSDP=1.49D-06 MaxDP=3.83D-05 DE=-1.85D-08 OVMax= 1.52D-05

 Cycle  13  Pass 1  IDiag  1:
 RMSU=  4.33D-07    CP:  9.94D-01 -2.95D-02  8.76D-01  5.39D-01  8.47D-01
                    CP:  8.20D-01  8.34D-01  1.07D+00  1.08D+00  1.12D+00
                    CP:  1.07D+00  9.75D-01
 E= -270.430933260910     Delta-E=       -0.000000000979 Rises=F Damp=F
 DIIS: error= 3.42D-07 at cycle  13 NSaved=  13.
 NSaved=13 IEnMin=13 EnMin= -270.430933260910     IErMin=13 ErrMin= 3.42D-07
 ErrMax= 3.42D-07  0.00D+00 EMaxC= 1.00D-01 BMatC= 3.78D-11 BMatP= 9.94D-10
 IDIUse=1 WtCom= 1.00D+00 WtEn= 0.00D+00
 Coeff-Com:  0.254D-05 0.957D-07 0.804D-05 0.238D-05-0.221D-04 0.237D-04
 Coeff-Com: -0.245D-04-0.526D-04-0.142D-02 0.542D-02 0.452D-01 0.143D+00
 Coeff-Com:  0.808D+00
 Coeff:      0.254D-05 0.957D-07 0.804D-05 0.238D-05-0.221D-04 0.237D-04
 Coeff:     -0.245D-04-0.526D-04-0.142D-02 0.542D-02 0.452D-01 0.143D+00
 Coeff:      0.808D+00
 Gap=     0.072 Goal=   None    Shift=    0.000
 RMSDP=3.09D-07 MaxDP=7.83D-06 DE=-9.79D-10 OVMax= 3.49D-06

 Cycle  14  Pass 1  IDiag  1:
 RMSU=  7.20D-08    CP:  9.94D-01 -2.96D-02  8.76D-01  5.39D-01  8.47D-01
                    CP:  8.20D-01  8.34D-01  1.07D+00  1.08D+00  1.13D+00
                    CP:  1.09D+00  1.04D+00  9.93D-01
 E= -270.430933260951     Delta-E=       -0.000000000041 Rises=F Damp=F
 DIIS: error= 7.41D-08 at cycle  14 NSaved=  14.
 NSaved=14 IEnMin=14 EnMin= -270.430933260951     IErMin=14 ErrMin= 7.41D-08
 ErrMax= 7.41D-08  0.00D+00 EMaxC= 1.00D-01 BMatC= 1.76D-12 BMatP= 3.78D-11
 IDIUse=1 WtCom= 1.00D+00 WtEn= 0.00D+00
 Coeff-Com:  0.171D-05-0.179D-05 0.133D-05 0.736D-06-0.103D-05-0.431D-04
 Coeff-Com: -0.108D-04-0.953D-04-0.291D-03-0.752D-03-0.413D-02 0.166D-01
 Coeff-Com:  0.224D+00 0.765D+00
 Coeff:      0.171D-05-0.179D-05 0.133D-05 0.736D-06-0.103D-05-0.431D-04
 Coeff:     -0.108D-04-0.953D-04-0.291D-03-0.752D-03-0.413D-02 0.166D-01
 Coeff:      0.224D+00 0.765D+00
 Gap=     0.072 Goal=   None    Shift=    0.000
 RMSDP=6.88D-08 MaxDP=1.47D-06 DE=-4.15D-11 OVMax= 1.41D-06

 Cycle  15  Pass 1  IDiag  1:
 RMSU=  1.60D-08    CP:  9.94D-01 -2.96D-02  8.76D-01  5.39D-01  8.47D-01
                    CP:  8.20D-01  8.34D-01  1.07D+00  1.08D+00  1.13D+00
                    CP:  1.09D+00  1.06D+00  1.03D+00  1.06D+00
 E= -270.430933260951     Delta-E=        0.000000000000 Rises=F Damp=F
 DIIS: error= 2.89D-08 at cycle  15 NSaved=  15.
 NSaved=15 IEnMin=14 EnMin= -270.430933260951     IErMin=15 ErrMin= 2.89D-08
 ErrMax= 2.89D-08  0.00D+00 EMaxC= 1.00D-01 BMatC= 3.34D-13 BMatP= 1.76D-12
 IDIUse=1 WtCom= 1.00D+00 WtEn= 0.00D+00
 Coeff-Com:  0.485D-06-0.745D-06-0.168D-06 0.623D-07 0.176D-05-0.217D-04
 Coeff-Com:  0.201D-05-0.241D-04 0.287D-04-0.103D-02-0.718D-02-0.596D-02
 Coeff-Com:  0.408D-01 0.404D+00 0.569D+00
 Coeff:      0.485D-06-0.745D-06-0.168D-06 0.623D-07 0.176D-05-0.217D-04
 Coeff:      0.201D-05-0.241D-04 0.287D-04-0.103D-02-0.718D-02-0.596D-02
 Coeff:      0.408D-01 0.404D+00 0.569D+00
 Gap=     0.072 Goal=   None    Shift=    0.000
 RMSDP=1.22D-08 MaxDP=2.66D-07 DE= 2.27D-13 OVMax= 3.58D-07

 Cycle  16  Pass 1  IDiag  1:
 RMSU=  5.44D-09    CP:  9.94D-01 -2.96D-02  8.76D-01  5.39D-01  8.47D-01
                    CP:  8.20D-01  8.34D-01  1.07D+00  1.08D+00  1.13D+00
                    CP:  1.09D+00  1.06D+00  1.04D+00  1.12D+00  9.53D-01
 E= -270.430933260952     Delta-E=       -0.000000000001 Rises=F Damp=F
 DIIS: error= 8.85D-09 at cycle  16 NSaved=  16.
 NSaved=16 IEnMin=16 EnMin= -270.430933260952     IErMin=16 ErrMin= 8.85D-09
 ErrMax= 8.85D-09  0.00D+00 EMaxC= 1.00D-01 BMatC= 1.57D-14 BMatP= 3.34D-13
 IDIUse=1 WtCom= 1.00D+00 WtEn= 0.00D+00
 Coeff-Com: -0.336D-07 0.241D-07-0.138D-06-0.350D-07 0.418D-06-0.103D-05
 Coeff-Com:  0.233D-05 0.416D-05 0.334D-04-0.157D-03-0.102D-02-0.219D-02
 Coeff-Com: -0.515D-02 0.281D-01 0.104D+00 0.876D+00
 Coeff:     -0.336D-07 0.241D-07-0.138D-06-0.350D-07 0.418D-06-0.103D-05
 Coeff:      0.233D-05 0.416D-05 0.334D-04-0.157D-03-0.102D-02-0.219D-02
 Coeff:     -0.515D-02 0.281D-01 0.104D+00 0.876D+00
 Gap=     0.072 Goal=   None    Shift=    0.000
 RMSDP=5.22D-09 MaxDP=1.39D-07 DE=-1.48D-12 OVMax= 1.63D-07

 SCF Done:  E(RB3LYP) =  -270.430933261     A.U. after   16 cycles
            NFock= 16  Conv=0.52D-08     -V/T= 2.0097
 KE= 2.678240102875D+02 PE=-1.104942851981D+03 EE= 3.282435956594D+02
 Leave Link  502 at Tue Oct 15 11:19:21 2019, MaxMem=   280000000 cpu:             118.2 elap:               5.0
 (Enter /home/soft/g16/l801.exe)
 DoSCS=F DFT=T ScalE2(SS,OS)=  1.000000  1.000000
 Range of M.O.s used for correlation:     1   130
 NBasis=   130 NAE=    23 NBE=    23 NFC=     0 NFV=     0
 NROrb=    130 NOA=    23 NOB=    23 NVA=   107 NVB=   107

 **** Warning!!: The largest alpha MO coefficient is  0.68167833D+02


 **** Warning!!: The smallest alpha delta epsilon is  0.71558184D-01

 Leave Link  801 at Tue Oct 15 11:19:21 2019, MaxMem=   280000000 cpu:               1.0 elap:               0.1
 (Enter /home/soft/g16/l1101.exe)
 Using compressed storage, NAtomX=    14.
 Will process     15 centers per pass.
 Leave Link 1101 at Tue Oct 15 11:19:21 2019, MaxMem=   280000000 cpu:               2.8 elap:               0.2
 (Enter /home/soft/g16/l1102.exe)
 Symmetrizing basis deriv contribution to polar:
 IMax=3 JMax=2 DiffMx= 0.00D+00
 Leave Link 1102 at Tue Oct 15 11:19:21 2019, MaxMem=   280000000 cpu:               0.6 elap:               0.0
 (Enter /home/soft/g16/l1110.exe)
 Forming Gx(P) for the SCF density, NAtomX=    14.
 Integral derivatives from FoFJK, PRISM(SPDF).
 Do as many integral derivatives as possible in FoFJK.
 G2DrvN: MDV=     279998856.
 G2DrvN: will do    15 centers at a time, making    1 passes.
 Calling FoFCou, ICntrl=  3107 FMM=F I1Cent=   0 AccDes= 0.00D+00.
 FoFJK:  IHMeth= 1 ICntrl=    3107 DoSepK=F KAlg= 0 I1Cent=           0 FoldK=F
 IRaf=         0 NMat=       1 IRICut=       1 DoRegI=T DoRafI=F ISym2E= 0 IDoP0=0 IntGTp=1.
 FoFCou: FMM=F IPFlag=           0 FMFlag=      100000 FMFlg1=           0
         NFxFlg=           0 DoJE=F BraDBF=F KetDBF=F FulRan=T
         wScrn=  0.000000 ICntrl=      3107 IOpCl=  0 I1Cent=           0 NGrid=           0
         NMat0=    1 NMatS0=      1 NMatT0=    0 NMatD0=    1 NMtDS0=    0 NMtDT0=    0
 Symmetry not used in FoFCou.
 End of G2Drv F.D. properties file   721 does not exist.
 End of G2Drv F.D. properties file   722 does not exist.
 End of G2Drv F.D. properties file   788 does not exist.
 Leave Link 1110 at Tue Oct 15 11:19:27 2019, MaxMem=   280000000 cpu:             138.1 elap:               5.8
 (Enter /home/soft/g16/l1002.exe)
 Minotr:  Closed shell wavefunction.
          IDoAtm=11111111111111
          Direct CPHF calculation.
          Differentiating once with respect to nuclear coordinates.
          Requested convergence is 1.0D-08 RMS, and 1.0D-07 maximum.
          Secondary convergence is 1.0D-12 RMS, and 1.0D-12 maximum.
          NewPWx=T KeepS1=F KeepF1=F KeepIn=T MapXYZ=F SortEE=F KeepMc=T.
         4236 words used for storage of precomputed grid.
 Keep R1 ints in memory in canonical form, NReq=59093990.
 FoFCou: FMM=F IPFlag=           0 FMFlag=           0 FMFlg1=           0
         NFxFlg=           0 DoJE=F BraDBF=F KetDBF=F FulRan=T
         wScrn=  0.000000 ICntrl=       600 IOpCl=  0 I1Cent=           0 NGrid=           0
         NMat0=    1 NMatS0=   8515 NMatT0=    0 NMatD0=    1 NMtDS0=    0 NMtDT0=    0
 Symmetry not used in FoFCou.
 Two-electron integral symmetry not used.
          MDV=     280000000 using IRadAn=       1.
          Solving linear equations simultaneously, MaxMat=       0.
          There are    45 degrees of freedom in the 1st order CPHF.  IDoFFX=6 NUNeed=     0.
     39 vectors produced by pass  0 Test12= 5.47D-15 2.22D-09 XBig12= 1.30D-01 1.72D-01.
 AX will form    39 AO Fock derivatives at one time.
     39 vectors produced by pass  1 Test12= 5.47D-15 2.22D-09 XBig12= 9.24D-02 9.34D-02.
     39 vectors produced by pass  2 Test12= 5.47D-15 2.22D-09 XBig12= 7.13D-04 4.20D-03.
     39 vectors produced by pass  3 Test12= 5.47D-15 2.22D-09 XBig12= 2.51D-06 1.93D-04.
     39 vectors produced by pass  4 Test12= 5.47D-15 2.22D-09 XBig12= 3.23D-09 9.37D-06.
     34 vectors produced by pass  5 Test12= 5.47D-15 2.22D-09 XBig12= 2.93D-12 2.21D-07.
      2 vectors produced by pass  6 Test12= 5.47D-15 2.22D-09 XBig12= 2.43D-15 5.93D-09.
      1 vectors produced by pass  7 Test12= 5.47D-15 2.22D-09 XBig12= 2.82D-17 2.46D-09.
 InvSVY:  IOpt=1 It=  1 EMax= 2.00D-15
 Solved reduced A of dimension   232 with    39 vectors.
 End of Minotr F.D. properties file   721 does not exist.
 End of Minotr F.D. properties file   722 does not exist.
 End of Minotr F.D. properties file   788 does not exist.
 Leave Link 1002 at Tue Oct 15 11:19:35 2019, MaxMem=   280000000 cpu:             180.0 elap:               7.6
 (Enter /home/soft/g16/l601.exe)
 Copying SCF densities to generalized density rwf, IOpCl= 0 IROHF=0.

 **********************************************************************

            Population analysis using the SCF density.

 **********************************************************************

 Alpha  occ. eigenvalues --  -19.21496 -10.25985 -10.25217 -10.20590 -10.19559
 Alpha  occ. eigenvalues --  -10.17116  -1.09476  -0.80304  -0.77685  -0.66636
 Alpha  occ. eigenvalues --   -0.63971  -0.53716  -0.50802  -0.48569  -0.48209
 Alpha  occ. eigenvalues --   -0.44162  -0.41285  -0.40835  -0.37845  -0.35252
 Alpha  occ. eigenvalues --   -0.34278  -0.31297  -0.14606
 Alpha virt. eigenvalues --   -0.07450   0.00424   0.02438   0.02708   0.03393
 Alpha virt. eigenvalues --    0.04502   0.05177   0.06380   0.06890   0.07975
 Alpha virt. eigenvalues --    0.08837   0.09903   0.11430   0.11881   0.12618
 Alpha virt. eigenvalues --    0.13401   0.13827   0.14752   0.15488   0.17016
 Alpha virt. eigenvalues --    0.18742   0.19595   0.20294   0.22001   0.22398
 Alpha virt. eigenvalues --    0.24495   0.24797   0.26364   0.28250   0.29219
 Alpha virt. eigenvalues --    0.29730   0.31159   0.32369   0.33090   0.35514
 Alpha virt. eigenvalues --    0.37162   0.38539   0.39373   0.43165   0.62317
 Alpha virt. eigenvalues --    0.65127   0.65358   0.66249   0.67686   0.69472
 Alpha virt. eigenvalues --    0.71552   0.72032   0.73165   0.75694   0.76807
 Alpha virt. eigenvalues --    0.77123   0.85079   0.91764   0.93861   0.94843
 Alpha virt. eigenvalues --    0.97679   0.99541   1.01496   1.05764   1.06389
 Alpha virt. eigenvalues --    1.10101   1.12767   1.14971   1.16447   1.23565
 Alpha virt. eigenvalues --    1.30241   1.31828   1.32561   1.41214   1.43133
 Alpha virt. eigenvalues --    1.48204   1.51239   1.57420   1.66742   1.69176
 Alpha virt. eigenvalues --    1.74182   1.80183   1.81363   1.88672   1.90660
 Alpha virt. eigenvalues --    1.95056   1.99744   2.00299   2.08003   2.10554
 Alpha virt. eigenvalues --    2.14813   2.22591   2.25034   2.29757   2.33175
 Alpha virt. eigenvalues --    2.39190   2.39596   2.44749   2.49514   2.61125
 Alpha virt. eigenvalues --    2.62118   2.69990   2.73128   2.79215   2.98471
 Alpha virt. eigenvalues --    3.03377   4.17918   4.23810   4.26264   4.41332
 Alpha virt. eigenvalues --    4.44983   4.61057
          Condensed to atoms (all electrons):
               1          2          3          4          5          6
     1  C    6.427454   0.439202   0.329351  -0.504282  -0.082421  -0.047983
     2  H    0.439202   0.527631  -0.040264  -0.113294  -0.002081   0.007539
     3  H    0.329351  -0.040264   0.520552   0.040153   0.001668  -0.003146
     4  C   -0.504282  -0.113294   0.040153   6.439195   0.400725   0.161130
     5  H   -0.082421  -0.002081   0.001668   0.400725   0.519392  -0.062970
     6  O   -0.047983   0.007539  -0.003146   0.161130  -0.062970   8.199709
     7  C   -0.055689   0.005577  -0.012053  -0.273267   0.030945   0.104867
     8  H   -0.044822  -0.000051   0.001685   0.058573  -0.000300  -0.037142
     9  H    0.027450   0.000039  -0.000226  -0.063066   0.000041  -0.042588
    10  C    0.348974   0.046798  -0.073712  -0.461587  -0.020828  -0.058939
    11  H    0.011098  -0.000103  -0.000091  -0.005684   0.000010   0.008235
    12  C   -0.414158  -0.071959   0.001492   0.453110   0.024871  -0.012274
    13  H   -0.083114  -0.001531   0.002058   0.073386  -0.000122  -0.000283
    14  H    0.013902  -0.002234   0.000793  -0.112221   0.000034   0.004859
               7          8          9         10         11         12
     1  C   -0.055689  -0.044822   0.027450   0.348974   0.011098  -0.414158
     2  H    0.005577  -0.000051   0.000039   0.046798  -0.000103  -0.071959
     3  H   -0.012053   0.001685  -0.000226  -0.073712  -0.000091   0.001492
     4  C   -0.273267   0.058573  -0.063066  -0.461587  -0.005684   0.453110
     5  H    0.030945  -0.000300   0.000041  -0.020828   0.000010   0.024871
     6  O    0.104867  -0.037142  -0.042588  -0.058939   0.008235  -0.012274
     7  C    5.838438   0.371821   0.495594  -0.013143  -0.019633  -0.027501
     8  H    0.371821   0.552661  -0.047459  -0.116127  -0.003214   0.053333
     9  H    0.495594  -0.047459   0.525681  -0.092453   0.000646  -0.033553
    10  C   -0.013143  -0.116127  -0.092453   6.821273   0.366331  -0.751711
    11  H   -0.019633  -0.003214   0.000646   0.366331   0.534832  -0.057099
    12  C   -0.027501   0.053333  -0.033553  -0.751711  -0.057099   6.681990
    13  H   -0.017507   0.000469  -0.000202  -0.219905  -0.006060   0.540648
    14  H    0.006765  -0.000193   0.000095   0.049351   0.001278   0.320687
              13         14
     1  C   -0.083114   0.013902
     2  H   -0.001531  -0.002234
     3  H    0.002058   0.000793
     4  C    0.073386  -0.112221
     5  H   -0.000122   0.000034
     6  O   -0.000283   0.004859
     7  C   -0.017507   0.006765
     8  H    0.000469  -0.000193
     9  H   -0.000202   0.000095
    10  C   -0.219905   0.049351
    11  H   -0.006060   0.001278
    12  C    0.540648   0.320687
    13  H    0.580392  -0.052487
    14  H   -0.052487   0.545101
 Mulliken charges:
               1
     1  C   -0.364963
     2  H    0.204730
     3  H    0.231739
     4  C   -0.092868
     5  H    0.191035
     6  O   -0.221014
     7  C   -0.435214
     8  H    0.210769
     9  H    0.230001
    10  C    0.175679
    11  H    0.169454
    12  C   -0.707875
    13  H    0.184260
    14  H    0.224268
 Sum of Mulliken charges =  -0.00000
 Mulliken charges with hydrogens summed into heavy atoms:
               1
     1  C    0.071507
     4  C    0.098167
     6  O   -0.221014
     7  C    0.005555
    10  C    0.345132
    12  C   -0.299347
 APT charges:
               1
     1  C   -0.848834
     2  H    0.528459
     3  H    0.430678
     4  C   -0.520061
     5  H    0.581774
     6  O   -0.188603
     7  C   -0.932099
     8  H    0.464361
     9  H    0.550890
    10  C   -0.192583
    11  H    0.517447
    12  C   -1.336658
    13  H    0.454991
    14  H    0.490240
 Sum of APT charges =  -0.00000
 APT charges with hydrogens summed into heavy atoms:
               1
     1  C    0.110302
     4  C    0.061713
     6  O   -0.188603
     7  C    0.083152
    10  C    0.324864
    12  C   -0.391428
 Electronic spatial extent (au):  <R**2>=            521.7395
 Charge=             -0.0000 electrons
 Dipole moment (field-independent basis, Debye):
    X=              0.4011    Y=             -0.6507    Z=             -0.9135  Tot=              1.1911
 Quadrupole moment (field-independent basis, Debye-Ang):
   XX=            -37.1764   YY=            -37.1756   ZZ=            -39.3687
   XY=             -2.9849   XZ=              0.0980   YZ=             -2.1510
 Traceless Quadrupole moment (field-independent basis, Debye-Ang):
   XX=              0.7305   YY=              0.7313   ZZ=             -1.4618
   XY=             -2.9849   XZ=              0.0980   YZ=             -2.1510
 Octapole moment (field-independent basis, Debye-Ang**2):
  XXX=             -5.5089  YYY=            -11.0449  ZZZ=             -5.2973  XYY=             -2.6715
  XXY=              2.8232  XXZ=              1.3101  XZZ=             -2.1545  YZZ=             -3.4673
  YYZ=             -1.5865  XYZ=              0.3012
 Hexadecapole moment (field-independent basis, Debye-Ang**3):
 XXXX=           -339.9463 YYYY=           -306.7563 ZZZZ=            -81.7970 XXXY=             -9.5907
 XXXZ=              0.8640 YYYX=              2.3889 YYYZ=            -15.7179 ZZZX=              1.4001
 ZZZY=             -3.4002 XXYY=           -106.9944 XXZZ=            -66.6227 YYZZ=            -72.0123
 XXYZ=             -1.2353 YYXZ=             -0.5197 ZZXY=             -0.8870
 N-N= 2.384443127730D+02 E-N=-1.104942852509D+03  KE= 2.678240102875D+02
  Exact polarizability:   0.000   0.000   0.000   0.000   0.000   0.000
 Approx polarizability: 102.079  21.060 344.366  -0.127   7.425  79.721
 No NMR shielding tensors so no spin-rotation constants.
 Leave Link  601 at Tue Oct 15 11:19:35 2019, MaxMem=   280000000 cpu:               2.2 elap:               0.1
 (Enter /home/soft/g16/l701.exe)
 ... and contract with generalized density number  0.
 Compute integral second derivatives.
 Leave Link  701 at Tue Oct 15 11:19:35 2019, MaxMem=   280000000 cpu:               3.5 elap:               0.2
 (Enter /home/soft/g16/l702.exe)
 L702 exits ... SP integral derivatives will be done elsewhere.
 Leave Link  702 at Tue Oct 15 11:19:35 2019, MaxMem=   280000000 cpu:               0.6 elap:               0.0
 (Enter /home/soft/g16/l703.exe)
 Integral derivatives from FoFJK, PRISM(SPDF).
 Compute integral second derivatives, UseDBF=F ICtDFT=           0.
 Calling FoFJK, ICntrl=    100147 FMM=F ISym2X=0 I1Cent= 0 IOpClX= 0 NMat=1 NMatS=1 NMatT=0.
 FoFJK:  IHMeth= 1 ICntrl=  100147 DoSepK=F KAlg= 0 I1Cent=           0 FoldK=F
 IRaf=         0 NMat=       1 IRICut=       1 DoRegI=T DoRafI=F ISym2E= 0 IDoP0=0 IntGTp=1.
 FoFCou: FMM=F IPFlag=           0 FMFlag=      100000 FMFlg1=         800
         NFxFlg=           0 DoJE=F BraDBF=F KetDBF=F FulRan=T
         wScrn=  0.000000 ICntrl=    100147 IOpCl=  0 I1Cent=           0 NGrid=           0
         NMat0=    1 NMatS0=      1 NMatT0=    0 NMatD0=    1 NMtDS0=    0 NMtDT0=    0
 Symmetry not used in FoFCou.
 Leave Link  703 at Tue Oct 15 11:19:43 2019, MaxMem=   280000000 cpu:             187.5 elap:               7.9
 (Enter /home/soft/g16/l716.exe)
 Dipole        = 1.57802444D-01-2.56010704D-01-3.59397013D-01
 Polarizability= 0.00000000D+00 0.00000000D+00 0.00000000D+00
                 0.00000000D+00 0.00000000D+00 0.00000000D+00
 -------------------------------------------------------------------
 Center     Atomic                   Forces (Hartrees/Bohr)
 Number     Number              X              Y              Z
 -------------------------------------------------------------------
      1        6          -0.000001790   -0.000021784    0.000009059
      2        1           0.000000701   -0.000000375    0.000004367
      3        1          -0.000002093   -0.000004374    0.000005777
      4        6          -0.000013479    0.000005895   -0.000017786
      5        1          -0.000000311    0.000005458    0.000008464
      6        8           0.000019913   -0.000005673    0.000009521
      7        6          -0.000008248   -0.000007890    0.000003575
      8        1          -0.000000608   -0.000003337   -0.000001372
      9        1          -0.000002004    0.000002718   -0.000005727
     10        6          -0.000000267    0.000012012   -0.000004975
     11        1          -0.000000198    0.000005198    0.000001739
     12        6           0.000006317    0.000010247   -0.000004874
     13        1           0.000001493   -0.000001726   -0.000001683
     14        1           0.000000574    0.000003630   -0.000006085
 -------------------------------------------------------------------
 Cartesian Forces:  Max     0.000021784 RMS     0.000007586
 Z-matrix is all fixed cartesians, so copy forces.
 Leave Link  716 at Tue Oct 15 11:19:43 2019, MaxMem=   280000000 cpu:               0.6 elap:               0.1
 (Enter /home/soft/g16/l123.exe)
 IRC-IRC-IRC-IRC-IRC-IRC-IRC-IRC-IRC-IRC-IRC-IRC-IRC-IRC-IRC-IRC-IRC-IRC
          ******** Start new reaction path calculation ********
 Current Structure is TS -> form Hessian eigenvectors.
                            Diagonalizing Hessian.
 Supplied step size of   0.2000 bohr.
    Integration on MW PES will use step size of   0.2699 sqrt(amu)*bohr.
 Point Number:   0          Path Number:   1
 Calculating another point on the path.
 Point Number  1 in FORWARD path direction.
 Using LQA Reaction Path Following.
 IRC-IRC-IRC-IRC-IRC-IRC-IRC-IRC-IRC-IRC-IRC-IRC-IRC-IRC-IRC-IRC-IRC-IRC
 Leave Link  123 at Tue Oct 15 11:19:43 2019, MaxMem=   280000000 cpu:               1.1 elap:               0.1
 (Enter /home/soft/g16/l202.exe)
                          Input orientation:                          
 ---------------------------------------------------------------------
 Center     Atomic      Atomic             Coordinates (Angstroms)
 Number     Number       Type             X           Y           Z
 ---------------------------------------------------------------------
      1          6           0        1.171944   -0.830431   -0.272398
      2          1           0        1.951741   -1.495547    0.115341
      3          1           0        1.253694   -0.859190   -1.370992
      4          6           0       -0.134592   -1.305068    0.195552
      5          1           0       -0.298550   -2.305890    0.584064
      6          8           0       -1.269506   -0.652909   -0.026880
      7          6           0       -1.190189    0.785660   -0.091208
      8          1           0       -1.625575    1.054030   -1.070820
      9          1           0       -1.938086    1.074049    0.660690
     10          6           0        0.131820    1.409628    0.117144
     11          1           0        0.160486    2.438646   -0.242808
     12          6           0        1.414184    0.671179    0.145350
     13          1           0        2.169149    1.145997   -0.508478
     14          1           0        1.886912    0.606533    1.135141
 ---------------------------------------------------------------------
                    Distance matrix (angstroms):
                    1          2          3          4          5
     1  C    0.000000
     2  H    1.095812   0.000000
     3  H    1.102008   1.761081   0.000000
     4  C    1.466728   2.096545   2.140142   0.000000
     5  H    2.252300   2.437246   2.885246   1.086033   0.000000
     6  O    2.460176   3.332671   2.866309   1.327711   2.012052
     7  C    2.867796   3.888225   3.211845   2.359589   3.287658
     8  H    3.466235   4.550221   3.469972   3.064649   3.973499
     9  H    3.764304   4.693718   4.248837   3.021447   3.757384
    10  C    2.500293   3.428142   2.936101   2.728864   3.769391
    11  H    3.422103   4.337596   3.652893   3.780823   4.837877
    12  C    1.577347   2.232615   2.160342   2.511330   3.462494
    13  H    2.226302   2.722897   2.367015   3.436655   4.381633
    14  H    2.134762   2.337292   2.971534   2.936584   3.682681
                    6          7          8          9         10
     6  O    0.000000
     7  C    1.442189   0.000000
     8  H    2.032298   1.105090   0.000000
     9  H    1.975383   1.099031   1.759600   0.000000
    10  C    2.497702   1.476636   2.150847   2.166234   0.000000
    11  H    3.413094   2.140016   2.406818   2.661285   1.090534
    12  C    2.997509   2.617599   3.296328   3.415493   1.480054
    13  H    3.910542   3.404278   3.837266   4.271008   2.147466
    14  H    3.591582   3.317313   4.171819   3.882561   2.182115
                   11         12         13         14
    11  H    0.000000
    12  C    2.201447   0.000000
    13  H    2.403383   1.105855   0.000000
    14  H    2.869831   1.098789   1.752758   0.000000
 Symmetry turned off by external request.
 Stoichiometry    C5H8O
 Framework group  C1[X(C5H8O)]
 Deg. of freedom    36
 Full point group                 C1      NOp   1
 Rotational constants (GHZ):           5.1977285           4.5137274           2.5979584
 Leave Link  202 at Tue Oct 15 11:19:43 2019, MaxMem=   280000000 cpu:               0.3 elap:               0.0
 (Enter /home/soft/g16/l301.exe)
 Standard basis: 6-31+G(d) (6D, 7F)
 Ernie: Thresh=  0.10000D-02 Tol=  0.10000D-05 Strict=F.
   130 basis functions,   224 primitive gaussians,   130 cartesian basis functions
    23 alpha electrons       23 beta electrons
       nuclear repulsion energy       238.2947848257 Hartrees.
 IExCor=  402 DFT=T Ex+Corr=B3LYP ExCW=0 ScaHFX=  0.200000
 ScaDFX=  0.800000  0.720000  1.000000  0.810000 ScalE2=  1.000000  1.000000
 IRadAn=      5 IRanWt=     -1 IRanGd=            0 ICorTp=0 IEmpDi=  4
 NAtoms=   14 NActive=   14 NUniq=   14 SFac= 1.00D+00 NAtFMM=   60 NAOKFM=F Big=F
 Integral buffers will be    131072 words long.
 Raffenetti 2 integral format.
 Two-electron integral symmetry is turned off.
 Leave Link  301 at Tue Oct 15 11:19:43 2019, MaxMem=   280000000 cpu:               1.3 elap:               0.1
 (Enter /home/soft/g16/l302.exe)
 NPDir=0 NMtPBC=     1 NCelOv=     1 NCel=       1 NClECP=     1 NCelD=      1
         NCelK=      1 NCelE2=     1 NClLst=     1 CellRange=     0.0.
 One-electron integrals computed using PRISM.
 NBasis=   130 RedAO= T EigKep=  4.21D-05  NBF=   130
 NBsUse=   130 1.00D-06 EigRej= -1.00D+00 NBFU=   130
 Precomputing XC quadrature grid using
 IXCGrd= 4 IRadAn=           5 IRanWt=          -1 IRanGd=           0 AccXCQ= 0.00D+00.
 Generated NRdTot=       0 NPtTot=           0 NUsed=           0 NTot=          32
 NSgBfM=   130   130   130   130   130 MxSgAt=    14 MxSgA2=    14.
 Leave Link  302 at Tue Oct 15 11:19:43 2019, MaxMem=   280000000 cpu:               3.3 elap:               0.2
 (Enter /home/soft/g16/l303.exe)
 DipDrv:  MaxL=1.
 Leave Link  303 at Tue Oct 15 11:19:43 2019, MaxMem=   280000000 cpu:               0.5 elap:               0.0
 (Enter /home/soft/g16/l401.exe)
 Initial guess from the checkpoint file:  "irc4.chk"
 B after Tr=     0.072415    0.033734   -0.014225
         Rot=    1.000000    0.000208   -0.000030    0.000020 Ang=   0.02 deg.
 Guess basis will be translated and rotated to current coordinates.
 JPrj=2 DoOrth=T DoCkMO=T.
 Generating alternative initial guess.
 ExpMin= 4.38D-02 ExpMax= 5.48D+03 ExpMxC= 8.25D+02 IAcc=2 IRadAn=         4 AccDes= 0.00D+00
 Harris functional with IExCor=  402 and IRadAn=       4 diagonalized for initial guess.
 HarFok:  IExCor=  402 AccDes= 0.00D+00 IRadAn=         4 IDoV= 1 UseB2=F ITyADJ=14
 ICtDFT=  3500011 ScaDFX=  1.000000  1.000000  1.000000  1.000000
 FoFCou: FMM=F IPFlag=           0 FMFlag=      100000 FMFlg1=           0
         NFxFlg=           0 DoJE=T BraDBF=F KetDBF=T FulRan=T
         wScrn=  0.000000 ICntrl=       500 IOpCl=  0 I1Cent=   200000004 NGrid=           0
         NMat0=    1 NMatS0=      1 NMatT0=    0 NMatD0=    1 NMtDS0=    0 NMtDT0=    0
 Symmetry not used in FoFCou.
 Harris En= -270.463524543012    
 Leave Link  401 at Tue Oct 15 11:19:44 2019, MaxMem=   280000000 cpu:               7.9 elap:               0.4
 (Enter /home/soft/g16/l502.exe)
 Two-electron integral symmetry not used.
 Closed shell SCF:
 Using DIIS extrapolation, IDIIS=  1040.
 NGot=   280000000 LenX=   279961824 LenY=   279944483
 Requested convergence on RMS density matrix=1.00D-08 within 128 cycles.
 Requested convergence on MAX density matrix=1.00D-06.
 Requested convergence on             energy=1.00D-06.
 No special actions if energy rises.
 Fock matrices will be formed incrementally for  20 cycles.

 Cycle   1  Pass 1  IDiag  1:
 FoFJK:  IHMeth= 1 ICntrl=       0 DoSepK=F KAlg= 0 I1Cent=           0 FoldK=F
 IRaf= 990000000 NMat=       1 IRICut=       1 DoRegI=T DoRafI=F ISym2E= 0 IDoP0=0 IntGTp=1.
 FoFCou: FMM=F IPFlag=           0 FMFlag=      100000 FMFlg1=           0
         NFxFlg=           0 DoJE=F BraDBF=F KetDBF=F FulRan=T
         wScrn=  0.000000 ICntrl=         0 IOpCl=  0 I1Cent=           0 NGrid=           0
         NMat0=    1 NMatS0=      1 NMatT0=    0 NMatD0=    1 NMtDS0=    0 NMtDT0=    0
 Symmetry not used in FoFCou.
 E= -270.429842896295    
 DIIS: error= 1.18D-03 at cycle   1 NSaved=   1.
 NSaved= 1 IEnMin= 1 EnMin= -270.429842896295     IErMin= 1 ErrMin= 1.18D-03
 ErrMax= 1.18D-03  0.00D+00 EMaxC= 1.00D-01 BMatC= 4.68D-04 BMatP= 4.68D-04
 IDIUse=3 WtCom= 9.88D-01 WtEn= 1.18D-02
 Coeff-Com:  0.100D+01
 Coeff-En:   0.100D+01
 Coeff:      0.100D+01
 Gap=     0.449 Goal=   None    Shift=    0.000
 GapD=    0.449 DampG=2.000 DampE=1.000 DampFc=2.0000 IDamp=-1.
 RMSDP=1.63D-03 MaxDP=4.59D-02              OVMax= 2.28D-02

 Cycle   2  Pass 1  IDiag  1:
 RMSU=  1.63D-03    CP:  9.97D-01
 E= -270.431004233324     Delta-E=       -0.001161337029 Rises=F Damp=F
 DIIS: error= 2.35D-04 at cycle   2 NSaved=   2.
 NSaved= 2 IEnMin= 2 EnMin= -270.431004233324     IErMin= 2 ErrMin= 2.35D-04
 ErrMax= 2.35D-04  0.00D+00 EMaxC= 1.00D-01 BMatC= 1.26D-05 BMatP= 4.68D-04
 IDIUse=3 WtCom= 9.98D-01 WtEn= 2.35D-03
 Coeff-Com: -0.535D-01 0.105D+01
 Coeff-En:   0.000D+00 0.100D+01
 Coeff:     -0.533D-01 0.105D+01
 Gap=     0.072 Goal=   None    Shift=    0.000
 RMSDP=4.53D-04 MaxDP=1.44D-02 DE=-1.16D-03 OVMax= 7.60D-03

 Cycle   3  Pass 1  IDiag  1:
 RMSU=  4.07D-04    CP:  9.91D-01  9.63D-01
 E= -270.430983298587     Delta-E=        0.000020934737 Rises=F Damp=F
 DIIS: error= 3.36D-04 at cycle   3 NSaved=   3.
 NSaved= 3 IEnMin= 2 EnMin= -270.431004233324     IErMin= 2 ErrMin= 2.35D-04
 ErrMax= 3.36D-04  0.00D+00 EMaxC= 1.00D-01 BMatC= 4.52D-05 BMatP= 1.26D-05
 IDIUse=3 WtCom= 3.53D-01 WtEn= 6.47D-01
 Coeff-Com: -0.505D-01 0.746D+00 0.304D+00
 Coeff-En:   0.000D+00 0.675D+00 0.325D+00
 Coeff:     -0.178D-01 0.700D+00 0.318D+00
 Gap=     0.072 Goal=   None    Shift=    0.000
 RMSDP=2.75D-04 MaxDP=6.89D-03 DE= 2.09D-05 OVMax= 1.28D-02

 Cycle   4  Pass 1  IDiag  1:
 RMSU=  2.20D-04    CP:  9.91D-01  1.05D+00  7.72D-01
 E= -270.430979137475     Delta-E=        0.000004161111 Rises=F Damp=F
 DIIS: error= 4.43D-04 at cycle   4 NSaved=   4.
 NSaved= 4 IEnMin= 2 EnMin= -270.431004233324     IErMin= 2 ErrMin= 2.35D-04
 ErrMax= 4.43D-04  0.00D+00 EMaxC= 1.00D-01 BMatC= 4.39D-05 BMatP= 1.26D-05
 IDIUse=3 WtCom= 3.22D-01 WtEn= 6.78D-01
 Coeff-Com: -0.338D-01 0.372D+00 0.375D+00 0.287D+00
 Coeff-En:   0.000D+00 0.000D+00 0.512D+00 0.488D+00
 Coeff:     -0.109D-01 0.120D+00 0.468D+00 0.423D+00
 Gap=     0.072 Goal=   None    Shift=    0.000
 RMSDP=1.99D-04 MaxDP=5.20D-03 DE= 4.16D-06 OVMax= 7.74D-03

 Cycle   5  Pass 1  IDiag  1:
 RMSU=  6.68D-05    CP:  9.90D-01  1.01D+00  1.10D+00  5.30D-01
 E= -270.431031928262     Delta-E=       -0.000052790787 Rises=F Damp=F
 DIIS: error= 1.18D-04 at cycle   5 NSaved=   5.
 NSaved= 5 IEnMin= 5 EnMin= -270.431031928262     IErMin= 5 ErrMin= 1.18D-04
 ErrMax= 1.18D-04  0.00D+00 EMaxC= 1.00D-01 BMatC= 4.59D-06 BMatP= 1.26D-05
 IDIUse=3 WtCom= 9.99D-01 WtEn= 1.18D-03
 Coeff-Com: -0.966D-02 0.602D-01 0.273D+00 0.284D+00 0.392D+00
 Coeff-En:   0.000D+00 0.000D+00 0.000D+00 0.942D-01 0.906D+00
 Coeff:     -0.965D-02 0.601D-01 0.273D+00 0.284D+00 0.393D+00
 Gap=     0.072 Goal=   None    Shift=    0.000
 RMSDP=4.92D-05 MaxDP=1.51D-03 DE=-5.28D-05 OVMax= 1.23D-03

 Cycle   6  Pass 1  IDiag  1:
 RMSU=  2.28D-05    CP:  9.90D-01  1.02D+00  1.03D+00  5.74D-01  6.94D-01
 E= -270.431036474924     Delta-E=       -0.000004546663 Rises=F Damp=F
 DIIS: error= 1.79D-05 at cycle   6 NSaved=   6.
 NSaved= 6 IEnMin= 6 EnMin= -270.431036474924     IErMin= 6 ErrMin= 1.79D-05
 ErrMax= 1.79D-05  0.00D+00 EMaxC= 1.00D-01 BMatC= 1.18D-07 BMatP= 4.59D-06
 IDIUse=1 WtCom= 1.00D+00 WtEn= 0.00D+00
 Coeff-Com: -0.152D-02-0.122D-01 0.116D+00 0.125D+00 0.228D+00 0.545D+00
 Coeff:     -0.152D-02-0.122D-01 0.116D+00 0.125D+00 0.228D+00 0.545D+00
 Gap=     0.072 Goal=   None    Shift=    0.000
 RMSDP=1.63D-05 MaxDP=4.57D-04 DE=-4.55D-06 OVMax= 1.82D-04

 Cycle   7  Pass 1  IDiag  1:
 RMSU=  4.35D-06    CP:  9.90D-01  1.01D+00  1.06D+00  5.74D-01  7.39D-01
                    CP:  1.16D+00
 E= -270.431036583478     Delta-E=       -0.000000108554 Rises=F Damp=F
 DIIS: error= 6.72D-06 at cycle   7 NSaved=   7.
 NSaved= 7 IEnMin= 7 EnMin= -270.431036583478     IErMin= 7 ErrMin= 6.72D-06
 ErrMax= 6.72D-06  0.00D+00 EMaxC= 1.00D-01 BMatC= 1.07D-08 BMatP= 1.18D-07
 IDIUse=1 WtCom= 1.00D+00 WtEn= 0.00D+00
 Coeff-Com:  0.108D-02-0.178D-01 0.793D-02 0.863D-02 0.412D-01 0.278D+00
 Coeff-Com:  0.681D+00
 Coeff:      0.108D-02-0.178D-01 0.793D-02 0.863D-02 0.412D-01 0.278D+00
 Coeff:      0.681D+00
 Gap=     0.072 Goal=   None    Shift=    0.000
 RMSDP=1.19D-05 MaxDP=2.99D-04 DE=-1.09D-07 OVMax= 7.83D-05

 Cycle   8  Pass 1  IDiag  1:
 RMSU=  1.62D-06    CP:  9.90D-01  1.01D+00  1.08D+00  5.93D-01  7.74D-01
                    CP:  1.16D+00  8.31D-01
 E= -270.431036594775     Delta-E=       -0.000000011297 Rises=F Damp=F
 DIIS: error= 1.81D-06 at cycle   8 NSaved=   8.
 NSaved= 8 IEnMin= 8 EnMin= -270.431036594775     IErMin= 8 ErrMin= 1.81D-06
 ErrMax= 1.81D-06  0.00D+00 EMaxC= 1.00D-01 BMatC= 6.14D-10 BMatP= 1.07D-08
 IDIUse=1 WtCom= 1.00D+00 WtEn= 0.00D+00
 Coeff-Com:  0.439D-03-0.589D-02-0.127D-02-0.313D-02 0.592D-02 0.704D-01
 Coeff-Com:  0.243D+00 0.690D+00
 Coeff:      0.439D-03-0.589D-02-0.127D-02-0.313D-02 0.592D-02 0.704D-01
 Coeff:      0.243D+00 0.690D+00
 Gap=     0.072 Goal=   None    Shift=    0.000
 RMSDP=1.10D-06 MaxDP=3.03D-05 DE=-1.13D-08 OVMax= 1.74D-05

 Cycle   9  Pass 1  IDiag  1:
 RMSU=  2.72D-07    CP:  9.90D-01  1.01D+00  1.09D+00  5.92D-01  7.80D-01
                    CP:  1.20D+00  8.96D-01  9.86D-01
 E= -270.431036595518     Delta-E=       -0.000000000743 Rises=F Damp=F
 DIIS: error= 3.98D-07 at cycle   9 NSaved=   9.
 NSaved= 9 IEnMin= 9 EnMin= -270.431036595518     IErMin= 9 ErrMin= 3.98D-07
 ErrMax= 3.98D-07  0.00D+00 EMaxC= 1.00D-01 BMatC= 6.91D-11 BMatP= 6.14D-10
 IDIUse=1 WtCom= 1.00D+00 WtEn= 0.00D+00
 Coeff-Com:  0.854D-04-0.811D-03-0.128D-02-0.271D-02-0.161D-02 0.234D-02
 Coeff-Com:  0.423D-01 0.324D+00 0.637D+00
 Coeff:      0.854D-04-0.811D-03-0.128D-02-0.271D-02-0.161D-02 0.234D-02
 Coeff:      0.423D-01 0.324D+00 0.637D+00
 Gap=     0.072 Goal=   None    Shift=    0.000
 RMSDP=5.17D-07 MaxDP=1.35D-05 DE=-7.43D-10 OVMax= 5.35D-06

 Cycle  10  Pass 1  IDiag  1:
 RMSU=  9.31D-08    CP:  9.90D-01  1.01D+00  1.09D+00  5.92D-01  7.83D-01
                    CP:  1.20D+00  9.05D-01  1.05D+00  8.26D-01
 E= -270.431036595602     Delta-E=       -0.000000000084 Rises=F Damp=F
 DIIS: error= 8.37D-08 at cycle  10 NSaved=  10.
 NSaved=10 IEnMin=10 EnMin= -270.431036595602     IErMin=10 ErrMin= 8.37D-08
 ErrMax= 8.37D-08  0.00D+00 EMaxC= 1.00D-01 BMatC= 1.99D-12 BMatP= 6.91D-11
 IDIUse=1 WtCom= 1.00D+00 WtEn= 0.00D+00
 Coeff-Com: -0.974D-05 0.259D-03-0.256D-03-0.619D-03-0.995D-03-0.537D-02
 Coeff-Com: -0.740D-02 0.370D-01 0.178D+00 0.799D+00
 Coeff:     -0.974D-05 0.259D-03-0.256D-03-0.619D-03-0.995D-03-0.537D-02
 Coeff:     -0.740D-02 0.370D-01 0.178D+00 0.799D+00
 Gap=     0.072 Goal=   None    Shift=    0.000
 RMSDP=1.60D-07 MaxDP=4.79D-06 DE=-8.40D-11 OVMax= 1.25D-06

 Cycle  11  Pass 1  IDiag  1:
 RMSU=  3.89D-08    CP:  9.90D-01  1.01D+00  1.09D+00  5.92D-01  7.83D-01
                    CP:  1.20D+00  9.09D-01  1.07D+00  8.32D-01  1.23D+00
 E= -270.431036595595     Delta-E=        0.000000000007 Rises=F Damp=F
 DIIS: error= 2.31D-08 at cycle  11 NSaved=  11.
 NSaved=11 IEnMin=10 EnMin= -270.431036595602     IErMin=11 ErrMin= 2.31D-08
 ErrMax= 2.31D-08  0.00D+00 EMaxC= 1.00D-01 BMatC= 1.58D-13 BMatP= 1.99D-12
 IDIUse=1 WtCom= 1.00D+00 WtEn= 0.00D+00
 Coeff-Com: -0.703D-05 0.132D-03-0.208D-04-0.126D-03-0.277D-03-0.200D-02
 Coeff-Com: -0.426D-02 0.116D-02 0.414D-01 0.305D+00 0.659D+00
 Coeff:     -0.703D-05 0.132D-03-0.208D-04-0.126D-03-0.277D-03-0.200D-02
 Coeff:     -0.426D-02 0.116D-02 0.414D-01 0.305D+00 0.659D+00
 Gap=     0.072 Goal=   None    Shift=    0.000
 RMSDP=2.89D-08 MaxDP=1.37D-06 DE= 7.45D-12 OVMax= 2.18D-07

 Cycle  12  Pass 1  IDiag  1:
 RMSU=  8.94D-09    CP:  9.90D-01  1.01D+00  1.09D+00  5.92D-01  7.83D-01
                    CP:  1.21D+00  9.08D-01  1.07D+00  8.56D-01  1.25D+00
                    CP:  9.41D-01
 E= -270.431036595603     Delta-E=       -0.000000000008 Rises=F Damp=F
 DIIS: error= 8.47D-09 at cycle  12 NSaved=  12.
 NSaved=12 IEnMin=12 EnMin= -270.431036595603     IErMin=12 ErrMin= 8.47D-09
 ErrMax= 8.47D-09  0.00D+00 EMaxC= 1.00D-01 BMatC= 2.06D-14 BMatP= 1.58D-13
 IDIUse=1 WtCom= 1.00D+00 WtEn= 0.00D+00
 Coeff-Com: -0.150D-05 0.208D-04 0.145D-04-0.374D-05-0.104D-04-0.239D-03
 Coeff-Com: -0.831D-03-0.255D-02-0.113D-02 0.359D-01 0.208D+00 0.761D+00
 Coeff:     -0.150D-05 0.208D-04 0.145D-04-0.374D-05-0.104D-04-0.239D-03
 Coeff:     -0.831D-03-0.255D-02-0.113D-02 0.359D-01 0.208D+00 0.761D+00
 Gap=     0.072 Goal=   None    Shift=    0.000
 RMSDP=6.53D-09 MaxDP=1.77D-07 DE=-8.13D-12 OVMax= 1.20D-07

 SCF Done:  E(RB3LYP) =  -270.431036596     A.U. after   12 cycles
            NFock= 12  Conv=0.65D-08     -V/T= 2.0098
 KE= 2.678191865543D+02 PE=-1.104649838565D+03 EE= 3.281048305891D+02
 Leave Link  502 at Tue Oct 15 11:19:47 2019, MaxMem=   280000000 cpu:              88.8 elap:               3.8
 (Enter /home/soft/g16/l801.exe)
 DoSCS=F DFT=T ScalE2(SS,OS)=  1.000000  1.000000
 Range of M.O.s used for correlation:     1   130
 NBasis=   130 NAE=    23 NBE=    23 NFC=     0 NFV=     0
 NROrb=    130 NOA=    23 NOB=    23 NVA=   107 NVB=   107

 **** Warning!!: The largest alpha MO coefficient is  0.69474205D+02


 **** Warning!!: The smallest alpha delta epsilon is  0.71878651D-01

 Leave Link  801 at Tue Oct 15 11:19:47 2019, MaxMem=   280000000 cpu:               0.5 elap:               0.0
 (Enter /home/soft/g16/l1101.exe)
 Leave Link 1101 at Tue Oct 15 11:19:48 2019, MaxMem=   280000000 cpu:               0.6 elap:               0.0
 (Enter /home/soft/g16/l1102.exe)
 Symmetrizing basis deriv contribution to polar:
 IMax=3 JMax=2 DiffMx= 0.00D+00
 Leave Link 1102 at Tue Oct 15 11:19:48 2019, MaxMem=   280000000 cpu:               0.8 elap:               0.1
 (Enter /home/soft/g16/l1110.exe)
 Leave Link 1110 at Tue Oct 15 11:19:48 2019, MaxMem=   280000000 cpu:               0.4 elap:               0.0
 (Enter /home/soft/g16/l1002.exe)
 Minotr:  Closed shell wavefunction.
 Leave Link 1002 at Tue Oct 15 11:19:48 2019, MaxMem=   280000000 cpu:               0.5 elap:               0.0
 (Enter /home/soft/g16/l701.exe)
 ... and contract with generalized density number  0.
 Compute integral first derivatives.
 Leave Link  701 at Tue Oct 15 11:19:48 2019, MaxMem=   280000000 cpu:               2.7 elap:               0.1
 (Enter /home/soft/g16/l702.exe)
 L702 exits ... SP integral derivatives will be done elsewhere.
 Leave Link  702 at Tue Oct 15 11:19:48 2019, MaxMem=   280000000 cpu:               0.4 elap:               0.0
 (Enter /home/soft/g16/l703.exe)
 Integral derivatives from FoFJK, PRISM(SPDF).
 Compute integral first derivatives, UseDBF=F ICtDFT=           0.
 Calling FoFJK, ICntrl=      2147 FMM=F ISym2X=0 I1Cent= 0 IOpClX= 0 NMat=1 NMatS=1 NMatT=0.
 FoFJK:  IHMeth= 1 ICntrl=    2147 DoSepK=F KAlg= 0 I1Cent=           0 FoldK=F
 IRaf=         0 NMat=       1 IRICut=       1 DoRegI=T DoRafI=F ISym2E= 0 IDoP0=0 IntGTp=1.
 FoFCou: FMM=F IPFlag=           0 FMFlag=      100000 FMFlg1=         800
         NFxFlg=           0 DoJE=F BraDBF=F KetDBF=F FulRan=T
         wScrn=  0.000000 ICntrl=      2147 IOpCl=  0 I1Cent=           0 NGrid=           0
         NMat0=    1 NMatS0=      1 NMatT0=    0 NMatD0=    1 NMtDS0=    0 NMtDT0=    0
 Symmetry not used in FoFCou.
 Leave Link  703 at Tue Oct 15 11:19:48 2019, MaxMem=   280000000 cpu:              14.8 elap:               0.6
 (Enter /home/soft/g16/l716.exe)
 Dipole        = 1.58898265D-01-2.78189719D-01-3.31885775D-01
 Polarizability= 0.00000000D+00 0.00000000D+00 0.00000000D+00
                 0.00000000D+00 0.00000000D+00 0.00000000D+00
 -------------------------------------------------------------------
 Center     Atomic                   Forces (Hartrees/Bohr)
 Number     Number              X              Y              Z
 -------------------------------------------------------------------
      1        6           0.000008772   -0.000312216   -0.000284934
      2        1           0.000007357   -0.000019891   -0.000022715
      3        1           0.000000842    0.000052140    0.000083008
      4        6          -0.000141423   -0.000551957   -0.000549101
      5        1           0.000101435    0.000321361    0.000049210
      6        8           0.000362513   -0.000391017    0.000087436
      7        6          -0.000150347    0.000772339    0.000683851
      8        1          -0.000022090    0.000011534    0.000311374
      9        1           0.000239512   -0.000140343   -0.000000934
     10        6           0.000101830    0.000947262   -0.001409774
     11        1           0.000051182   -0.000912797   -0.000102021
     12        6          -0.000249806    0.000334681    0.000954478
     13        1          -0.000069685   -0.000095288    0.000251434
     14        1          -0.000240090   -0.000015809   -0.000051314
 -------------------------------------------------------------------
 Cartesian Forces:  Max     0.001409774 RMS     0.000421147
 Z-matrix is all fixed cartesians, so copy forces.
 Leave Link  716 at Tue Oct 15 11:19:49 2019, MaxMem=   280000000 cpu:               0.5 elap:               0.0
 (Enter /home/soft/g16/l123.exe)
 IRC-IRC-IRC-IRC-IRC-IRC-IRC-IRC-IRC-IRC-IRC-IRC-IRC-IRC-IRC-IRC-IRC-IRC
 Pt  1 Step number   1 out of a maximum of  20
 Point Number:   1          Path Number:   1
                    CURRENT STRUCTURE
                Cartesian Coordinates (Ang):                
 ---------------------------------------------------------------------
 Center     Atomic                     Coordinates (Angstroms)
 Number     Number                        X           Y           Z
 ---------------------------------------------------------------------
      1          6                    1.171944   -0.830431   -0.272398
      2          1                    1.951741   -1.495547    0.115341
      3          1                    1.253694   -0.859190   -1.370992
      4          6                   -0.134592   -1.305068    0.195552
      5          1                   -0.298550   -2.305890    0.584064
      6          8                   -1.269506   -0.652909   -0.026880
      7          6                   -1.190189    0.785660   -0.091208
      8          1                   -1.625575    1.054030   -1.070820
      9          1                   -1.938086    1.074049    0.660690
     10          6                    0.131820    1.409628    0.117144
     11          1                    0.160486    2.438646   -0.242808
     12          6                    1.414184    0.671179    0.145350
     13          1                    2.169149    1.145997   -0.508478
     14          1                    1.886912    0.606533    1.135141
 ---------------------------------------------------------------------
   CHANGE IN THE REACTION COORDINATE =    0.26991
   NET REACTION COORDINATE UP TO THIS POINT =    0.26991
  # OF POINTS ALONG THE PATH =   1
  # OF STEPS =   1

 Calculating another point on the path.
 Point Number  2 in FORWARD path direction.
 Using LQA Reaction Path Following.
   LQA: T_Est iteration completed in    4 iterations.
 IRC-IRC-IRC-IRC-IRC-IRC-IRC-IRC-IRC-IRC-IRC-IRC-IRC-IRC-IRC-IRC-IRC-IRC
 Leave Link  123 at Tue Oct 15 11:19:49 2019, MaxMem=   280000000 cpu:               3.4 elap:               0.2
 (Enter /home/soft/g16/l202.exe)
                          Input orientation:                          
 ---------------------------------------------------------------------
 Center     Atomic      Atomic             Coordinates (Angstroms)
 Number     Number       Type             X           Y           Z
 ---------------------------------------------------------------------
      1          6           0        1.171435   -0.833792   -0.274711
      2          1           0        1.951864   -1.499632    0.110694
      3          1           0        1.258640   -0.846887   -1.372083
      4          6           0       -0.133854   -1.310416    0.186721
      5          1           0       -0.294242   -2.298829    0.608858
      6          8           0       -1.266493   -0.654544   -0.026237
      7          6           0       -1.191617    0.790326   -0.080831
      8          1           0       -1.648016    1.068054   -1.047351
      9          1           0       -1.927451    1.059369    0.690696
     10          6           0        0.133474    1.415772    0.099320
     11          1           0        0.169821    2.426869   -0.310428
     12          6           0        1.410213    0.672086    0.158309
     13          1           0        2.179246    1.146370   -0.477613
     14          1           0        1.863957    0.593446    1.156202
 ---------------------------------------------------------------------
                    Distance matrix (angstroms):
                    1          2          3          4          5
     1  C    0.000000
     2  H    1.095878   0.000000
     3  H    1.100910   1.762176   0.000000
     4  C    1.464195   2.095662   2.140973   0.000000
     5  H    2.252828   2.435544   2.905805   1.086685   0.000000
     6  O    2.457104   3.330277   2.867855   1.326043   2.013030
     7  C    2.873911   3.893849   3.217384   2.367185   3.289959
     8  H    3.487592   4.570910   3.495869   3.077782   3.988939
     9  H    3.757547   4.683372   4.247357   3.014442   3.735179
    10  C    2.505554   3.436022   2.924149   2.740657   3.773702
    11  H    3.411219   4.332485   3.609725   3.782416   4.836596
    12  C    1.584989   2.238752   2.161563   2.513018   3.454634
    13  H    2.231120   2.720135   2.370795   3.439123   4.378123
    14  H    2.136378   2.341323   2.972069   2.925036   3.650023
                    6          7          8          9         10
     6  O    0.000000
     7  C    1.447839   0.000000
     8  H    2.038524   1.104352   0.000000
     9  H    1.971892   1.099586   1.760388   0.000000
    10  C    2.502375   1.476314   2.146967   2.173513   0.000000
    11  H    3.411578   2.141144   2.386202   2.696452   1.091573
    12  C    2.993119   2.615471   3.311068   3.401973   1.478719
    13  H    3.914096   3.412758   3.870228   4.270535   2.142571
    14  H    3.571465   3.302355   4.173111   3.848188   2.188102
                   11         12         13         14
    11  H    0.000000
    12  C    2.199443   0.000000
    13  H    2.388601   1.104878   0.000000
    14  H    2.895261   1.099026   1.753421   0.000000
 Symmetry turned off by external request.
 Stoichiometry    C5H8O
 Framework group  C1[X(C5H8O)]
 Deg. of freedom    36
 Full point group                 C1      NOp   1
 Rotational constants (GHZ):           5.1702298           4.5222306           2.5947786
 Leave Link  202 at Tue Oct 15 11:19:49 2019, MaxMem=   280000000 cpu:               0.2 elap:               0.0
 (Enter /home/soft/g16/l301.exe)
 Standard basis: 6-31+G(d) (6D, 7F)
 Ernie: Thresh=  0.10000D-02 Tol=  0.10000D-05 Strict=F.
   130 basis functions,   224 primitive gaussians,   130 cartesian basis functions
    23 alpha electrons       23 beta electrons
       nuclear repulsion energy       238.1422523006 Hartrees.
 IExCor=  402 DFT=T Ex+Corr=B3LYP ExCW=0 ScaHFX=  0.200000
 ScaDFX=  0.800000  0.720000  1.000000  0.810000 ScalE2=  1.000000  1.000000
 IRadAn=      5 IRanWt=     -1 IRanGd=            0 ICorTp=0 IEmpDi=  4
 NAtoms=   14 NActive=   14 NUniq=   14 SFac= 1.00D+00 NAtFMM=   60 NAOKFM=F Big=F
 Integral buffers will be    131072 words long.
 Raffenetti 2 integral format.
 Two-electron integral symmetry is turned off.
 Leave Link  301 at Tue Oct 15 11:19:49 2019, MaxMem=   280000000 cpu:               1.2 elap:               0.1
 (Enter /home/soft/g16/l302.exe)
 NPDir=0 NMtPBC=     1 NCelOv=     1 NCel=       1 NClECP=     1 NCelD=      1
         NCelK=      1 NCelE2=     1 NClLst=     1 CellRange=     0.0.
 One-electron integrals computed using PRISM.
 NBasis=   130 RedAO= T EigKep=  4.42D-05  NBF=   130
 NBsUse=   130 1.00D-06 EigRej= -1.00D+00 NBFU=   130
 Precomputing XC quadrature grid using
 IXCGrd= 4 IRadAn=           5 IRanWt=          -1 IRanGd=           0 AccXCQ= 0.00D+00.
 Generated NRdTot=       0 NPtTot=           0 NUsed=           0 NTot=          32
 NSgBfM=   130   130   130   130   130 MxSgAt=    14 MxSgA2=    14.
 Leave Link  302 at Tue Oct 15 11:19:49 2019, MaxMem=   280000000 cpu:               3.2 elap:               0.2
 (Enter /home/soft/g16/l303.exe)
 DipDrv:  MaxL=1.
 Leave Link  303 at Tue Oct 15 11:19:49 2019, MaxMem=   280000000 cpu:               1.2 elap:               0.1
 (Enter /home/soft/g16/l401.exe)
 Initial guess from the checkpoint file:  "irc4.chk"
 B after Tr=    -0.000121   -0.000191    0.001184
         Rot=    1.000000    0.000279   -0.000045    0.000018 Ang=   0.03 deg.
 Guess basis will be translated and rotated to current coordinates.
 JPrj=2 DoOrth=T DoCkMO=T.
 Generating alternative initial guess.
 ExpMin= 4.38D-02 ExpMax= 5.48D+03 ExpMxC= 8.25D+02 IAcc=2 IRadAn=         4 AccDes= 0.00D+00
 Harris functional with IExCor=  402 and IRadAn=       4 diagonalized for initial guess.
 HarFok:  IExCor=  402 AccDes= 0.00D+00 IRadAn=         4 IDoV= 1 UseB2=F ITyADJ=14
 ICtDFT=  3500011 ScaDFX=  1.000000  1.000000  1.000000  1.000000
 FoFCou: FMM=F IPFlag=           0 FMFlag=      100000 FMFlg1=           0
         NFxFlg=           0 DoJE=T BraDBF=F KetDBF=T FulRan=T
         wScrn=  0.000000 ICntrl=       500 IOpCl=  0 I1Cent=   200000004 NGrid=           0
         NMat0=    1 NMatS0=      1 NMatT0=    0 NMatD0=    1 NMtDS0=    0 NMtDT0=    0
 Symmetry not used in FoFCou.
 Harris En= -270.464190148363    
 Leave Link  401 at Tue Oct 15 11:19:49 2019, MaxMem=   280000000 cpu:               7.9 elap:               0.4
 (Enter /home/soft/g16/l502.exe)
 Two-electron integral symmetry not used.
 Closed shell SCF:
 Using DIIS extrapolation, IDIIS=  1040.
 NGot=   280000000 LenX=   279961824 LenY=   279944483
 Requested convergence on RMS density matrix=1.00D-08 within 128 cycles.
 Requested convergence on MAX density matrix=1.00D-06.
 Requested convergence on             energy=1.00D-06.
 No special actions if energy rises.
 Fock matrices will be formed incrementally for  20 cycles.

 Cycle   1  Pass 1  IDiag  1:
 FoFJK:  IHMeth= 1 ICntrl=       0 DoSepK=F KAlg= 0 I1Cent=           0 FoldK=F
 IRaf= 990000000 NMat=       1 IRICut=       1 DoRegI=T DoRafI=F ISym2E= 0 IDoP0=0 IntGTp=1.
 FoFCou: FMM=F IPFlag=           0 FMFlag=      100000 FMFlg1=           0
         NFxFlg=           0 DoJE=F BraDBF=F KetDBF=F FulRan=T
         wScrn=  0.000000 ICntrl=         0 IOpCl=  0 I1Cent=           0 NGrid=           0
         NMat0=    1 NMatS0=      1 NMatT0=    0 NMatD0=    1 NMtDS0=    0 NMtDT0=    0
 Symmetry not used in FoFCou.
 E= -270.430143316801    
 DIIS: error= 1.18D-03 at cycle   1 NSaved=   1.
 NSaved= 1 IEnMin= 1 EnMin= -270.430143316801     IErMin= 1 ErrMin= 1.18D-03
 ErrMax= 1.18D-03  0.00D+00 EMaxC= 1.00D-01 BMatC= 4.73D-04 BMatP= 4.73D-04
 IDIUse=3 WtCom= 9.88D-01 WtEn= 1.18D-02
 Coeff-Com:  0.100D+01
 Coeff-En:   0.100D+01
 Coeff:      0.100D+01
 Gap=     0.447 Goal=   None    Shift=    0.000
 GapD=    0.447 DampG=2.000 DampE=1.000 DampFc=2.0000 IDamp=-1.
 RMSDP=1.56D-03 MaxDP=3.95D-02              OVMax= 2.34D-02

 Cycle   2  Pass 1  IDiag  1:
 RMSU=  1.55D-03    CP:  9.96D-01
 E= -270.431326810045     Delta-E=       -0.001183493244 Rises=F Damp=F
 DIIS: error= 2.29D-04 at cycle   2 NSaved=   2.
 NSaved= 2 IEnMin= 2 EnMin= -270.431326810045     IErMin= 2 ErrMin= 2.29D-04
 ErrMax= 2.29D-04  0.00D+00 EMaxC= 1.00D-01 BMatC= 1.61D-05 BMatP= 4.73D-04
 IDIUse=3 WtCom= 9.98D-01 WtEn= 2.29D-03
 Coeff-Com: -0.441D-01 0.104D+01
 Coeff-En:   0.000D+00 0.100D+01
 Coeff:     -0.440D-01 0.104D+01
 Gap=     0.072 Goal=   None    Shift=    0.000
 RMSDP=5.53D-04 MaxDP=1.71D-02 DE=-1.18D-03 OVMax= 1.20D-02

 Cycle   3  Pass 1  IDiag  1:
 RMSU=  5.06D-04    CP:  9.89D-01  9.68D-01
 E= -270.431219847420     Delta-E=        0.000106962624 Rises=F Damp=F
 DIIS: error= 5.71D-04 at cycle   3 NSaved=   3.
 NSaved= 3 IEnMin= 2 EnMin= -270.431326810045     IErMin= 2 ErrMin= 2.29D-04
 ErrMax= 5.71D-04  0.00D+00 EMaxC= 1.00D-01 BMatC= 1.17D-04 BMatP= 1.61D-05
 IDIUse=3 WtCom= 2.95D-01 WtEn= 7.05D-01
 Coeff-Com: -0.524D-01 0.815D+00 0.237D+00
 Coeff-En:   0.000D+00 0.823D+00 0.177D+00
 Coeff:     -0.154D-01 0.820D+00 0.195D+00
 Gap=     0.073 Goal=   None    Shift=    0.000
 RMSDP=2.85D-04 MaxDP=5.93D-03 DE= 1.07D-04 OVMax= 1.35D-02

 Cycle   4  Pass 1  IDiag  1:
 RMSU=  1.97D-04    CP:  9.89D-01  1.05D+00  6.75D-01
 E= -270.431348915547     Delta-E=       -0.000129068126 Rises=F Damp=F
 DIIS: error= 2.11D-04 at cycle   4 NSaved=   4.
 NSaved= 4 IEnMin= 4 EnMin= -270.431348915547     IErMin= 4 ErrMin= 2.11D-04
 ErrMax= 2.11D-04  0.00D+00 EMaxC= 1.00D-01 BMatC= 1.10D-05 BMatP= 1.61D-05
 IDIUse=3 WtCom= 9.98D-01 WtEn= 2.11D-03
 Coeff-Com: -0.353D-01 0.378D+00 0.201D+00 0.456D+00
 Coeff-En:   0.000D+00 0.000D+00 0.166D+00 0.834D+00
 Coeff:     -0.352D-01 0.377D+00 0.201D+00 0.457D+00
 Gap=     0.073 Goal=   None    Shift=    0.000
 RMSDP=1.25D-04 MaxDP=3.57D-03 DE=-1.29D-04 OVMax= 3.27D-03

 Cycle   5  Pass 1  IDiag  1:
 RMSU=  4.55D-05    CP:  9.88D-01  1.04D+00  8.81D-01  9.24D-01
 E= -270.431362948275     Delta-E=       -0.000014032728 Rises=F Damp=F
 DIIS: error= 5.46D-05 at cycle   5 NSaved=   5.
 NSaved= 5 IEnMin= 5 EnMin= -270.431362948275     IErMin= 5 ErrMin= 5.46D-05
 ErrMax= 5.46D-05  0.00D+00 EMaxC= 1.00D-01 BMatC= 7.79D-07 BMatP= 1.10D-05
 IDIUse=1 WtCom= 1.00D+00 WtEn= 0.00D+00
 Coeff-Com: -0.996D-02 0.659D-01 0.872D-01 0.254D+00 0.602D+00
 Coeff:     -0.996D-02 0.659D-01 0.872D-01 0.254D+00 0.602D+00
 Gap=     0.073 Goal=   None    Shift=    0.000
 RMSDP=2.73D-05 MaxDP=1.26D-03 DE=-1.40D-05 OVMax= 4.72D-04

 Cycle   6  Pass 1  IDiag  1:
 RMSU=  2.43D-05    CP:  9.88D-01  1.05D+00  8.77D-01  9.49D-01  9.96D-01
 E= -270.431363602286     Delta-E=       -0.000000654011 Rises=F Damp=F
 DIIS: error= 1.76D-05 at cycle   6 NSaved=   6.
 NSaved= 6 IEnMin= 6 EnMin= -270.431363602286     IErMin= 6 ErrMin= 1.76D-05
 ErrMax= 1.76D-05  0.00D+00 EMaxC= 1.00D-01 BMatC= 1.33D-07 BMatP= 7.79D-07
 IDIUse=1 WtCom= 1.00D+00 WtEn= 0.00D+00
 Coeff-Com: -0.171D-02-0.772D-02 0.317D-01 0.890D-01 0.351D+00 0.537D+00
 Coeff:     -0.171D-02-0.772D-02 0.317D-01 0.890D-01 0.351D+00 0.537D+00
 Gap=     0.073 Goal=   None    Shift=    0.000
 RMSDP=1.67D-05 MaxDP=4.70D-04 DE=-6.54D-07 OVMax= 1.86D-04

 Cycle   7  Pass 1  IDiag  1:
 RMSU=  4.72D-06    CP:  9.88D-01  1.05D+00  9.03D-01  9.61D-01  1.04D+00
                    CP:  1.18D+00
 E= -270.431363726026     Delta-E=       -0.000000123739 Rises=F Damp=F
 DIIS: error= 6.88D-06 at cycle   7 NSaved=   7.
[...]
      3        1           0.000449279    0.000398622    0.001726536
      4        6           0.000129794    0.000897107    0.000487959
      5        1          -0.000240590   -0.000982226    0.000455377
      6        8           0.000494667    0.000545647   -0.001133746
      7        6          -0.000335078   -0.000805599    0.000727390
      8        1           0.000517768    0.000530610   -0.000447516
      9        1          -0.000186585    0.000273352   -0.000068507
     10        6           0.000562568   -0.001835779   -0.000944773
     11        1           0.000265695    0.001106663    0.000677326
     12        6           0.000175928   -0.000355554    0.001087593
     13        1          -0.000891356   -0.000238297    0.000206717
     14        1          -0.000249938    0.000275955   -0.001149558
 -------------------------------------------------------------------
 Cartesian Forces:  Max     0.001835779 RMS     0.000735145
 Z-matrix is all fixed cartesians, so copy forces.
 Leave Link  716 at Tue Oct 15 11:28:11 2019, MaxMem=   280000000 cpu:               0.9 elap:               0.1
 (Enter /home/soft/g16/l123.exe)
 IRC-IRC-IRC-IRC-IRC-IRC-IRC-IRC-IRC-IRC-IRC-IRC-IRC-IRC-IRC-IRC-IRC-IRC
 Reaction path inflection point has been passed.
   Previous lowest Hessian eigenvalue=   -0.0006812805
   Current lowest Hessian eigenvalue =    0.0013294011
 Pt 90 Step number   1 out of a maximum of  20
 Point Number:  40          Path Number:   2
                    CURRENT STRUCTURE
                Cartesian Coordinates (Ang):                
 ---------------------------------------------------------------------
 Center     Atomic                     Coordinates (Angstroms)
 Number     Number                        X           Y           Z
 ---------------------------------------------------------------------
      1          6                    1.211454   -0.853570   -0.306545
      2          1                    2.003473   -1.466216    0.138760
      3          1                    1.010447   -1.217947   -1.321869
      4          6                   -0.081129   -0.733365    0.543084
      5          1                   -0.197732   -1.377486    1.418304
      6          8                   -1.293327   -0.657961   -0.241016
      7          6                   -1.197454    0.794706   -0.306192
      8          1                   -1.086284    1.150155   -1.338315
      9          1                   -2.082820    1.257802    0.145032
     10          6                    0.071401    0.813900    0.571908
     11          1                    0.026714    1.413470    1.482256
     12          6                    1.427024    0.690961   -0.173398
     13          1                    1.540923    1.265141   -1.100794
     14          1                    2.269110    0.932217    0.486083
 ---------------------------------------------------------------------
   CHANGE IN THE REACTION COORDINATE =    0.19953
   NET REACTION COORDINATE UP TO THIS POINT =   10.53770
  # OF POINTS ALONG THE PATH =  90
  # OF STEPS =   1

 PES minimum detected on this side of the pathway.
    Step angle =   28.596
 Calculation of REVERSE path complete.
 Reaction path calculation complete.
 
 Energies reported relative to the TS energy of        -270.430933
 --------------------------------------------------------------------------
    Summary of reaction path following
 --------------------------------------------------------------------------
                        Energy    RxCoord
   1                   -0.07384 -10.53770
   2                   -0.07331 -10.33817
   3                   -0.07357 -10.10145
   4                   -0.07306  -9.85482
   5                   -0.07204  -9.58981
   6                   -0.06946  -9.32094
   7                   -0.06572  -9.05136
   8                   -0.06117  -8.78164
   9                   -0.05616  -8.51188
  10                   -0.05092  -8.24213
  11                   -0.04568  -7.97242
  12                   -0.04060  -7.70279
  13                   -0.03581  -7.43328
  14                   -0.03140  -7.16387
  15                   -0.02742  -6.89450
  16                   -0.02388  -6.62531
  17                   -0.02079  -6.35605
  18                   -0.01810  -6.08933
  19                   -0.01589  -5.82273
  20                   -0.01404  -5.55800
  21                   -0.01252  -5.28965
  22                   -0.01118  -5.02294
  23                   -0.00997  -4.76451
  24                   -0.00914  -4.50342
  25                   -0.00841  -4.23837
  26                   -0.00769  -3.96953
  27                   -0.00698  -3.70623
  28                   -0.00638  -3.44264
  29                   -0.00574  -3.18482
  30                   -0.00527  -2.91765
  31                   -0.00464  -2.65635
  32                   -0.00396  -2.40251
  33                   -0.00339  -2.14886
  34                   -0.00300  -1.88158
  35                   -0.00239  -1.61314
  36                   -0.00179  -1.34388
  37                   -0.00123  -1.07507
  38                   -0.00074  -0.80635
  39                   -0.00035  -0.53847
  40                   -0.00009  -0.26991
  41                    0.00000   0.00000
  42                   -0.00010   0.26991
  43                   -0.00043   0.53868
  44                   -0.00101   0.80665
  45                   -0.00185   1.07527
  46                   -0.00297   1.34405
  47                   -0.00436   1.61319
  48                   -0.00603   1.88224
  49                   -0.00797   2.15170
  50                   -0.01015   2.42034
  51                   -0.01238   2.68896
  52                   -0.01515   2.95311
  53                   -0.01833   3.21982
  54                   -0.02202   3.48797
  55                   -0.02616   3.75738
  56                   -0.03077   4.02700
  57                   -0.03576   4.29650
  58                   -0.04100   4.56622
  59                   -0.04639   4.83551
  60                   -0.05180   5.10499
  61                   -0.05717   5.37424
  62                   -0.06235   5.64389
  63                   -0.06729   5.91348
  64                   -0.07192   6.18313
  65                   -0.07620   6.45266
  66                   -0.08014   6.72193
  67                   -0.08375   6.99108
  68                   -0.08702   7.25997
  69                   -0.08986   7.52835
  70                   -0.09251   7.79417
  71                   -0.09494   8.06097
  72                   -0.09711   8.32895
  73                   -0.09896   8.59765
  74                   -0.10045   8.86489
  75                   -0.10182   9.12734
  76                   -0.10317   9.38866
  77                   -0.10439   9.65074
  78                   -0.10543   9.91408
  79                   -0.10635  10.17506
  80                   -0.10715  10.43559
  81                   -0.10776  10.69626
  82                   -0.10801  10.95358
  83                   -0.10872  11.19604
  84                   -0.10945  11.44200
  85                   -0.10993  11.70234
  86                   -0.11049  11.95646
  87                   -0.11093  12.21836
  88                   -0.11139  12.47653
  89                   -0.11179  12.73810
  90                   -0.11215  12.99942
  91                   -0.11248  13.26141
 --------------------------------------------------------------------------
 
 Total number of points:                   90
 Total number of gradient calculations:    91
 Total number of Hessian calculations:      1
 IRC-IRC-IRC-IRC-IRC-IRC-IRC-IRC-IRC-IRC-IRC-IRC-IRC-IRC-IRC-IRC-IRC-IRC
 Leave Link  123 at Tue Oct 15 11:28:11 2019, MaxMem=   280000000 cpu:               2.0 elap:               0.1
 (Enter /home/soft/g16/l202.exe)
                          Input orientation:                          
 ---------------------------------------------------------------------
 Center     Atomic      Atomic             Coordinates (Angstroms)
 Number     Number       Type             X           Y           Z
 ---------------------------------------------------------------------
      1          6           0        1.211454   -0.853570   -0.306545
      2          1           0        2.003473   -1.466216    0.138760
      3          1           0        1.010447   -1.217947   -1.321869
      4          6           0       -0.081129   -0.733365    0.543084
      5          1           0       -0.197732   -1.377486    1.418304
      6          8           0       -1.293327   -0.657961   -0.241016
      7          6           0       -1.197454    0.794706   -0.306192
      8          1           0       -1.086284    1.150155   -1.338315
      9          1           0       -2.082820    1.257802    0.145032
     10          6           0        0.071401    0.813900    0.571908
     11          1           0        0.026714    1.413470    1.482256
     12          6           0        1.427024    0.690961   -0.173398
     13          1           0        1.540923    1.265141   -1.100794
     14          1           0        2.269110    0.932217    0.486083
 ---------------------------------------------------------------------
                    Distance matrix (angstroms):
                    1          2          3          4          5
     1  C    0.000000
     2  H    1.095868   0.000000
     3  H    1.097296   1.783586   0.000000
     4  C    1.551480   2.246356   2.214590   0.000000
     5  H    2.288099   2.547628   2.998949   1.092931   0.000000
     6  O    2.513262   3.415611   2.605609   1.445657   2.114566
     7  C    2.918844   3.944069   3.155503   2.074235   2.948177
     8  H    3.218550   4.309727   3.162983   2.845636   3.844144
     9  H    3.938789   4.911019   4.224859   2.851308   3.481310
    10  C    2.202693   3.019842   2.931996   1.555032   2.364528
    11  H    3.121359   3.742345   3.969282   2.345756   2.800697
    12  C    1.565175   2.254584   2.266374   2.194670   3.074382
    13  H    2.286551   3.034923   2.548726   3.054081   4.043792
    14  H    2.221695   2.437966   3.078332   2.881152   3.505578
                    6          7          8          9         10
     6  O    0.000000
     7  C    1.457286   0.000000
     8  H    2.125139   1.097260   0.000000
     9  H    2.107720   1.096328   1.790249   0.000000
    10  C    2.165573   1.543185   2.258817   2.240523   0.000000
    11  H    3.000500   2.253886   3.043636   2.502506   1.090970
    12  C    3.037182   2.629882   2.807955   3.569554   1.551873
    13  H    3.531361   2.889880   2.640427   3.831925   2.271793
    14  H    3.968412   3.558605   3.825519   4.377398   2.202564
                   11         12         13         14
    11  H    0.000000
    12  C    2.285625   0.000000
    13  H    2.997829   1.096685   0.000000
    14  H    2.500461   1.096462   1.777434   0.000000
 Symmetry turned off by external request.
 Stoichiometry    C5H8O
 Framework group  C1[X(C5H8O)]
 Deg. of freedom    36
 Full point group                 C1      NOp   1
 Rotational constants (GHZ):           6.5914640           4.0534681           3.1417490
 Leave Link  202 at Tue Oct 15 11:28:11 2019, MaxMem=   280000000 cpu:               0.2 elap:               0.0
 (Enter /home/soft/g16/l601.exe)
 Copying SCF densities to generalized density rwf, IOpCl= 0 IROHF=0.

 **********************************************************************

            Population analysis using the SCF density.

 **********************************************************************

 Alpha  occ. eigenvalues --  -19.14782 -10.24001 -10.23845 -10.19930 -10.19511
 Alpha  occ. eigenvalues --  -10.18874  -1.04239  -0.82891  -0.71857  -0.65383
 Alpha  occ. eigenvalues --   -0.62729  -0.52811  -0.51642  -0.48230  -0.46449
 Alpha  occ. eigenvalues --   -0.42222  -0.40995  -0.37836  -0.35607  -0.33578
 Alpha  occ. eigenvalues --   -0.31078  -0.28834  -0.24971
 Alpha virt. eigenvalues --    0.00274   0.01218   0.02046   0.02943   0.04224
 Alpha virt. eigenvalues --    0.05043   0.05874   0.06454   0.06880   0.09047
 Alpha virt. eigenvalues --    0.09553   0.10024   0.10769   0.11200   0.12096
 Alpha virt. eigenvalues --    0.13911   0.14630   0.16232   0.16839   0.17379
 Alpha virt. eigenvalues --    0.17864   0.19943   0.20554   0.21762   0.22496
 Alpha virt. eigenvalues --    0.24412   0.25273   0.26583   0.27767   0.29190
 Alpha virt. eigenvalues --    0.31319   0.32010   0.33441   0.34381   0.34756
 Alpha virt. eigenvalues --    0.36586   0.37670   0.41940   0.42853   0.59488
 Alpha virt. eigenvalues --    0.63270   0.64576   0.66488   0.67720   0.69661
 Alpha virt. eigenvalues --    0.72657   0.74008   0.76725   0.77322   0.78983
 Alpha virt. eigenvalues --    0.81709   0.85340   0.91435   0.93192   0.95664
 Alpha virt. eigenvalues --    0.96930   1.00934   1.02913   1.04948   1.05783
 Alpha virt. eigenvalues --    1.13076   1.14992   1.19894   1.23879   1.26420
 Alpha virt. eigenvalues --    1.33157   1.34216   1.37638   1.42183   1.49632
 Alpha virt. eigenvalues --    1.52604   1.65132   1.69184   1.74238   1.75469
 Alpha virt. eigenvalues --    1.80857   1.83434   1.90461   1.94924   1.98243
 Alpha virt. eigenvalues --    2.02731   2.03302   2.05970   2.08586   2.10489
 Alpha virt. eigenvalues --    2.15547   2.21439   2.25052   2.27502   2.35767
 Alpha virt. eigenvalues --    2.39909   2.44646   2.53962   2.56802   2.64363
 Alpha virt. eigenvalues --    2.64665   2.71376   2.74129   2.85330   2.94912
 Alpha virt. eigenvalues --    3.01520   4.17538   4.27375   4.31876   4.46115
 Alpha virt. eigenvalues --    4.56031   4.87216
          Condensed to atoms (all electrons):
               1          2          3          4          5          6
     1  C    6.548448   0.378031   0.410295  -0.509384  -0.057997  -0.126921
     2  H    0.378031   0.517330  -0.025029  -0.036209  -0.001955   0.004362
     3  H    0.410295  -0.025029   0.491741  -0.058986   0.001793  -0.007985
     4  C   -0.509384  -0.036209  -0.058986   6.054150   0.332671   0.313620
     5  H   -0.057997  -0.001955   0.001793   0.332671   0.576389  -0.052914
     6  O   -0.126921   0.004362  -0.007985   0.313620  -0.052914   8.336635
     7  C    0.067853  -0.004811   0.001192  -0.275933   0.007850   0.169291
     8  H   -0.002514  -0.000057   0.000080   0.038223  -0.000927  -0.049634
     9  H   -0.008777   0.000026   0.000003   0.007497   0.000733  -0.057947
    10  C    0.016770   0.038363   0.051198  -0.009629  -0.004655  -0.215839
    11  H    0.047612  -0.000450  -0.000380  -0.043824  -0.003280   0.016309
    12  C   -0.171893  -0.063732  -0.078942   0.030626   0.026304   0.070781
    13  H   -0.093172   0.002642  -0.004723   0.079832  -0.000436  -0.001753
    14  H   -0.064529  -0.007502   0.002974   0.025808  -0.000364  -0.001417
               7          8          9         10         11         12
     1  C    0.067853  -0.002514  -0.008777   0.016770   0.047612  -0.171893
     2  H   -0.004811  -0.000057   0.000026   0.038363  -0.000450  -0.063732
     3  H    0.001192   0.000080   0.000003   0.051198  -0.000380  -0.078942
     4  C   -0.275933   0.038223   0.007497  -0.009629  -0.043824   0.030626
     5  H    0.007850  -0.000927   0.000733  -0.004655  -0.003280   0.026304
     6  O    0.169291  -0.049634  -0.057947  -0.215839   0.016309   0.070781
     7  C    5.331455   0.380216   0.386209   0.285023  -0.046074  -0.029597
     8  H    0.380216   0.575249  -0.050072  -0.081312   0.003406   0.002795
     9  H    0.386209  -0.050072   0.571413  -0.038210  -0.005886   0.011617
    10  C    0.285023  -0.081312  -0.038210   5.837634   0.344391  -0.111636
    11  H   -0.046074   0.003406  -0.005886   0.344391   0.534783  -0.029659
    12  C   -0.029597   0.002795   0.011617  -0.111636  -0.029659   6.036747
    13  H   -0.010605   0.002716   0.000099  -0.086359   0.001995   0.422958
    14  H    0.011341   0.000140  -0.000122  -0.061434  -0.004983   0.407636
              13         14
     1  C   -0.093172  -0.064529
     2  H    0.002642  -0.007502
     3  H   -0.004723   0.002974
     4  C    0.079832   0.025808
     5  H   -0.000436  -0.000364
     6  O   -0.001753  -0.001417
     7  C   -0.010605   0.011341
     8  H    0.002716   0.000140
     9  H    0.000099  -0.000122
    10  C   -0.086359  -0.061434
    11  H    0.001995  -0.004983
    12  C    0.422958   0.407636
    13  H    0.519096  -0.029172
    14  H   -0.029172   0.521606
 Mulliken charges:
               1
     1  C   -0.433822
     2  H    0.198991
     3  H    0.216771
     4  C    0.051536
     5  H    0.176788
     6  O   -0.396589
     7  C   -0.273411
     8  H    0.181691
     9  H    0.183418
    10  C    0.035695
    11  H    0.186042
    12  C   -0.524007
    13  H    0.196881
    14  H    0.200016
 Sum of Mulliken charges =  -0.00000
 Mulliken charges with hydrogens summed into heavy atoms:
               1
     1  C   -0.018060
     4  C    0.228324
     6  O   -0.396589
     7  C    0.091698
    10  C    0.221736
    12  C   -0.127109
 APT charges:
               1
     1  C   -0.826687
     2  H    0.517891
     3  H    0.409100
     4  C   -0.316051
     5  H    0.470693
     6  O   -0.432669
     7  C   -0.786813
     8  H    0.401210
     9  H    0.514664
    10  C   -0.296423
    11  H    0.474659
    12  C   -1.076303
    13  H    0.435345
    14  H    0.511385
 Sum of APT charges =  -0.00000
 APT charges with hydrogens summed into heavy atoms:
               1
     1  C    0.100303
     4  C    0.154642
     6  O   -0.432669
     7  C    0.129060
    10  C    0.178237
    12  C   -0.129573
 Electronic spatial extent (au):  <R**2>=            478.3962
 Charge=             -0.0000 electrons
 Dipole moment (field-independent basis, Debye):
    X=              1.4645    Y=              1.3619    Z=              0.7500  Tot=              2.1359
 Quadrupole moment (field-independent basis, Debye-Ang):
   XX=            -39.1511   YY=            -37.2826   ZZ=            -36.1389
   XY=             -3.2687   XZ=             -0.3399   YZ=             -1.1354
 Traceless Quadrupole moment (field-independent basis, Debye-Ang):
   XX=             -1.6270   YY=              0.2416   ZZ=              1.3853
   XY=             -3.2687   XZ=             -0.3399   YZ=             -1.1354
 Octapole moment (field-independent basis, Debye-Ang**2):
  XXX=             -5.8778  YYY=             -4.9123  ZZZ=             -0.5111  XYY=             -1.9975
  XXY=              3.5390  XXZ=              2.0923  XZZ=             -2.7318  YZZ=             -0.7961
  YYZ=              1.5668  XYZ=              1.0044
 Hexadecapole moment (field-independent basis, Debye-Ang**3):
 XXXX=           -338.1655 YYYY=           -210.9644 ZZZZ=           -107.3679 XXXY=             -2.3421
 XXXZ=              3.7271 YYYX=              4.9091 YYYZ=             -2.0425 ZZZX=             -0.0383
 ZZZY=             -1.2511 XXYY=            -92.2677 XXZZ=            -74.3867 YYZZ=            -50.0072
 XXYZ=             -1.4114 YYXZ=             -1.0209 ZZXY=              2.2136
 N-N= 2.457741231424D+02 E-N=-1.120379710979D+03  KE= 2.679592551240D+02
  Exact polarizability:   0.000   0.000   0.000   0.000   0.000   0.000
 Approx polarizability:  77.618  -1.868  77.761   0.844  -1.609  73.231
 No NMR shielding tensors so no spin-rotation constants.
 Leave Link  601 at Tue Oct 15 11:28:11 2019, MaxMem=   280000000 cpu:               2.0 elap:               0.1
 (Enter /home/soft/g16/l9999.exe)

 This type of calculation cannot be archived.


 A SCIENTIST IS SOMEONE WHOSE CURIOSITY SURVIVES
 EDUCATION'S ASSAULTS ON IT.
                          - SIR HERMANN BONDI
 Job cpu time:       0 days  3 hours 15 minutes 22.9 seconds.
 Elapsed time:       0 days  0 hours  8 minutes 51.9 seconds.
 File lengths (MBytes):  RWF=    332 Int=      0 D2E=      0 Chk=     12 Scr=      8
 Normal termination of Gaussian 16 at Tue Oct 15 11:28:11 2019.
