 Entering Gaussian System, Link 0=g16
 Input=ircb4.gjf
 Output=ircb4.log
 Initial command:
 /home/soft/g16/l1.exe "/tmp/gaussian/Gau-59134.inp" -scrdir="/tmp/gaussian/"
 Entering Link 1 = /home/soft/g16/l1.exe PID=     59135.
  
 Copyright (c) 1988,1990,1992,1993,1995,1998,2003,2009,2016,
            Gaussian, Inc.  All Rights Reserved.
  
 This is part of the Gaussian(R) 16 program.  It is based on
 the Gaussian(R) 09 system (copyright 2009, Gaussian, Inc.),
 the Gaussian(R) 03 system (copyright 2003, Gaussian, Inc.),
 the Gaussian(R) 98 system (copyright 1998, Gaussian, Inc.),
 the Gaussian(R) 94 system (copyright 1995, Gaussian, Inc.),
 the Gaussian 92(TM) system (copyright 1992, Gaussian, Inc.),
 the Gaussian 90(TM) system (copyright 1990, Gaussian, Inc.),
 the Gaussian 88(TM) system (copyright 1988, Gaussian, Inc.),
 the Gaussian 86(TM) system (copyright 1986, Carnegie Mellon
 University), and the Gaussian 82(TM) system (copyright 1983,
 Carnegie Mellon University). Gaussian is a federally registered
 trademark of Gaussian, Inc.
  
 This software contains proprietary and confidential information,
 including trade secrets, belonging to Gaussian, Inc.
  
 This software is provided under written license and may be
 used, copied, transmitted, or stored only in accord with that
 written license.
  
 The following legend is applicable only to US Government
 contracts under FAR:
  
                    RESTRICTED RIGHTS LEGEND
  
 Use, reproduction and disclosure by the US Government is
 subject to restrictions as set forth in subparagraphs (a)
 and (c) of the Commercial Computer Software - Restricted
 Rights clause in FAR 52.227-19.
  
 Gaussian, Inc.
 340 Quinnipiac St., Bldg. 40, Wallingford CT 06492
  
  
 ---------------------------------------------------------------
 Warning -- This program may not be used in any manner that
 competes with the business of Gaussian, Inc. or will provide
 assistance to any competitor of Gaussian, Inc.  The licensee
 of this program is prohibited from giving any competitor of
 Gaussian, Inc. access to this program.  By using this program,
 the user acknowledges that Gaussian, Inc. is engaged in the
 business of creating and licensing software in the field of
 computational chemistry and represents and warrants to the
 licensee that it is not a competitor of Gaussian, Inc. and that
 it will not use this program in any manner prohibited above.
 ---------------------------------------------------------------
  

 Cite this work as:
 Gaussian 16, Revision A.03,
 M. J. Frisch, G. W. Trucks, H. B. Schlegel, G. E. Scuseria, 
 M. A. Robb, J. R. Cheeseman, G. Scalmani, V. Barone, 
 G. A. Petersson, H. Nakatsuji, X. Li, M. Caricato, A. V. Marenich, 
 J. Bloino, B. G. Janesko, R. Gomperts, B. Mennucci, H. P. Hratchian, 
 J. V. Ortiz, A. F. Izmaylov, J. L. Sonnenberg, D. Williams-Young, 
 F. Ding, F. Lipparini, F. Egidi, J. Goings, B. Peng, A. Petrone, 
 T. Henderson, D. Ranasinghe, V. G. Zakrzewski, J. Gao, N. Rega, 
 G. Zheng, W. Liang, M. Hada, M. Ehara, K. Toyota, R. Fukuda, 
 J. Hasegawa, M. Ishida, T. Nakajima, Y. Honda, O. Kitao, H. Nakai, 
 T. Vreven, K. Throssell, J. A. Montgomery, Jr., J. E. Peralta, 
 F. Ogliaro, M. J. Bearpark, J. J. Heyd, E. N. Brothers, K. N. Kudin, 
 V. N. Staroverov, T. A. Keith, R. Kobayashi, J. Normand, 
 K. Raghavachari, A. P. Rendell, J. C. Burant, S. S. Iyengar, 
 J. Tomasi, M. Cossi, J. M. Millam, M. Klene, C. Adamo, R. Cammi, 
 J. W. Ochterski, R. L. Martin, K. Morokuma, O. Farkas, 
 J. B. Foresman, and D. J. Fox, Gaussian, Inc., Wallingford CT, 2016.
 
 ******************************************
 Gaussian 16:  ES64L-G16RevA.03 25-Dec-2016
                16-Oct-2019 
 ******************************************
 %chk=ircb4.chk
 %nprocshared=24
 Will use up to   24 processors via shared memory.
 -----------------------------------------------
 #p irc=(lqa,calcfc,maxpoint=30) b3lyp/6-31+g(d)
 -----------------------------------------------
 1/10=4,18=10,26=3,38=1,42=30,44=3,45=2,172=1/1,23;
 2/12=2,17=6,18=5,29=1,40=1/2;
 3/5=1,6=6,7=11,11=2,25=1,30=1,71=2,74=-5,140=1/1,2,3;
 4//1;
 5/5=2,38=5/2;
 8/6=4,10=90,11=11/1;
 11/6=1,8=1,9=11,15=111,16=1/1,2,10;
 10/6=1,13=1/2;
 6/7=2,8=2,9=2,10=2,28=1/1;
 7/10=1,18=20,25=1/1,2,3,16;
 1/10=4,18=10,26=3,42=30,44=3,45=2/23(2);
 2/29=1/2;
 99/5=20/99;
 2/29=1/2;
 3/5=1,6=6,7=11,11=2,25=1,30=1,71=2,74=-5,140=1/1,2,3;
 4/5=5,16=3,69=1/1;
 5/5=2,38=5/2;
 8/6=4,10=90,11=11/1;
 11/6=1,8=1,9=11,15=111,16=1/1,2,10;
 10/6=1,13=1/2;
 7/10=1,18=20,25=1/1,2,3,16;
 1/18=10,26=3,42=30,44=3,45=2/23(-8);
 2/29=1/2;
 6/7=2,8=2,9=2,10=2,19=2,28=1/1;
 99/5=20,9=1/99;
 Leave Link    1 at Wed Oct 16 02:42:37 2019, MaxMem=           0 cpu:               4.6 elap:               0.2
 (Enter /home/soft/g16/l101.exe)
 -------------------
 Title Card Required
 -------------------
 Symbolic Z-matrix:
 Charge =  0 Multiplicity = 1
 C                    -1.47664   0.80065  -0.2926 
 H                    -1.22862   0.9716   -1.33436 
 H                    -2.1409    1.51934   0.18292 
 C                    -1.30522  -0.4528    0.26744 
 O                    -0.54093  -1.35576  -0.24689 
 C                     1.29415  -0.91654   0.17895 
 H                     1.17396  -1.08877   1.24428 
 H                     1.74713  -1.7367   -0.36747 
 C                     1.38201   0.39477  -0.31071 
 H                     1.69118   0.53495  -1.34497 
 C                     0.70828   1.42164   0.32689 
 H                     0.48566   1.36362   1.38801 
 H                     0.67023   2.41975  -0.10124 
 H                    -1.68668  -0.62407   1.28812 
 
 ITRead=  0  0  0  0  0  0  0  0  0  0  0  0  0  0
 MicOpt= -1 -1 -1 -1 -1 -1 -1 -1 -1 -1 -1 -1 -1 -1
 NAtoms=     14 NQM=       14 NQMF=       0 NMMI=      0 NMMIF=      0
                NMic=       0 NMicF=      0.
                    Isotopes and Nuclear Properties:
 (Nuclear quadrupole moments (NQMom) in fm**2, nuclear magnetic moments (NMagM)
  in nuclear magnetons)

  Atom         1           2           3           4           5           6           7           8           9          10
 IAtWgt=          12           1           1          12          16          12           1           1          12           1
 AtmWgt=  12.0000000   1.0078250   1.0078250  12.0000000  15.9949146  12.0000000   1.0078250   1.0078250  12.0000000   1.0078250
 NucSpn=           0           1           1           0           0           0           1           1           0           1
 AtZEff=  -0.0000000  -0.0000000  -0.0000000  -0.0000000  -0.0000000  -0.0000000  -0.0000000  -0.0000000  -0.0000000  -0.0000000
 NQMom=    0.0000000   0.0000000   0.0000000   0.0000000   0.0000000   0.0000000   0.0000000   0.0000000   0.0000000   0.0000000
 NMagM=    0.0000000   2.7928460   2.7928460   0.0000000   0.0000000   0.0000000   2.7928460   2.7928460   0.0000000   2.7928460
 AtZNuc=   6.0000000   1.0000000   1.0000000   6.0000000   8.0000000   6.0000000   1.0000000   1.0000000   6.0000000   1.0000000

  Atom        11          12          13          14
 IAtWgt=          12           1           1           1
 AtmWgt=  12.0000000   1.0078250   1.0078250   1.0078250
 NucSpn=           0           1           1           1
 AtZEff=  -0.0000000  -0.0000000  -0.0000000  -0.0000000
 NQMom=    0.0000000   0.0000000   0.0000000   0.0000000
 NMagM=    0.0000000   2.7928460   2.7928460   2.7928460
 AtZNuc=   6.0000000   1.0000000   1.0000000   1.0000000
 Leave Link  101 at Wed Oct 16 02:42:37 2019, MaxMem=   280000000 cpu:               2.7 elap:               0.2
 (Enter /home/soft/g16/l123.exe)
 IRC-IRC-IRC-IRC-IRC-IRC-IRC-IRC-IRC-IRC-IRC-IRC-IRC-IRC-IRC-IRC-IRC-IRC
 ------------------------------------------------------------------------
 INPUT DATA FOR L123
 ------------------------------------------------------------------------
 GENERAL PARAMETERS:
 Follow reaction path in both directions.
 Maximum points per path      =  30
 Step size                    =   0.100 bohr
 Integration scheme           = LQA                                 
 Initial Hessian              = CalcFC
 Hessian evaluation           = All updating
 Hessian updating method      = Bofill                              
 ------------------------------------------------------------------------
 IRC-IRC-IRC-IRC-IRC-IRC-IRC-IRC-IRC-IRC-IRC-IRC-IRC-IRC-IRC-IRC-IRC-IRC
 Leave Link  123 at Wed Oct 16 02:42:37 2019, MaxMem=   280000000 cpu:               0.4 elap:               0.0
 (Enter /home/soft/g16/l202.exe)
                          Input orientation:                          
 ---------------------------------------------------------------------
 Center     Atomic      Atomic             Coordinates (Angstroms)
 Number     Number       Type             X           Y           Z
 ---------------------------------------------------------------------
      1          6           0       -1.476640    0.800649   -0.292599
      2          1           0       -1.228620    0.971601   -1.334360
      3          1           0       -2.140901    1.519343    0.182918
      4          6           0       -1.305221   -0.452797    0.267439
      5          8           0       -0.540933   -1.355757   -0.246888
      6          6           0        1.294148   -0.916541    0.178946
      7          1           0        1.173960   -1.088771    1.244279
      8          1           0        1.747131   -1.736698   -0.367465
      9          6           0        1.382013    0.394774   -0.310709
     10          1           0        1.691177    0.534954   -1.344971
     11          6           0        0.708282    1.421636    0.326890
     12          1           0        0.485662    1.363623    1.388012
     13          1           0        0.670231    2.419754   -0.101243
     14          1           0       -1.686676   -0.624074    1.288124
 ---------------------------------------------------------------------
                    Distance matrix (angstroms):
                    1          2          3          4          5
     1  C    0.000000
     2  H    1.084437   0.000000
     3  H    1.088063   1.853216   0.000000
     4  C    1.383530   2.144886   2.143558   0.000000
     5  O    2.351111   2.659343   3.318257   1.289963   0.000000
     6  C    3.293685   3.495645   4.211070   2.641895   1.934365
     7  H    3.599664   4.082512   4.349373   2.739529   2.288169
     8  H    4.103222   4.138220   5.101129   3.371700   2.322691
     9  C    2.887379   2.862865   3.730851   2.876432   2.601183
    10  H    3.348603   2.952285   4.241260   3.543151   3.124562
    11  C    2.354416   2.591114   2.854491   2.751586   3.098979
    12  H    2.644243   3.240949   2.894017   2.786095   3.334940
    13  H    2.695770   2.687631   2.965460   3.505693   3.967696
    14  H    2.138372   3.103775   2.453984   1.103015   2.050451
                    6          7          8          9         10
     6  C    0.000000
     7  H    1.085837   0.000000
     8  H    1.084627   1.829222   0.000000
     9  C    1.402508   2.159208   2.163263   0.000000
    10  H    2.141680   3.099712   2.473672   1.088545   0.000000
    11  C    2.414994   2.713043   3.396529   1.383796   2.132465
    12  H    2.704559   2.551206   3.779549   2.151224   3.099864
    13  H    3.405678   3.791295   4.301939   2.156630   2.478238
    14  H    3.193920   2.898466   3.971138   3.607100   4.436939
                   11         12         13         14
    11  C    0.000000
    12  H    1.085774   0.000000
    13  H    1.086731   1.835036   0.000000
    14  H    3.293133   2.946179   4.092706   0.000000
 Symmetry turned off by external request.
 Stoichiometry    C5H8O
 Framework group  C1[X(C5H8O)]
 Deg. of freedom    36
 Full point group                 C1      NOp   1
 Rotational constants (GHZ):           4.7923723           3.8072959           2.4178799
 Leave Link  202 at Wed Oct 16 02:42:37 2019, MaxMem=   280000000 cpu:               1.5 elap:               0.1
 (Enter /home/soft/g16/l301.exe)
 Standard basis: 6-31+G(d) (6D, 7F)
 Ernie: Thresh=  0.10000D-02 Tol=  0.10000D-05 Strict=F.
   130 basis functions,   224 primitive gaussians,   130 cartesian basis functions
    23 alpha electrons       23 beta electrons
       nuclear repulsion energy       228.6790879032 Hartrees.
 IExCor=  402 DFT=T Ex+Corr=B3LYP ExCW=0 ScaHFX=  0.200000
 ScaDFX=  0.800000  0.720000  1.000000  0.810000 ScalE2=  1.000000  1.000000
 IRadAn=      5 IRanWt=     -1 IRanGd=            0 ICorTp=0 IEmpDi=  4
 NAtoms=   14 NActive=   14 NUniq=   14 SFac= 1.00D+00 NAtFMM=   60 NAOKFM=F Big=F
 Integral buffers will be    131072 words long.
 Raffenetti 2 integral format.
 Two-electron integral symmetry is turned off.
 Leave Link  301 at Wed Oct 16 02:42:37 2019, MaxMem=   280000000 cpu:               2.2 elap:               0.1
 (Enter /home/soft/g16/l302.exe)
 NPDir=0 NMtPBC=     1 NCelOv=     1 NCel=       1 NClECP=     1 NCelD=      1
         NCelK=      1 NCelE2=     1 NClLst=     1 CellRange=     0.0.
 One-electron integrals computed using PRISM.
 NBasis=   130 RedAO= T EigKep=  6.13D-05  NBF=   130
 NBsUse=   130 1.00D-06 EigRej= -1.00D+00 NBFU=   130
 Precomputing XC quadrature grid using
 IXCGrd= 4 IRadAn=           5 IRanWt=          -1 IRanGd=           0 AccXCQ= 0.00D+00.
 Generated NRdTot=       0 NPtTot=           0 NUsed=           0 NTot=          32
 NSgBfM=   130   130   130   130   130 MxSgAt=    14 MxSgA2=    14.
 Leave Link  302 at Wed Oct 16 02:42:37 2019, MaxMem=   280000000 cpu:               4.5 elap:               0.2
 (Enter /home/soft/g16/l303.exe)
 DipDrv:  MaxL=1.
 Leave Link  303 at Wed Oct 16 02:42:37 2019, MaxMem=   280000000 cpu:               1.1 elap:               0.1
 (Enter /home/soft/g16/l401.exe)
 ExpMin= 4.38D-02 ExpMax= 5.48D+03 ExpMxC= 8.25D+02 IAcc=3 IRadAn=         5 AccDes= 0.00D+00
 Harris functional with IExCor=  402 and IRadAn=       5 diagonalized for initial guess.
 HarFok:  IExCor=  402 AccDes= 0.00D+00 IRadAn=         5 IDoV= 1 UseB2=F ITyADJ=14
 ICtDFT=  3500011 ScaDFX=  1.000000  1.000000  1.000000  1.000000
 FoFCou: FMM=F IPFlag=           0 FMFlag=      100000 FMFlg1=           0
         NFxFlg=           0 DoJE=T BraDBF=F KetDBF=T FulRan=T
         wScrn=  0.000000 ICntrl=       500 IOpCl=  0 I1Cent=   200000004 NGrid=           0
         NMat0=    1 NMatS0=      1 NMatT0=    0 NMatD0=    1 NMtDS0=    0 NMtDT0=    0
 Symmetry not used in FoFCou.
 Harris En= -270.505060495555    
 JPrj=0 DoOrth=F DoCkMO=F.
 Leave Link  401 at Wed Oct 16 02:42:38 2019, MaxMem=   280000000 cpu:               8.3 elap:               0.4
 (Enter /home/soft/g16/l502.exe)
 Two-electron integral symmetry not used.
 Closed shell SCF:
 Using DIIS extrapolation, IDIIS=  1040.
 NGot=   280000000 LenX=   279961852 LenY=   279944511
 Requested convergence on RMS density matrix=1.00D-08 within 128 cycles.
 Requested convergence on MAX density matrix=1.00D-06.
 Requested convergence on             energy=1.00D-06.
 No special actions if energy rises.
 Fock matrices will be formed incrementally for  20 cycles.

 Cycle   1  Pass 1  IDiag  1:
 FoFJK:  IHMeth= 1 ICntrl=       0 DoSepK=F KAlg= 0 I1Cent=           0 FoldK=F
 IRaf= 990000000 NMat=       1 IRICut=       1 DoRegI=T DoRafI=F ISym2E= 0 IDoP0=0 IntGTp=1.
 FoFCou: FMM=F IPFlag=           0 FMFlag=      100000 FMFlg1=           0
         NFxFlg=           0 DoJE=F BraDBF=F KetDBF=F FulRan=T
         wScrn=  0.000000 ICntrl=         0 IOpCl=  0 I1Cent=           0 NGrid=           0
         NMat0=    1 NMatS0=      1 NMatT0=    0 NMatD0=    1 NMtDS0=    0 NMtDT0=    0
 Symmetry not used in FoFCou.
 E= -270.322207668332    
 DIIS: error= 2.45D-02 at cycle   1 NSaved=   1.
 NSaved= 1 IEnMin= 1 EnMin= -270.322207668332     IErMin= 1 ErrMin= 2.45D-02
 ErrMax= 2.45D-02  0.00D+00 EMaxC= 1.00D-01 BMatC= 1.43D-01 BMatP= 1.43D-01
 IDIUse=3 WtCom= 7.55D-01 WtEn= 2.45D-01
 Coeff-Com:  0.100D+01
 Coeff-En:   0.100D+01
 Coeff:      0.100D+01
 Gap=     0.187 Goal=   None    Shift=    0.000
 GapD=    0.187 DampG=1.000 DampE=0.500 DampFc=0.5000 IDamp=-1.
 Damping current iteration by 5.00D-01
 RMSDP=1.57D-02 MaxDP=4.78D-01              OVMax= 1.97D-01

 Cycle   2  Pass 1  IDiag  1:
 RMSU=  7.84D-03    CP:  9.86D-01
 E= -270.382510982364     Delta-E=       -0.060303314033 Rises=F Damp=T
 DIIS: error= 6.41D-03 at cycle   2 NSaved=   2.
 NSaved= 2 IEnMin= 2 EnMin= -270.382510982364     IErMin= 2 ErrMin= 6.41D-03
 ErrMax= 6.41D-03  0.00D+00 EMaxC= 1.00D-01 BMatC= 1.28D-02 BMatP= 1.43D-01
 IDIUse=3 WtCom= 9.36D-01 WtEn= 6.41D-02
 Coeff-Com:  0.121D+00 0.879D+00
 Coeff-En:   0.194D+00 0.806D+00
 Coeff:      0.126D+00 0.874D+00
 Gap=     0.253 Goal=   None    Shift=    0.000
 RMSDP=5.63D-03 MaxDP=1.90D-01 DE=-6.03D-02 OVMax= 1.34D-01

 Cycle   3  Pass 1  IDiag  1:
 RMSU=  3.02D-03    CP:  9.67D-01  3.97D-01
 E= -270.464453798588     Delta-E=       -0.081942816223 Rises=F Damp=F
 DIIS: error= 8.43D-03 at cycle   3 NSaved=   3.
 NSaved= 3 IEnMin= 3 EnMin= -270.464453798588     IErMin= 2 ErrMin= 6.41D-03
 ErrMax= 8.43D-03  0.00D+00 EMaxC= 1.00D-01 BMatC= 1.36D-02 BMatP= 1.28D-02
 IDIUse=3 WtCom= 9.16D-01 WtEn= 8.43D-02
 Coeff-Com:  0.130D-01 0.508D+00 0.479D+00
 Coeff-En:   0.000D+00 0.000D+00 0.100D+01
 Coeff:      0.119D-01 0.465D+00 0.523D+00
 Gap=     0.187 Goal=   None    Shift=    0.000
 RMSDP=1.89D-03 MaxDP=3.72D-02 DE=-8.19D-02 OVMax= 6.64D-02

 Cycle   4  Pass 1  IDiag  1:
 RMSU=  1.39D-03    CP:  9.71D-01  5.44D-01  8.17D-01
 E= -270.471217303037     Delta-E=       -0.006763504449 Rises=F Damp=F
 DIIS: error= 5.03D-03 at cycle   4 NSaved=   4.
 NSaved= 4 IEnMin= 4 EnMin= -270.471217303037     IErMin= 4 ErrMin= 5.03D-03
 ErrMax= 5.03D-03  0.00D+00 EMaxC= 1.00D-01 BMatC= 5.01D-03 BMatP= 1.28D-02
 IDIUse=3 WtCom= 9.50D-01 WtEn= 5.03D-02
 Coeff-Com: -0.130D-01 0.129D+00 0.380D+00 0.504D+00
 Coeff-En:   0.000D+00 0.000D+00 0.324D+00 0.676D+00
 Coeff:     -0.124D-01 0.123D+00 0.377D+00 0.513D+00
 Gap=     0.188 Goal=   None    Shift=    0.000
 RMSDP=1.02D-03 MaxDP=2.08D-02 DE=-6.76D-03 OVMax= 2.86D-02

 Cycle   5  Pass 1  IDiag  1:
 RMSU=  6.23D-04    CP:  9.67D-01  4.81D-01  8.79D-01  5.75D-01
 E= -270.475354646820     Delta-E=       -0.004137343783 Rises=F Damp=F
 DIIS: error= 9.25D-04 at cycle   5 NSaved=   5.
 NSaved= 5 IEnMin= 5 EnMin= -270.475354646820     IErMin= 5 ErrMin= 9.25D-04
 ErrMax= 9.25D-04  0.00D+00 EMaxC= 1.00D-01 BMatC= 2.05D-04 BMatP= 5.01D-03
 IDIUse=3 WtCom= 9.91D-01 WtEn= 9.25D-03
 Coeff-Com: -0.707D-02 0.329D-01 0.167D+00 0.283D+00 0.525D+00
 Coeff-En:   0.000D+00 0.000D+00 0.000D+00 0.000D+00 0.100D+01
 Coeff:     -0.700D-02 0.326D-01 0.165D+00 0.280D+00 0.529D+00
 Gap=     0.185 Goal=   None    Shift=    0.000
 RMSDP=2.53D-04 MaxDP=3.95D-03 DE=-4.14D-03 OVMax= 9.68D-03

 Cycle   6  Pass 1  IDiag  1:
 RMSU=  1.51D-04    CP:  9.67D-01  4.92D-01  8.80D-01  6.19D-01  7.24D-01
 E= -270.475550620263     Delta-E=       -0.000195973443 Rises=F Damp=F
 DIIS: error= 3.04D-04 at cycle   6 NSaved=   6.
 NSaved= 6 IEnMin= 6 EnMin= -270.475550620263     IErMin= 6 ErrMin= 3.04D-04
 ErrMax= 3.04D-04  0.00D+00 EMaxC= 1.00D-01 BMatC= 3.11D-05 BMatP= 2.05D-04
 IDIUse=3 WtCom= 9.97D-01 WtEn= 3.04D-03
 Coeff-Com: -0.296D-02 0.536D-02 0.582D-01 0.111D+00 0.327D+00 0.502D+00
 Coeff-En:   0.000D+00 0.000D+00 0.000D+00 0.000D+00 0.127D+00 0.873D+00
 Coeff:     -0.295D-02 0.534D-02 0.580D-01 0.110D+00 0.326D+00 0.503D+00
 Gap=     0.185 Goal=   None    Shift=    0.000
 RMSDP=7.84D-05 MaxDP=1.28D-03 DE=-1.96D-04 OVMax= 3.16D-03

 Cycle   7  Pass 1  IDiag  1:
 RMSU=  3.79D-05    CP:  9.67D-01  4.87D-01  8.85D-01  6.10D-01  6.97D-01
                    CP:  6.54D-01
 E= -270.475583268319     Delta-E=       -0.000032648056 Rises=F Damp=F
 DIIS: error= 6.63D-05 at cycle   7 NSaved=   7.
 NSaved= 7 IEnMin= 7 EnMin= -270.475583268319     IErMin= 7 ErrMin= 6.63D-05
 ErrMax= 6.63D-05  0.00D+00 EMaxC= 1.00D-01 BMatC= 8.64D-07 BMatP= 3.11D-05
 IDIUse=1 WtCom= 1.00D+00 WtEn= 0.00D+00
 Coeff-Com: -0.106D-02 0.109D-02 0.213D-01 0.415D-01 0.137D+00 0.248D+00
 Coeff-Com:  0.552D+00
 Coeff:     -0.106D-02 0.109D-02 0.213D-01 0.415D-01 0.137D+00 0.248D+00
 Coeff:      0.552D+00
 Gap=     0.185 Goal=   None    Shift=    0.000
 RMSDP=1.76D-05 MaxDP=3.68D-04 DE=-3.26D-05 OVMax= 7.14D-04

 Cycle   8  Pass 1  IDiag  1:
 RMSU=  1.26D-05    CP:  9.67D-01  4.87D-01  8.85D-01  6.10D-01  7.07D-01
                    CP:  6.75D-01  7.86D-01
 E= -270.475584004579     Delta-E=       -0.000000736260 Rises=F Damp=F
 DIIS: error= 3.41D-05 at cycle   8 NSaved=   8.
 NSaved= 8 IEnMin= 8 EnMin= -270.475584004579     IErMin= 8 ErrMin= 3.41D-05
 ErrMax= 3.41D-05  0.00D+00 EMaxC= 1.00D-01 BMatC= 2.18D-07 BMatP= 8.64D-07
 IDIUse=1 WtCom= 1.00D+00 WtEn= 0.00D+00
 Coeff-Com: -0.975D-04-0.322D-03 0.289D-02 0.604D-02 0.276D-01 0.671D-01
 Coeff-Com:  0.355D+00 0.542D+00
 Coeff:     -0.975D-04-0.322D-03 0.289D-02 0.604D-02 0.276D-01 0.671D-01
 Coeff:      0.355D+00 0.542D+00
 Gap=     0.185 Goal=   None    Shift=    0.000
 RMSDP=6.86D-06 MaxDP=1.24D-04 DE=-7.36D-07 OVMax= 2.65D-04

 Cycle   9  Pass 1  IDiag  1:
 RMSU=  3.91D-06    CP:  9.67D-01  4.86D-01  8.85D-01  6.11D-01  7.10D-01
                    CP:  6.72D-01  8.18D-01  6.05D-01
 E= -270.475584262019     Delta-E=       -0.000000257440 Rises=F Damp=F
 DIIS: error= 2.69D-06 at cycle   9 NSaved=   9.
 NSaved= 9 IEnMin= 9 EnMin= -270.475584262019     IErMin= 9 ErrMin= 2.69D-06
 ErrMax= 2.69D-06  0.00D+00 EMaxC= 1.00D-01 BMatC= 2.50D-09 BMatP= 2.18D-07
 IDIUse=1 WtCom= 1.00D+00 WtEn= 0.00D+00
 Coeff-Com:  0.411D-04-0.166D-03-0.316D-03-0.624D-03 0.134D-03 0.514D-02
 Coeff-Com:  0.653D-01 0.157D+00 0.773D+00
 Coeff:      0.411D-04-0.166D-03-0.316D-03-0.624D-03 0.134D-03 0.514D-02
 Coeff:      0.653D-01 0.157D+00 0.773D+00
 Gap=     0.185 Goal=   None    Shift=    0.000
 RMSDP=1.23D-06 MaxDP=2.33D-05 DE=-2.57D-07 OVMax= 2.49D-05

 Cycle  10  Pass 1  IDiag  1:
 RMSU=  6.35D-07    CP:  9.67D-01  4.86D-01  8.85D-01  6.11D-01  7.10D-01
                    CP:  6.75D-01  8.25D-01  6.51D-01  9.26D-01
 E= -270.475584264294     Delta-E=       -0.000000002275 Rises=F Damp=F
 DIIS: error= 1.23D-06 at cycle  10 NSaved=  10.
 NSaved=10 IEnMin=10 EnMin= -270.475584264294     IErMin=10 ErrMin= 1.23D-06
 ErrMax= 1.23D-06  0.00D+00 EMaxC= 1.00D-01 BMatC= 6.89D-10 BMatP= 2.50D-09
 IDIUse=1 WtCom= 1.00D+00 WtEn= 0.00D+00
 Coeff-Com:  0.264D-04-0.714D-04-0.298D-03-0.617D-03-0.130D-02-0.475D-03
 Coeff-Com:  0.167D-01 0.569D-01 0.437D+00 0.492D+00
 Coeff:      0.264D-04-0.714D-04-0.298D-03-0.617D-03-0.130D-02-0.475D-03
 Coeff:      0.167D-01 0.569D-01 0.437D+00 0.492D+00
 Gap=     0.185 Goal=   None    Shift=    0.000
 RMSDP=3.23D-07 MaxDP=7.19D-06 DE=-2.27D-09 OVMax= 1.53D-05

 Cycle  11  Pass 1  IDiag  1:
 RMSU=  2.24D-07    CP:  9.67D-01  4.86D-01  8.85D-01  6.11D-01  7.10D-01
                    CP:  6.75D-01  8.28D-01  6.52D-01  9.26D-01  7.81D-01
 E= -270.475584265018     Delta-E=       -0.000000000724 Rises=F Damp=F
 DIIS: error= 2.77D-07 at cycle  11 NSaved=  11.
 NSaved=11 IEnMin=11 EnMin= -270.475584265018     IErMin=11 ErrMin= 2.77D-07
 ErrMax= 2.77D-07  0.00D+00 EMaxC= 1.00D-01 BMatC= 3.13D-11 BMatP= 6.89D-10
 IDIUse=1 WtCom= 1.00D+00 WtEn= 0.00D+00
 Coeff-Com:  0.520D-05-0.732D-05-0.733D-04-0.170D-03-0.546D-03-0.728D-03
 Coeff-Com: -0.173D-02 0.132D-02 0.699D-01 0.201D+00 0.731D+00
 Coeff:      0.520D-05-0.732D-05-0.733D-04-0.170D-03-0.546D-03-0.728D-03
 Coeff:     -0.173D-02 0.132D-02 0.699D-01 0.201D+00 0.731D+00
 Gap=     0.185 Goal=   None    Shift=    0.000
 RMSDP=1.05D-07 MaxDP=1.59D-06 DE=-7.24D-10 OVMax= 2.11D-06

 Cycle  12  Pass 1  IDiag  1:
 RMSU=  5.18D-08    CP:  9.67D-01  4.86D-01  8.85D-01  6.11D-01  7.10D-01
                    CP:  6.75D-01  8.28D-01  6.53D-01  9.39D-01  8.08D-01
                    CP:  8.03D-01
 E= -270.475584265049     Delta-E=       -0.000000000031 Rises=F Damp=F
 DIIS: error= 7.02D-08 at cycle  12 NSaved=  12.
 NSaved=12 IEnMin=12 EnMin= -270.475584265049     IErMin=12 ErrMin= 7.02D-08
 ErrMax= 7.02D-08  0.00D+00 EMaxC= 1.00D-01 BMatC= 1.68D-12 BMatP= 3.13D-11
 IDIUse=1 WtCom= 1.00D+00 WtEn= 0.00D+00
 Coeff-Com:  0.932D-06-0.104D-06-0.140D-04-0.412D-04-0.155D-03-0.211D-03
 Coeff-Com: -0.120D-02-0.171D-02 0.105D-01 0.630D-01 0.276D+00 0.653D+00
 Coeff:      0.932D-06-0.104D-06-0.140D-04-0.412D-04-0.155D-03-0.211D-03
 Coeff:     -0.120D-02-0.171D-02 0.105D-01 0.630D-01 0.276D+00 0.653D+00
 Gap=     0.185 Goal=   None    Shift=    0.000
 RMSDP=2.08D-08 MaxDP=3.66D-07 DE=-3.13D-11 OVMax= 6.55D-07

 Cycle  13  Pass 1  IDiag  1:
 RMSU=  1.50D-08    CP:  9.67D-01  4.86D-01  8.85D-01  6.11D-01  7.10D-01
                    CP:  6.75D-01  8.28D-01  6.53D-01  9.39D-01  8.14D-01
                    CP:  8.26D-01  8.63D-01
 E= -270.475584265048     Delta-E=        0.000000000001 Rises=F Damp=F
 DIIS: error= 3.32D-08 at cycle  13 NSaved=  13.
 NSaved=13 IEnMin=12 EnMin= -270.475584265049     IErMin=13 ErrMin= 3.32D-08
 ErrMax= 3.32D-08  0.00D+00 EMaxC= 1.00D-01 BMatC= 5.36D-13 BMatP= 1.68D-12
 IDIUse=1 WtCom= 1.00D+00 WtEn= 0.00D+00
 Coeff-Com: -0.309D-06 0.119D-05 0.375D-05 0.219D-05-0.978D-05-0.186D-04
 Coeff-Com: -0.609D-03-0.167D-02-0.680D-02 0.443D-02 0.402D-01 0.384D+00
 Coeff-Com:  0.580D+00
 Coeff:     -0.309D-06 0.119D-05 0.375D-05 0.219D-05-0.978D-05-0.186D-04
 Coeff:     -0.609D-03-0.167D-02-0.680D-02 0.443D-02 0.402D-01 0.384D+00
 Coeff:      0.580D+00
 Gap=     0.185 Goal=   None    Shift=    0.000
 RMSDP=1.02D-08 MaxDP=1.51D-07 DE= 1.02D-12 OVMax= 2.11D-07

 Cycle  14  Pass 1  IDiag  1:
 RMSU=  5.08D-09    CP:  9.67D-01  4.86D-01  8.85D-01  6.11D-01  7.10D-01
                    CP:  6.75D-01  8.28D-01  6.53D-01  9.39D-01  8.23D-01
                    CP:  8.32D-01  9.30D-01  7.75D-01
 E= -270.475584265053     Delta-E=       -0.000000000005 Rises=F Damp=F
 DIIS: error= 3.65D-09 at cycle  14 NSaved=  14.
 NSaved=14 IEnMin=14 EnMin= -270.475584265053     IErMin=14 ErrMin= 3.65D-09
 ErrMax= 3.65D-09  0.00D+00 EMaxC= 1.00D-01 BMatC= 4.46D-15 BMatP= 5.36D-13
 IDIUse=1 WtCom= 1.00D+00 WtEn= 0.00D+00
 Coeff-Com: -0.423D-07 0.508D-07 0.118D-05 0.180D-05 0.500D-05 0.106D-04
 Coeff-Com: -0.214D-05-0.100D-03-0.978D-03-0.188D-02-0.976D-02 0.105D-01
 Coeff-Com:  0.556D-01 0.947D+00
 Coeff:     -0.423D-07 0.508D-07 0.118D-05 0.180D-05 0.500D-05 0.106D-04
 Coeff:     -0.214D-05-0.100D-03-0.978D-03-0.188D-02-0.976D-02 0.105D-01
 Coeff:      0.556D-01 0.947D+00
 Gap=     0.185 Goal=   None    Shift=    0.000
 RMSDP=1.60D-09 MaxDP=3.61D-08 DE=-5.00D-12 OVMax= 4.25D-08

 SCF Done:  E(RB3LYP) =  -270.475584265     A.U. after   14 cycles
            NFock= 14  Conv=0.16D-08     -V/T= 2.0099
 KE= 2.678208885654D+02 PE=-1.086011621166D+03 EE= 3.190360604319D+02
 Leave Link  502 at Wed Oct 16 02:42:42 2019, MaxMem=   280000000 cpu:             102.7 elap:               4.3
 (Enter /home/soft/g16/l801.exe)
 DoSCS=F DFT=T ScalE2(SS,OS)=  1.000000  1.000000
 Range of M.O.s used for correlation:     1   130
 NBasis=   130 NAE=    23 NBE=    23 NFC=     0 NFV=     0
 NROrb=    130 NOA=    23 NOB=    23 NVA=   107 NVB=   107

 **** Warning!!: The largest alpha MO coefficient is  0.42017301D+02

 Leave Link  801 at Wed Oct 16 02:42:42 2019, MaxMem=   280000000 cpu:               0.9 elap:               0.1
 (Enter /home/soft/g16/l1101.exe)
 Using compressed storage, NAtomX=    14.
 Will process     15 centers per pass.
 Leave Link 1101 at Wed Oct 16 02:42:42 2019, MaxMem=   280000000 cpu:               3.4 elap:               0.2
 (Enter /home/soft/g16/l1102.exe)
 Symmetrizing basis deriv contribution to polar:
 IMax=3 JMax=2 DiffMx= 0.00D+00
 Leave Link 1102 at Wed Oct 16 02:42:42 2019, MaxMem=   280000000 cpu:               1.5 elap:               0.1
 (Enter /home/soft/g16/l1110.exe)
 Forming Gx(P) for the SCF density, NAtomX=    14.
 Integral derivatives from FoFJK, PRISM(SPDF).
 Do as many integral derivatives as possible in FoFJK.
 G2DrvN: MDV=     279998884.
 G2DrvN: will do    15 centers at a time, making    1 passes.
 Calling FoFCou, ICntrl=  3107 FMM=F I1Cent=   0 AccDes= 0.00D+00.
 FoFJK:  IHMeth= 1 ICntrl=    3107 DoSepK=F KAlg= 0 I1Cent=           0 FoldK=F
 IRaf=         0 NMat=       1 IRICut=       1 DoRegI=T DoRafI=F ISym2E= 0 IDoP0=0 IntGTp=1.
 FoFCou: FMM=F IPFlag=           0 FMFlag=      100000 FMFlg1=           0
         NFxFlg=           0 DoJE=F BraDBF=F KetDBF=F FulRan=T
         wScrn=  0.000000 ICntrl=      3107 IOpCl=  0 I1Cent=           0 NGrid=           0
         NMat0=    1 NMatS0=      1 NMatT0=    0 NMatD0=    1 NMtDS0=    0 NMtDT0=    0
 Symmetry not used in FoFCou.
 End of G2Drv F.D. properties file   721 does not exist.
 End of G2Drv F.D. properties file   722 does not exist.
 End of G2Drv F.D. properties file   788 does not exist.
 Leave Link 1110 at Wed Oct 16 02:42:48 2019, MaxMem=   280000000 cpu:             134.6 elap:               5.6
 (Enter /home/soft/g16/l1002.exe)
 Minotr:  Closed shell wavefunction.
          IDoAtm=11111111111111
          Direct CPHF calculation.
          Differentiating once with respect to nuclear coordinates.
          Requested convergence is 1.0D-08 RMS, and 1.0D-07 maximum.
          Secondary convergence is 1.0D-12 RMS, and 1.0D-12 maximum.
          NewPWx=T KeepS1=F KeepF1=F KeepIn=T MapXYZ=F SortEE=F KeepMc=T.
         4236 words used for storage of precomputed grid.
 Keep R1 ints in memory in canonical form, NReq=59093962.
 FoFCou: FMM=F IPFlag=           0 FMFlag=           0 FMFlg1=           0
         NFxFlg=           0 DoJE=F BraDBF=F KetDBF=F FulRan=T
         wScrn=  0.000000 ICntrl=       600 IOpCl=  0 I1Cent=           0 NGrid=           0
         NMat0=    1 NMatS0=   8515 NMatT0=    0 NMatD0=    1 NMtDS0=    0 NMtDT0=    0
 Symmetry not used in FoFCou.
 Two-electron integral symmetry not used.
          MDV=     280000000 using IRadAn=       1.
          Solving linear equations simultaneously, MaxMat=       0.
          There are    45 degrees of freedom in the 1st order CPHF.  IDoFFX=6 NUNeed=     0.
     39 vectors produced by pass  0 Test12= 5.47D-15 2.22D-09 XBig12= 9.96D-02 1.14D-01.
 AX will form    39 AO Fock derivatives at one time.
     39 vectors produced by pass  1 Test12= 5.47D-15 2.22D-09 XBig12= 1.11D-02 3.03D-02.
     39 vectors produced by pass  2 Test12= 5.47D-15 2.22D-09 XBig12= 9.74D-05 1.58D-03.
     39 vectors produced by pass  3 Test12= 5.47D-15 2.22D-09 XBig12= 3.05D-07 8.39D-05.
     39 vectors produced by pass  4 Test12= 5.47D-15 2.22D-09 XBig12= 3.79D-10 2.73D-06.
     30 vectors produced by pass  5 Test12= 5.47D-15 2.22D-09 XBig12= 3.28D-13 8.04D-08.
      2 vectors produced by pass  6 Test12= 5.47D-15 2.22D-09 XBig12= 2.90D-16 3.09D-09.
 InvSVY:  IOpt=1 It=  1 EMax= 2.55D-15
 Solved reduced A of dimension   227 with    39 vectors.
 End of Minotr F.D. properties file   721 does not exist.
 End of Minotr F.D. properties file   722 does not exist.
 End of Minotr F.D. properties file   788 does not exist.
 Leave Link 1002 at Wed Oct 16 02:42:55 2019, MaxMem=   280000000 cpu:             171.8 elap:               7.2
 (Enter /home/soft/g16/l601.exe)
 Copying SCF densities to generalized density rwf, IOpCl= 0 IROHF=0.

 **********************************************************************

            Population analysis using the SCF density.

 **********************************************************************

 Alpha  occ. eigenvalues --  -19.14947 -10.24147 -10.23346 -10.22323 -10.19802
 Alpha  occ. eigenvalues --  -10.19756  -1.01406  -0.80912  -0.74274  -0.68539
 Alpha  occ. eigenvalues --   -0.57832  -0.56497  -0.49658  -0.47102  -0.45322
 Alpha  occ. eigenvalues --   -0.44226  -0.40616  -0.39648  -0.38129  -0.37720
 Alpha  occ. eigenvalues --   -0.28312  -0.26515  -0.23649
 Alpha virt. eigenvalues --   -0.05162  -0.00955   0.01116   0.01960   0.02451
 Alpha virt. eigenvalues --    0.03539   0.04977   0.05962   0.06459   0.06841
 Alpha virt. eigenvalues --    0.07317   0.07557   0.09998   0.10557   0.11042
 Alpha virt. eigenvalues --    0.11556   0.12022   0.12706   0.14673   0.15836
 Alpha virt. eigenvalues --    0.17129   0.18111   0.18893   0.21493   0.22960
 Alpha virt. eigenvalues --    0.24527   0.26674   0.27002   0.28524   0.29508
 Alpha virt. eigenvalues --    0.30243   0.30803   0.32478   0.34771   0.36116
 Alpha virt. eigenvalues --    0.37904   0.38717   0.39343   0.44684   0.59536
 Alpha virt. eigenvalues --    0.60257   0.64472   0.66439   0.68207   0.70390
 Alpha virt. eigenvalues --    0.73098   0.74221   0.76632   0.79055   0.81901
 Alpha virt. eigenvalues --    0.83439   0.90207   0.91637   0.93714   0.94687
 Alpha virt. eigenvalues --    0.97056   0.98563   1.02179   1.03554   1.06821
 Alpha virt. eigenvalues --    1.08598   1.11168   1.14393   1.20225   1.22578
 Alpha virt. eigenvalues --    1.25790   1.30438   1.34126   1.38342   1.42080
 Alpha virt. eigenvalues --    1.49246   1.53559   1.56842   1.57927   1.65208
 Alpha virt. eigenvalues --    1.70860   1.73225   1.78016   1.80124   1.86991
 Alpha virt. eigenvalues --    1.92428   2.00816   2.01738   2.03676   2.07505
 Alpha virt. eigenvalues --    2.09040   2.20145   2.23718   2.26018   2.27253
 Alpha virt. eigenvalues --    2.31335   2.35757   2.42182   2.49770   2.60134
 Alpha virt. eigenvalues --    2.61922   2.68403   2.78523   2.86698   2.90491
 Alpha virt. eigenvalues --    3.02849   4.22572   4.25326   4.29946   4.33382
 Alpha virt. eigenvalues --    4.45362   4.47681
          Condensed to atoms (all electrons):
               1          2          3          4          5          6
     1  C    5.804171   0.393426   0.365536   0.201930  -0.099951  -0.074391
     2  H    0.393426   0.482642  -0.030544  -0.051467   0.000777   0.003739
     3  H    0.365536  -0.030544   0.504469  -0.033856   0.006986   0.009673
     4  C    0.201930  -0.051467  -0.033856   5.154754   0.337276  -0.157466
     5  O   -0.099951   0.000777   0.006986   0.337276   8.263423   0.110249
     6  C   -0.074391   0.003739   0.009673  -0.157466   0.110249   5.566302
     7  H    0.000492  -0.000017   0.000015  -0.002175  -0.033719   0.423690
     8  H    0.002674  -0.000033   0.000002  -0.000063  -0.023465   0.375284
     9  C   -0.164564   0.005102   0.007224   0.118249   0.014040   0.361141
    10  H    0.001708   0.000038  -0.000005  -0.000557  -0.000630  -0.029600
    11  C    0.182308  -0.026030  -0.026317  -0.053797  -0.126640  -0.122777
    12  H   -0.030586   0.000701   0.000152  -0.003854   0.001453   0.013492
    13  H   -0.003960  -0.001086   0.000089  -0.011355   0.001267   0.017231
    14  H   -0.136283   0.004061   0.000542   0.449070  -0.079900   0.001267
               7          8          9         10         11         12
     1  C    0.000492   0.002674  -0.164564   0.001708   0.182308  -0.030586
     2  H   -0.000017  -0.000033   0.005102   0.000038  -0.026030   0.000701
     3  H    0.000015   0.000002   0.007224  -0.000005  -0.026317   0.000152
     4  C   -0.002175  -0.000063   0.118249  -0.000557  -0.053797  -0.003854
     5  O   -0.033719  -0.023465   0.014040  -0.000630  -0.126640   0.001453
     6  C    0.423690   0.375284   0.361141  -0.029600  -0.122777   0.013492
     7  H    0.503747  -0.030473  -0.086865   0.004243  -0.002303   0.003310
     8  H   -0.030473   0.483396  -0.035188  -0.005124   0.014311   0.000034
     9  C   -0.086865  -0.035188   5.265030   0.347931   0.149292  -0.072263
    10  H    0.004243  -0.005124   0.347931   0.530681  -0.031521   0.004375
    11  C   -0.002303   0.014311   0.149292  -0.031521   5.779114   0.395651
    12  H    0.003310   0.000034  -0.072263   0.004375   0.395651   0.501768
    13  H    0.000003  -0.000158  -0.045701  -0.004973   0.377785  -0.031924
    14  H    0.001310  -0.000103   0.018351  -0.000014  -0.028718   0.000259
              13         14
     1  C   -0.003960  -0.136283
     2  H   -0.001086   0.004061
     3  H    0.000089   0.000542
     4  C   -0.011355   0.449070
     5  O    0.001267  -0.079900
     6  C    0.017231   0.001267
     7  H    0.000003   0.001310
     8  H   -0.000158  -0.000103
     9  C   -0.045701   0.018351
    10  H   -0.004973  -0.000014
    11  C    0.377785  -0.028718
    12  H   -0.031924   0.000259
    13  H    0.489731   0.000001
    14  H    0.000001   0.616119
 Mulliken charges:
               1
     1  C   -0.442510
     2  H    0.218691
     3  H    0.196034
     4  C    0.053310
     5  O   -0.371166
     6  C   -0.497833
     7  H    0.218739
     8  H    0.218908
     9  C    0.118219
    10  H    0.183448
    11  C   -0.480359
    12  H    0.217431
    13  H    0.213049
    14  H    0.154037
 Sum of Mulliken charges =  -0.00000
 Mulliken charges with hydrogens summed into heavy atoms:
               1
     1  C   -0.027784
     4  C    0.207348
     5  O   -0.371166
     6  C   -0.060186
     9  C    0.301668
    11  C   -0.049879
 APT charges:
               1
     1  C   -0.911510
     2  H    0.388163
     3  H    0.542579
     4  C   -0.244839
     5  O   -0.399451
     6  C   -1.035860
     7  H    0.412013
     8  H    0.572427
     9  C   -0.293193
    10  H    0.466933
    11  C   -0.863452
    12  H    0.396853
    13  H    0.549642
    14  H    0.419695
 Sum of APT charges =  -0.00000
 APT charges with hydrogens summed into heavy atoms:
               1
     1  C    0.019231
     4  C    0.174856
     5  O   -0.399451
     6  C   -0.051420
     9  C    0.173740
    11  C    0.083044
 Electronic spatial extent (au):  <R**2>=            557.1943
 Charge=             -0.0000 electrons
 Dipole moment (field-independent basis, Debye):
    X=              0.7701    Y=              2.0461    Z=              0.8802  Tot=              2.3567
 Quadrupole moment (field-independent basis, Debye-Ang):
   XX=            -38.7710   YY=            -38.3410   ZZ=            -35.6699
   XY=             -3.6847   XZ=             -2.0639   YZ=             -1.7299
 Traceless Quadrupole moment (field-independent basis, Debye-Ang):
   XX=             -1.1770   YY=             -0.7470   ZZ=              1.9241
   XY=             -3.6847   XZ=             -2.0639   YZ=             -1.7299
 Octapole moment (field-independent basis, Debye-Ang**2):
  XXX=             -5.8058  YYY=              4.1760  ZZZ=              0.0598  XYY=              3.8218
  XXY=             -4.4875  XXZ=             -0.7340  XZZ=              0.8880  YZZ=             -0.6934
  YYZ=              0.2167  XYZ=              0.4530
 Hexadecapole moment (field-independent basis, Debye-Ang**3):
 XXXX=           -414.8242 YYYY=           -293.2702 ZZZZ=            -89.5099 XXXY=            -11.9286
 XXXZ=            -12.1368 YYYX=             -9.4355 YYYZ=             -1.4469 ZZZX=             -1.8295
 ZZZY=             -2.3800 XXYY=           -109.4084 XXZZ=            -77.9058 YYZZ=            -63.7577
 XXYZ=             -0.5148 YYXZ=             -3.9125 ZZXY=             -0.6564
 N-N= 2.286790879032D+02 E-N=-1.086011621306D+03  KE= 2.678208885654D+02
  Exact polarizability:   0.000   0.000   0.000   0.000   0.000   0.000
 Approx polarizability: 143.708  -6.980 128.790  -0.018  -0.012  80.100
 No NMR shielding tensors so no spin-rotation constants.
 Leave Link  601 at Wed Oct 16 02:42:56 2019, MaxMem=   280000000 cpu:               4.2 elap:               0.2
 (Enter /home/soft/g16/l701.exe)
 ... and contract with generalized density number  0.
 Compute integral second derivatives.
 Leave Link  701 at Wed Oct 16 02:42:56 2019, MaxMem=   280000000 cpu:               5.3 elap:               0.3
 (Enter /home/soft/g16/l702.exe)
 L702 exits ... SP integral derivatives will be done elsewhere.
 Leave Link  702 at Wed Oct 16 02:42:56 2019, MaxMem=   280000000 cpu:               0.9 elap:               0.1
 (Enter /home/soft/g16/l703.exe)
 Integral derivatives from FoFJK, PRISM(SPDF).
 Compute integral second derivatives, UseDBF=F ICtDFT=           0.
 Calling FoFJK, ICntrl=    100147 FMM=F ISym2X=0 I1Cent= 0 IOpClX= 0 NMat=1 NMatS=1 NMatT=0.
 FoFJK:  IHMeth= 1 ICntrl=  100147 DoSepK=F KAlg= 0 I1Cent=           0 FoldK=F
 IRaf=         0 NMat=       1 IRICut=       1 DoRegI=T DoRafI=F ISym2E= 0 IDoP0=0 IntGTp=1.
 FoFCou: FMM=F IPFlag=           0 FMFlag=      100000 FMFlg1=         800
         NFxFlg=           0 DoJE=F BraDBF=F KetDBF=F FulRan=T
         wScrn=  0.000000 ICntrl=    100147 IOpCl=  0 I1Cent=           0 NGrid=           0
         NMat0=    1 NMatS0=      1 NMatT0=    0 NMatD0=    1 NMtDS0=    0 NMtDT0=    0
 Symmetry not used in FoFCou.
 Leave Link  703 at Wed Oct 16 02:43:04 2019, MaxMem=   280000000 cpu:             184.7 elap:               7.7
 (Enter /home/soft/g16/l716.exe)
 Dipole        = 3.02978879D-01 8.04989849D-01 3.46286463D-01
 Polarizability= 0.00000000D+00 0.00000000D+00 0.00000000D+00
                 0.00000000D+00 0.00000000D+00 0.00000000D+00
 -------------------------------------------------------------------
 Center     Atomic                   Forces (Hartrees/Bohr)
 Number     Number              X              Y              Z
 -------------------------------------------------------------------
      1        6          -0.000000063   -0.000000675    0.000001140
      2        1          -0.000000046    0.000000327   -0.000000397
      3        1           0.000000015    0.000000302    0.000000355
      4        6           0.000000265    0.000000556   -0.000000757
      5        8          -0.000000262    0.000000437    0.000000260
      6        6          -0.000000044   -0.000000664    0.000000030
      7        1           0.000000071    0.000000022   -0.000000458
      8        1          -0.000000319   -0.000000008   -0.000000240
      9        6           0.000000122   -0.000000242   -0.000000581
     10        1          -0.000000198   -0.000000128    0.000000023
     11        6           0.000000016    0.000000308    0.000000310
     12        1           0.000000319   -0.000000228   -0.000000213
     13        1           0.000000143    0.000000044   -0.000000118
     14        1          -0.000000019   -0.000000052    0.000000645
 -------------------------------------------------------------------
 Cartesian Forces:  Max     0.000001140 RMS     0.000000367
 Z-matrix is all fixed cartesians, so copy forces.
 Leave Link  716 at Wed Oct 16 02:43:04 2019, MaxMem=   280000000 cpu:               1.1 elap:               0.1
 (Enter /home/soft/g16/l123.exe)
 IRC-IRC-IRC-IRC-IRC-IRC-IRC-IRC-IRC-IRC-IRC-IRC-IRC-IRC-IRC-IRC-IRC-IRC
          ******** Start new reaction path calculation ********
 Current Structure is TS -> form Hessian eigenvectors.
                            Diagonalizing Hessian.
 Supplied step size of   0.1000 bohr.
    Integration on MW PES will use step size of   0.2955 sqrt(amu)*bohr.
 Point Number:   0          Path Number:   1
 Calculating another point on the path.
 Point Number  1 in FORWARD path direction.
 Using LQA Reaction Path Following.
 IRC-IRC-IRC-IRC-IRC-IRC-IRC-IRC-IRC-IRC-IRC-IRC-IRC-IRC-IRC-IRC-IRC-IRC
 Leave Link  123 at Wed Oct 16 02:43:04 2019, MaxMem=   280000000 cpu:               2.7 elap:               0.1
 (Enter /home/soft/g16/l202.exe)
                          Input orientation:                          
 ---------------------------------------------------------------------
 Center     Atomic      Atomic             Coordinates (Angstroms)
 Number     Number       Type             X           Y           Z
 ---------------------------------------------------------------------
      1          6           0       -1.485656    0.831638   -0.284898
      2          1           0       -1.217554    1.013350   -1.319869
      3          1           0       -2.150937    1.549336    0.190247
      4          6           0       -1.296580   -0.409822    0.279140
      5          8           0       -0.514175   -1.311895   -0.232930
      6          6           0        1.277899   -0.883320    0.186551
      7          1           0        1.183394   -1.049657    1.256189
      8          1           0        1.739492   -1.700579   -0.357454
      9          6           0        1.389572    0.437034   -0.299418
     10          1           0        1.700950    0.574982   -1.333277
     11          6           0        0.736020    1.465431    0.341481
     12          1           0        0.493020    1.401336    1.397752
     13          1           0        0.692113    2.462746   -0.087970
     14          1           0       -1.677337   -0.588070    1.297648
 ---------------------------------------------------------------------
                    Distance matrix (angstroms):
                    1          2          3          4          5
     1  C    0.000000
     2  H    1.084464   0.000000
     3  H    1.087866   1.854437   0.000000
     4  C    1.376630   2.142077   2.139188   0.000000
     5  O    2.353977   2.661380   3.323358   1.299272   0.000000
     6  C    3.286423   3.477635   4.204134   2.619296   1.889753
     7  H    3.610823   4.081253   4.359903   2.741219   2.273320
     8  H    4.101093   4.127442   5.098761   3.359916   2.290326
     9  C    2.902216   2.858421   3.743286   2.875292   2.586006
    10  H    3.364435   2.951273   4.255294   3.543291   3.110923
    11  C    2.393719   2.604019   2.892133   2.766211   3.099431
    12  H    2.659140   3.234512   2.910409   2.781053   3.321926
    13  H    2.727997   2.695395   2.999109   3.513020   3.965357
    14  H    2.134658   3.102796   2.453393   1.101865   2.054151
                    6          7          8          9         10
     6  C    0.000000
     7  H    1.086611   0.000000
     8  H    1.084861   1.826688   0.000000
     9  C    1.411373   2.161636   2.166842   0.000000
    10  H    2.148370   3.100427   2.476266   1.088508   0.000000
    11  C    2.415423   2.713393   3.393978   1.376765   2.128098
    12  H    2.702351   2.550299   3.775755   2.148039   3.098464
    13  H    3.408030   3.792768   4.301500   2.152828   2.476327
    14  H    3.170982   2.898027   3.956230   3.606576   4.437035
                   11         12         13         14
    11  C    0.000000
    12  H    1.085756   0.000000
    13  H    1.086735   1.836735   0.000000
    14  H    3.309897   2.945880   4.103865   0.000000
 Symmetry turned off by external request.
 Stoichiometry    C5H8O
 Framework group  C1[X(C5H8O)]
 Deg. of freedom    36
 Full point group                 C1      NOp   1
 Rotational constants (GHZ):           4.7977805           3.8092801           2.4200125
 Leave Link  202 at Wed Oct 16 02:43:04 2019, MaxMem=   280000000 cpu:               0.5 elap:               0.0
 (Enter /home/soft/g16/l301.exe)
 Standard basis: 6-31+G(d) (6D, 7F)
 Ernie: Thresh=  0.10000D-02 Tol=  0.10000D-05 Strict=F.
   130 basis functions,   224 primitive gaussians,   130 cartesian basis functions
    23 alpha electrons       23 beta electrons
       nuclear repulsion energy       228.8278672473 Hartrees.
 IExCor=  402 DFT=T Ex+Corr=B3LYP ExCW=0 ScaHFX=  0.200000
 ScaDFX=  0.800000  0.720000  1.000000  0.810000 ScalE2=  1.000000  1.000000
 IRadAn=      5 IRanWt=     -1 IRanGd=            0 ICorTp=0 IEmpDi=  4
 NAtoms=   14 NActive=   14 NUniq=   14 SFac= 1.00D+00 NAtFMM=   60 NAOKFM=F Big=F
 Integral buffers will be    131072 words long.
 Raffenetti 2 integral format.
 Two-electron integral symmetry is turned off.
 Leave Link  301 at Wed Oct 16 02:43:04 2019, MaxMem=   280000000 cpu:               1.5 elap:               0.1
 (Enter /home/soft/g16/l302.exe)
 NPDir=0 NMtPBC=     1 NCelOv=     1 NCel=       1 NClECP=     1 NCelD=      1
         NCelK=      1 NCelE2=     1 NClLst=     1 CellRange=     0.0.
 One-electron integrals computed using PRISM.
 NBasis=   130 RedAO= T EigKep=  6.13D-05  NBF=   130
 NBsUse=   130 1.00D-06 EigRej= -1.00D+00 NBFU=   130
 Precomputing XC quadrature grid using
 IXCGrd= 4 IRadAn=           5 IRanWt=          -1 IRanGd=           0 AccXCQ= 0.00D+00.
 Generated NRdTot=       0 NPtTot=           0 NUsed=           0 NTot=          32
 NSgBfM=   130   130   130   130   130 MxSgAt=    14 MxSgA2=    14.
 Leave Link  302 at Wed Oct 16 02:43:04 2019, MaxMem=   280000000 cpu:               3.7 elap:               0.2
 (Enter /home/soft/g16/l303.exe)
 DipDrv:  MaxL=1.
 Leave Link  303 at Wed Oct 16 02:43:04 2019, MaxMem=   280000000 cpu:               1.1 elap:               0.1
 (Enter /home/soft/g16/l401.exe)
 Initial guess from the checkpoint file:  "ircb4.chk"
 B after Tr=     0.015499    0.074523    0.021238
         Rot=    1.000000   -0.000056    0.000033    0.000027 Ang=  -0.01 deg.
 Guess basis will be translated and rotated to current coordinates.
 JPrj=2 DoOrth=T DoCkMO=T.
 Generating alternative initial guess.
 ExpMin= 4.38D-02 ExpMax= 5.48D+03 ExpMxC= 8.25D+02 IAcc=2 IRadAn=         4 AccDes= 0.00D+00
 Harris functional with IExCor=  402 and IRadAn=       4 diagonalized for initial guess.
 HarFok:  IExCor=  402 AccDes= 0.00D+00 IRadAn=         4 IDoV= 1 UseB2=F ITyADJ=14
 ICtDFT=  3500011 ScaDFX=  1.000000  1.000000  1.000000  1.000000
 FoFCou: FMM=F IPFlag=           0 FMFlag=      100000 FMFlg1=           0
         NFxFlg=           0 DoJE=T BraDBF=F KetDBF=T FulRan=T
         wScrn=  0.000000 ICntrl=       500 IOpCl=  0 I1Cent=   200000004 NGrid=           0
         NMat0=    1 NMatS0=      1 NMatT0=    0 NMatD0=    1 NMtDS0=    0 NMtDT0=    0
 Symmetry not used in FoFCou.
 Harris En= -270.505682325023    
 Leave Link  401 at Wed Oct 16 02:43:05 2019, MaxMem=   280000000 cpu:              11.1 elap:               0.5
 (Enter /home/soft/g16/l502.exe)
 Two-electron integral symmetry not used.
 Closed shell SCF:
 Using DIIS extrapolation, IDIIS=  1040.
 NGot=   280000000 LenX=   279961852 LenY=   279944511
 Requested convergence on RMS density matrix=1.00D-08 within 128 cycles.
 Requested convergence on MAX density matrix=1.00D-06.
 Requested convergence on             energy=1.00D-06.
 No special actions if energy rises.
 Fock matrices will be formed incrementally for  20 cycles.

 Cycle   1  Pass 1  IDiag  1:
 FoFJK:  IHMeth= 1 ICntrl=       0 DoSepK=F KAlg= 0 I1Cent=           0 FoldK=F
 IRaf= 990000000 NMat=       1 IRICut=       1 DoRegI=T DoRafI=F ISym2E= 0 IDoP0=0 IntGTp=1.
 FoFCou: FMM=F IPFlag=           0 FMFlag=      100000 FMFlg1=           0
         NFxFlg=           0 DoJE=F BraDBF=F KetDBF=F FulRan=T
         wScrn=  0.000000 ICntrl=         0 IOpCl=  0 I1Cent=           0 NGrid=           0
         NMat0=    1 NMatS0=      1 NMatT0=    0 NMatD0=    1 NMtDS0=    0 NMtDT0=    0
 Symmetry not used in FoFCou.
 E= -270.474518676734    
 DIIS: error= 1.43D-03 at cycle   1 NSaved=   1.
 NSaved= 1 IEnMin= 1 EnMin= -270.474518676734     IErMin= 1 ErrMin= 1.43D-03
 ErrMax= 1.43D-03  0.00D+00 EMaxC= 1.00D-01 BMatC= 4.64D-04 BMatP= 4.64D-04
 IDIUse=3 WtCom= 9.86D-01 WtEn= 1.43D-02
 Coeff-Com:  0.100D+01
 Coeff-En:   0.100D+01
 Coeff:      0.100D+01
 Gap=     0.610 Goal=   None    Shift=    0.000
 GapD=    0.610 DampG=2.000 DampE=1.000 DampFc=2.0000 IDamp=-1.
 RMSDP=5.99D-04 MaxDP=8.07D-03              OVMax= 2.81D-02

 Cycle   2  Pass 1  IDiag  1:
 RMSU=  5.98D-04    CP:  9.99D-01
 E= -270.475820003349     Delta-E=       -0.001301326615 Rises=F Damp=F
 DIIS: error= 7.42D-04 at cycle   2 NSaved=   2.
 NSaved= 2 IEnMin= 2 EnMin= -270.475820003349     IErMin= 2 ErrMin= 7.42D-04
 ErrMax= 7.42D-04  0.00D+00 EMaxC= 1.00D-01 BMatC= 7.44D-05 BMatP= 4.64D-04
 IDIUse=3 WtCom= 9.93D-01 WtEn= 7.42D-03
 Coeff-Com:  0.998D-01 0.900D+00
 Coeff-En:   0.000D+00 0.100D+01
 Coeff:      0.990D-01 0.901D+00
 Gap=     0.187 Goal=   None    Shift=    0.000
 RMSDP=2.57D-04 MaxDP=4.21D-03 DE=-1.30D-03 OVMax= 8.17D-03

 Cycle   3  Pass 1  IDiag  1:
 RMSU=  2.49D-04    CP:  9.99D-01  1.10D+00
 E= -270.475747782357     Delta-E=        0.000072220993 Rises=F Damp=F
 DIIS: error= 7.80D-04 at cycle   3 NSaved=   3.
 NSaved= 3 IEnMin= 2 EnMin= -270.475820003349     IErMin= 2 ErrMin= 7.42D-04
 ErrMax= 7.80D-04  0.00D+00 EMaxC= 1.00D-01 BMatC= 1.53D-04 BMatP= 7.44D-05
 IDIUse=3 WtCom= 2.64D-01 WtEn= 7.36D-01
 Coeff-Com: -0.483D-01 0.623D+00 0.426D+00
 Coeff-En:   0.000D+00 0.624D+00 0.376D+00
 Coeff:     -0.127D-01 0.624D+00 0.389D+00
 Gap=     0.188 Goal=   None    Shift=    0.000
 RMSDP=1.45D-04 MaxDP=2.88D-03 DE= 7.22D-05 OVMax= 7.76D-03

 Cycle   4  Pass 1  IDiag  1:
 RMSU=  5.56D-05    CP:  9.99D-01  1.14D+00  4.77D-01
 E= -270.475926522432     Delta-E=       -0.000178740075 Rises=F Damp=F
 DIIS: error= 8.75D-05 at cycle   4 NSaved=   4.
 NSaved= 4 IEnMin= 4 EnMin= -270.475926522432     IErMin= 4 ErrMin= 8.75D-05
 ErrMax= 8.75D-05  0.00D+00 EMaxC= 1.00D-01 BMatC= 9.55D-07 BMatP= 7.44D-05
 IDIUse=1 WtCom= 1.00D+00 WtEn= 0.00D+00
 Coeff-Com: -0.182D-01 0.982D-01 0.105D+00 0.815D+00
 Coeff:     -0.182D-01 0.982D-01 0.105D+00 0.815D+00
 Gap=     0.188 Goal=   None    Shift=    0.000
 RMSDP=2.59D-05 MaxDP=5.16D-04 DE=-1.79D-04 OVMax= 1.05D-03

 Cycle   5  Pass 1  IDiag  1:
 RMSU=  1.80D-05    CP:  9.99D-01  1.16D+00  5.26D-01  1.06D+00
 E= -270.475927933851     Delta-E=       -0.000001411419 Rises=F Damp=F
 DIIS: error= 3.20D-05 at cycle   5 NSaved=   5.
 NSaved= 5 IEnMin= 5 EnMin= -270.475927933851     IErMin= 5 ErrMin= 3.20D-05
 ErrMax= 3.20D-05  0.00D+00 EMaxC= 1.00D-01 BMatC= 4.54D-07 BMatP= 9.55D-07
 IDIUse=1 WtCom= 1.00D+00 WtEn= 0.00D+00
 Coeff-Com: -0.665D-02-0.364D-02 0.271D-01 0.453D+00 0.531D+00
 Coeff:     -0.665D-02-0.364D-02 0.271D-01 0.453D+00 0.531D+00
 Gap=     0.188 Goal=   None    Shift=    0.000
 RMSDP=8.41D-06 MaxDP=1.13D-04 DE=-1.41D-06 OVMax= 2.38D-04

 Cycle   6  Pass 1  IDiag  1:
 RMSU=  6.08D-06    CP:  9.99D-01  1.17D+00  5.36D-01  1.12D+00  8.58D-01
 E= -270.475928367802     Delta-E=       -0.000000433951 Rises=F Damp=F
 DIIS: error= 1.08D-05 at cycle   6 NSaved=   6.
 NSaved= 6 IEnMin= 6 EnMin= -270.475928367802     IErMin= 6 ErrMin= 1.08D-05
 ErrMax= 1.08D-05  0.00D+00 EMaxC= 1.00D-01 BMatC= 4.11D-08 BMatP= 4.54D-07
 IDIUse=1 WtCom= 1.00D+00 WtEn= 0.00D+00
 Coeff-Com:  0.623D-03-0.221D-01-0.348D-02 0.609D-01 0.242D+00 0.722D+00
 Coeff:      0.623D-03-0.221D-01-0.348D-02 0.609D-01 0.242D+00 0.722D+00
 Gap=     0.188 Goal=   None    Shift=    0.000
 RMSDP=3.60D-06 MaxDP=6.45D-05 DE=-4.34D-07 OVMax= 1.53D-04

 Cycle   7  Pass 1  IDiag  1:
 RMSU=  2.85D-06    CP:  9.99D-01  1.17D+00  5.41D-01  1.14D+00  8.93D-01
                    CP:  7.89D-01
 E= -270.475928395583     Delta-E=       -0.000000027781 Rises=F Damp=F
 DIIS: error= 8.43D-06 at cycle   7 NSaved=   7.
 NSaved= 7 IEnMin= 7 EnMin= -270.475928395583     IErMin= 7 ErrMin= 8.43D-06
 ErrMax= 8.43D-06  0.00D+00 EMaxC= 1.00D-01 BMatC= 2.02D-08 BMatP= 4.11D-08
 IDIUse=1 WtCom= 1.00D+00 WtEn= 0.00D+00
 Coeff-Com:  0.114D-02-0.171D-01-0.529D-02 0.300D-02 0.124D+00 0.520D+00
 Coeff-Com:  0.374D+00
 Coeff:      0.114D-02-0.171D-01-0.529D-02 0.300D-02 0.124D+00 0.520D+00
 Coeff:      0.374D+00
 Gap=     0.188 Goal=   None    Shift=    0.000
 RMSDP=1.97D-06 MaxDP=3.58D-05 DE=-2.78D-08 OVMax= 6.09D-05

 Cycle   8  Pass 1  IDiag  1:
 RMSU=  8.26D-07    CP:  9.99D-01  1.17D+00  5.42D-01  1.14D+00  9.12D-01
                    CP:  8.62D-01  5.55D-01
 E= -270.475928414454     Delta-E=       -0.000000018871 Rises=F Damp=F
 DIIS: error= 1.32D-06 at cycle   8 NSaved=   8.
 NSaved= 8 IEnMin= 8 EnMin= -270.475928414454     IErMin= 8 ErrMin= 1.32D-06
 ErrMax= 1.32D-06  0.00D+00 EMaxC= 1.00D-01 BMatC= 4.28D-10 BMatP= 2.02D-08
 IDIUse=1 WtCom= 1.00D+00 WtEn= 0.00D+00
 Coeff-Com:  0.432D-03-0.508D-02-0.142D-02-0.598D-02 0.283D-01 0.162D+00
 Coeff-Com:  0.165D+00 0.656D+00
 Coeff:      0.432D-03-0.508D-02-0.142D-02-0.598D-02 0.283D-01 0.162D+00
 Coeff:      0.165D+00 0.656D+00
 Gap=     0.188 Goal=   None    Shift=    0.000
 RMSDP=4.01D-07 MaxDP=1.02D-05 DE=-1.89D-08 OVMax= 1.09D-05

 Cycle   9  Pass 1  IDiag  1:
 RMSU=  2.07D-07    CP:  9.99D-01  1.17D+00  5.43D-01  1.14D+00  9.14D-01
                    CP:  8.61D-01  6.21D-01  8.18D-01
 E= -270.475928414806     Delta-E=       -0.000000000352 Rises=F Damp=F
 DIIS: error= 6.14D-07 at cycle   9 NSaved=   9.
 NSaved= 9 IEnMin= 9 EnMin= -270.475928414806     IErMin= 9 ErrMin= 6.14D-07
 ErrMax= 6.14D-07  0.00D+00 EMaxC= 1.00D-01 BMatC= 9.22D-11 BMatP= 4.28D-10
 IDIUse=1 WtCom= 1.00D+00 WtEn= 0.00D+00
 Coeff-Com:  0.122D-03-0.972D-03-0.150D-03-0.398D-02 0.126D-02 0.338D-01
 Coeff-Com:  0.509D-01 0.383D+00 0.536D+00
 Coeff:      0.122D-03-0.972D-03-0.150D-03-0.398D-02 0.126D-02 0.338D-01
 Coeff:      0.509D-01 0.383D+00 0.536D+00
 Gap=     0.188 Goal=   None    Shift=    0.000
 RMSDP=1.19D-07 MaxDP=2.02D-06 DE=-3.52D-10 OVMax= 5.78D-06

 Cycle  10  Pass 1  IDiag  1:
 RMSU=  8.52D-08    CP:  9.99D-01  1.17D+00  5.43D-01  1.14D+00  9.17D-01
                    CP:  8.67D-01  6.17D-01  8.61D-01  8.19D-01
 E= -270.475928414896     Delta-E=       -0.000000000090 Rises=F Damp=F
 DIIS: error= 1.00D-07 at cycle  10 NSaved=  10.
 NSaved=10 IEnMin=10 EnMin= -270.475928414896     IErMin=10 ErrMin= 1.00D-07
 ErrMax= 1.00D-07  0.00D+00 EMaxC= 1.00D-01 BMatC= 3.84D-12 BMatP= 9.22D-11
 IDIUse=1 WtCom= 1.00D+00 WtEn= 0.00D+00
 Coeff-Com: -0.500D-05 0.199D-03 0.126D-03-0.606D-03-0.246D-02-0.458D-02
 Coeff-Com:  0.416D-03 0.594D-01 0.213D+00 0.735D+00
 Coeff:     -0.500D-05 0.199D-03 0.126D-03-0.606D-03-0.246D-02-0.458D-02
 Coeff:      0.416D-03 0.594D-01 0.213D+00 0.735D+00
 Gap=     0.188 Goal=   None    Shift=    0.000
 RMSDP=3.96D-08 MaxDP=6.43D-07 DE=-8.98D-11 OVMax= 8.30D-07

 Cycle  11  Pass 1  IDiag  1:
 RMSU=  2.50D-08    CP:  9.99D-01  1.17D+00  5.43D-01  1.14D+00  9.17D-01
                    CP:  8.69D-01  6.20D-01  8.68D-01  8.38D-01  7.39D-01
 E= -270.475928414899     Delta-E=       -0.000000000004 Rises=F Damp=F
 DIIS: error= 1.51D-08 at cycle  11 NSaved=  11.
 NSaved=11 IEnMin=11 EnMin= -270.475928414899     IErMin=11 ErrMin= 1.51D-08
 ErrMax= 1.51D-08  0.00D+00 EMaxC= 1.00D-01 BMatC= 6.87D-14 BMatP= 3.84D-12
 IDIUse=1 WtCom= 1.00D+00 WtEn= 0.00D+00
 Coeff-Com: -0.534D-05 0.775D-04 0.265D-04 0.140D-04-0.659D-03-0.228D-02
 Coeff-Com: -0.242D-02-0.126D-02 0.281D-01 0.162D+00 0.817D+00
 Coeff:     -0.534D-05 0.775D-04 0.265D-04 0.140D-04-0.659D-03-0.228D-02
 Coeff:     -0.242D-02-0.126D-02 0.281D-01 0.162D+00 0.817D+00
 Gap=     0.188 Goal=   None    Shift=    0.000
 RMSDP=7.09D-09 MaxDP=1.09D-07 DE=-3.75D-12 OVMax= 1.83D-07

 SCF Done:  E(RB3LYP) =  -270.475928415     A.U. after   11 cycles
            NFock= 11  Conv=0.71D-08     -V/T= 2.0099
 KE= 2.678182677072D+02 PE=-1.086300969784D+03 EE= 3.191789064151D+02
 Leave Link  502 at Wed Oct 16 02:43:08 2019, MaxMem=   280000000 cpu:              82.1 elap:               3.5
 (Enter /home/soft/g16/l801.exe)
 DoSCS=F DFT=T ScalE2(SS,OS)=  1.000000  1.000000
 Range of M.O.s used for correlation:     1   130
 NBasis=   130 NAE=    23 NBE=    23 NFC=     0 NFV=     0
 NROrb=    130 NOA=    23 NOB=    23 NVA=   107 NVB=   107

 **** Warning!!: The largest alpha MO coefficient is  0.41573381D+02

 Leave Link  801 at Wed Oct 16 02:43:08 2019, MaxMem=   280000000 cpu:               1.0 elap:               0.1
 (Enter /home/soft/g16/l1101.exe)
 Leave Link 1101 at Wed Oct 16 02:43:08 2019, MaxMem=   280000000 cpu:               0.8 elap:               0.1
 (Enter /home/soft/g16/l1102.exe)
 Symmetrizing basis deriv contribution to polar:
 IMax=3 JMax=2 DiffMx= 0.00D+00
 Leave Link 1102 at Wed Oct 16 02:43:08 2019, MaxMem=   280000000 cpu:               1.1 elap:               0.1
 (Enter /home/soft/g16/l1110.exe)
 Leave Link 1110 at Wed Oct 16 02:43:08 2019, MaxMem=   280000000 cpu:               1.0 elap:               0.1
 (Enter /home/soft/g16/l1002.exe)
 Minotr:  Closed shell wavefunction.
 Leave Link 1002 at Wed Oct 16 02:43:09 2019, MaxMem=   280000000 cpu:               1.1 elap:               0.1
 (Enter /home/soft/g16/l701.exe)
 ... and contract with generalized density number  0.
 Compute integral first derivatives.
 Leave Link  701 at Wed Oct 16 02:43:09 2019, MaxMem=   280000000 cpu:               3.1 elap:               0.1
 (Enter /home/soft/g16/l702.exe)
 L702 exits ... SP integral derivatives will be done elsewhere.
 Leave Link  702 at Wed Oct 16 02:43:09 2019, MaxMem=   280000000 cpu:               0.9 elap:               0.1
 (Enter /home/soft/g16/l703.exe)
 Integral derivatives from FoFJK, PRISM(SPDF).
 Compute integral first derivatives, UseDBF=F ICtDFT=           0.
 Calling FoFJK, ICntrl=      2147 FMM=F ISym2X=0 I1Cent= 0 IOpClX= 0 NMat=1 NMatS=1 NMatT=0.
 FoFJK:  IHMeth= 1 ICntrl=    2147 DoSepK=F KAlg= 0 I1Cent=           0 FoldK=F
 IRaf=         0 NMat=       1 IRICut=       1 DoRegI=T DoRafI=F ISym2E= 0 IDoP0=0 IntGTp=1.
 FoFCou: FMM=F IPFlag=           0 FMFlag=      100000 FMFlg1=         800
         NFxFlg=           0 DoJE=F BraDBF=F KetDBF=F FulRan=T
         wScrn=  0.000000 ICntrl=      2147 IOpCl=  0 I1Cent=           0 NGrid=           0
         NMat0=    1 NMatS0=      1 NMatT0=    0 NMatD0=    1 NMtDS0=    0 NMtDT0=    0
 Symmetry not used in FoFCou.
 Leave Link  703 at Wed Oct 16 02:43:09 2019, MaxMem=   280000000 cpu:              15.4 elap:               0.7
 (Enter /home/soft/g16/l716.exe)
 Dipole        = 3.34055364D-01 7.73524299D-01 3.48090697D-01
 Polarizability= 0.00000000D+00 0.00000000D+00 0.00000000D+00
                 0.00000000D+00 0.00000000D+00 0.00000000D+00
 -------------------------------------------------------------------
 Center     Atomic                   Forces (Hartrees/Bohr)
 Number     Number              X              Y              Z
 -------------------------------------------------------------------
      1        6          -0.002790765   -0.001428283   -0.000765092
      2        1          -0.000031028    0.000018714    0.000200281
      3        1          -0.000300026   -0.000167142   -0.000068526
      4        6          -0.000008971    0.000654722    0.000201903
      5        8           0.004566579    0.001022607    0.000645887
      6        6          -0.004644701   -0.001235225   -0.000520603
      7        1           0.000044652    0.000009605   -0.000171527
      8        1          -0.000176124   -0.000023243    0.000004791
      9        6          -0.000147180    0.000403801   -0.000083214
     10        1           0.000045844    0.000010329    0.000007957
     11        6           0.003153746    0.000763043    0.000687469
     12        1           0.000017981   -0.000004528   -0.000147537
     13        1           0.000269631    0.000065733    0.000053342
     14        1           0.000000362   -0.000090136   -0.000045132
 -------------------------------------------------------------------
 Cartesian Forces:  Max     0.004644701 RMS     0.001273391
 Z-matrix is all fixed cartesians, so copy forces.
 Leave Link  716 at Wed Oct 16 02:43:10 2019, MaxMem=   280000000 cpu:               1.2 elap:               0.1
 (Enter /home/soft/g16/l123.exe)
 IRC-IRC-IRC-IRC-IRC-IRC-IRC-IRC-IRC-IRC-IRC-IRC-IRC-IRC-IRC-IRC-IRC-IRC
 Pt  1 Step number   1 out of a maximum of  20
 Point Number:   1          Path Number:   1
                    CURRENT STRUCTURE
                Cartesian Coordinates (Ang):                
 ---------------------------------------------------------------------
 Center     Atomic                     Coordinates (Angstroms)
 Number     Number                        X           Y           Z
 ---------------------------------------------------------------------
      1          6                   -1.485656    0.831638   -0.284898
      2          1                   -1.217554    1.013350   -1.319869
      3          1                   -2.150937    1.549336    0.190247
      4          6                   -1.296580   -0.409822    0.279140
      5          8                   -0.514175   -1.311895   -0.232930
      6          6                    1.277899   -0.883320    0.186551
      7          1                    1.183394   -1.049657    1.256189
      8          1                    1.739492   -1.700579   -0.357454
      9          6                    1.389572    0.437034   -0.299418
     10          1                    1.700950    0.574982   -1.333277
     11          6                    0.736020    1.465431    0.341481
     12          1                    0.493020    1.401336    1.397752
     13          1                    0.692113    2.462746   -0.087970
     14          1                   -1.677337   -0.588070    1.297648
 ---------------------------------------------------------------------
   CHANGE IN THE REACTION COORDINATE =    0.29553
   NET REACTION COORDINATE UP TO THIS POINT =    0.29553
  # OF POINTS ALONG THE PATH =   1
  # OF STEPS =   1

 Calculating another point on the path.
 Point Number  2 in FORWARD path direction.
 Using LQA Reaction Path Following.
   LQA: T_Est iteration completed in    3 iterations.
 IRC-IRC-IRC-IRC-IRC-IRC-IRC-IRC-IRC-IRC-IRC-IRC-IRC-IRC-IRC-IRC-IRC-IRC
 Leave Link  123 at Wed Oct 16 02:43:10 2019, MaxMem=   280000000 cpu:               2.0 elap:               0.1
 (Enter /home/soft/g16/l202.exe)
                          Input orientation:                          
 ---------------------------------------------------------------------
 Center     Atomic      Atomic             Coordinates (Angstroms)
 Number     Number       Type             X           Y           Z
 ---------------------------------------------------------------------
      1          6           0       -1.501895    0.823390   -0.288156
      2          1           0       -1.215077    1.015658   -1.316199
      3          1           0       -2.169627    1.539163    0.186119
      4          6           0       -1.296258   -0.406452    0.279738
      5          8           0       -0.495191   -1.307477   -0.230118
      6          6           0        1.252385   -0.889909    0.182710
      7          1           0        1.184053   -1.050308    1.256187
      8          1           0        1.724762   -1.703546   -0.358213
      9          6           0        1.388512    0.439587   -0.299487
     10          1           0        1.703362    0.575531   -1.332543
     11          6           0        0.754369    1.469566    0.344483
     12          1           0        0.491567    1.399704    1.395667
     13          1           0        0.707391    2.466591   -0.085432
     14          1           0       -1.677118   -0.592578    1.295528
 ---------------------------------------------------------------------
                    Distance matrix (angstroms):
                    1          2          3          4          5
     1  C    0.000000
     2  H    1.084483   0.000000
     3  H    1.087720   1.855312   0.000000
     4  C    1.370147   2.139159   2.134703   0.000000
     5  O    2.357417   2.663600   3.328716   1.309010   0.000000
     6  C    3.277678   3.459232   4.196495   2.595906   1.843587
     7  H    3.620782   4.079364   4.370078   2.742252   2.257233
     8  H    4.098979   4.117579   5.096835   3.349029   2.258643
     9  C    2.915799   2.853811   3.755694   2.873895   2.570093
    10  H    3.380214   2.951485   4.270242   3.544215   3.097530
    11  C    2.430742   2.615840   2.929109   2.780055   3.098957
    12  H    2.672320   3.227127   2.926502   2.775575   3.308428
    13  H    2.760824   2.704788   3.034979   3.521695   3.963676
    14  H    2.131602   3.101777   2.453095   1.100693   2.058064
                    6          7          8          9         10
     6  C    0.000000
     7  H    1.087543   0.000000
     8  H    1.085239   1.823561   0.000000
     9  C    1.420776   2.163726   2.170146   0.000000
    10  H    2.155664   3.100735   2.478703   1.088493   0.000000
    11  C    2.416881   2.713964   3.391768   1.370289   2.124218
    12  H    2.700451   2.549814   3.771873   2.144734   3.096908
    13  H    3.411013   3.794170   4.301104   2.149067   2.474541
    14  H    3.147818   2.897821   3.942321   3.606594   4.438342
                   11         12         13         14
    11  C    0.000000
    12  H    1.085787   0.000000
    13  H    1.086781   1.838065   0.000000
    14  H    3.327019   2.946593   4.117214   0.000000
 Symmetry turned off by external request.
 Stoichiometry    C5H8O
 Framework group  C1[X(C5H8O)]
 Deg. of freedom    36
 Full point group                 C1      NOp   1
 Rotational constants (GHZ):           4.8033216           3.8129486           2.4226440
 Leave Link  202 at Wed Oct 16 02:43:10 2019, MaxMem=   280000000 cpu:               0.9 elap:               0.1
 (Enter /home/soft/g16/l301.exe)
 Standard basis: 6-31+G(d) (6D, 7F)
 Ernie: Thresh=  0.10000D-02 Tol=  0.10000D-05 Strict=F.
   130 basis functions,   224 primitive gaussians,   130 cartesian basis functions
    23 alpha electrons       23 beta electrons
       nuclear repulsion energy       229.0112299261 Hartrees.
 IExCor=  402 DFT=T Ex+Corr=B3LYP ExCW=0 ScaHFX=  0.200000
 ScaDFX=  0.800000  0.720000  1.000000  0.810000 ScalE2=  1.000000  1.000000
 IRadAn=      5 IRanWt=     -1 IRanGd=            0 ICorTp=0 IEmpDi=  4
 NAtoms=   14 NActive=   14 NUniq=   14 SFac= 1.00D+00 NAtFMM=   60 NAOKFM=F Big=F
 Integral buffers will be    131072 words long.
 Raffenetti 2 integral format.
 Two-electron integral symmetry is turned off.
 Leave Link  301 at Wed Oct 16 02:43:10 2019, MaxMem=   280000000 cpu:               1.8 elap:               0.1
 (Enter /home/soft/g16/l302.exe)
 NPDir=0 NMtPBC=     1 NCelOv=     1 NCel=       1 NClECP=     1 NCelD=      1
         NCelK=      1 NCelE2=     1 NClLst=     1 CellRange=     0.0.
 One-electron integrals computed using PRISM.
 NBasis=   130 RedAO= T EigKep=  6.13D-05  NBF=   130
 NBsUse=   130 1.00D-06 EigRej= -1.00D+00 NBFU=   130
 Precomputing XC quadrature grid using
 IXCGrd= 4 IRadAn=           5 IRanWt=          -1 IRanGd=           0 AccXCQ= 0.00D+00.
 Generated NRdTot=       0 NPtTot=           0 NUsed=           0 NTot=          32
 NSgBfM=   130   130   130   130   130 MxSgAt=    14 MxSgA2=    14.
 Leave Link  302 at Wed Oct 16 02:43:10 2019, MaxMem=   280000000 cpu:               3.7 elap:               0.2
 (Enter /home/soft/g16/l303.exe)
 DipDrv:  MaxL=1.
 Leave Link  303 at Wed Oct 16 02:43:10 2019, MaxMem=   280000000 cpu:               1.1 elap:               0.1
 (Enter /home/soft/g16/l401.exe)
 Initial guess from the checkpoint file:  "ircb4.chk"
 B after Tr=    -0.000281   -0.000265   -0.000055
         Rot=    1.000000   -0.000067    0.000049    0.000025 Ang=  -0.01 deg.
 Guess basis will be translated and rotated to current coordinates.
 JPrj=2 DoOrth=T DoCkMO=T.
 Generating alternative initial guess.
 ExpMin= 4.38D-02 ExpMax= 5.48D+03 ExpMxC= 8.25D+02 IAcc=2 IRadAn=         4 AccDes= 0.00D+00
 Harris functional with IExCor=  402 and IRadAn=       4 diagonalized for initial guess.
 HarFok:  IExCor=  402 AccDes= 0.00D+00 IRadAn=         4 IDoV= 1 UseB2=F ITyADJ=14
 ICtDFT=  3500011 ScaDFX=  1.000000  1.000000  1.000000  1.000000
 FoFCou: FMM=F IPFlag=           0 FMFlag=      100000 FMFlg1=           0
         NFxFlg=           0 DoJE=T BraDBF=F KetDBF=T FulRan=T
         wScrn=  0.000000 ICntrl=       500 IOpCl=  0 I1Cent=   200000004 NGrid=           0
         NMat0=    1 NMatS0=      1 NMatT0=    0 NMatD0=    1 NMtDS0=    0 NMtDT0=    0
 Symmetry not used in FoFCou.
 Harris En= -270.507139226636    
 Leave Link  401 at Wed Oct 16 02:43:10 2019, MaxMem=   280000000 cpu:               6.4 elap:               0.3
 (Enter /home/soft/g16/l502.exe)
 Two-electron integral symmetry not used.
 Closed shell SCF:
 Using DIIS extrapolation, IDIIS=  1040.
 NGot=   280000000 LenX=   279961852 LenY=   279944511
 Requested convergence on RMS density matrix=1.00D-08 within 128 cycles.
 Requested convergence on MAX density matrix=1.00D-06.
 Requested convergence on             energy=1.00D-06.
 No special actions if energy rises.
 Fock matrices will be formed incrementally for  20 cycles.

 Cycle   1  Pass 1  IDiag  1:
 FoFJK:  IHMeth= 1 ICntrl=       0 DoSepK=F KAlg= 0 I1Cent=           0 FoldK=F
 IRaf= 990000000 NMat=       1 IRICut=       1 DoRegI=T DoRafI=F ISym2E= 0 IDoP0=0 IntGTp=1.
 FoFCou: FMM=F IPFlag=           0 FMFlag=      100000 FMFlg1=           0
         NFxFlg=           0 DoJE=F BraDBF=F KetDBF=F FulRan=T
         wScrn=  0.000000 ICntrl=         0 IOpCl=  0 I1Cent=           0 NGrid=           0
         NMat0=    1 NMatS0=      1 NMatT0=    0 NMatD0=    1 NMtDS0=    0 NMtDT0=    0
 Symmetry not used in FoFCou.
 E= -270.475507910503    
 DIIS: error= 1.47D-03 at cycle   1 NSaved=   1.
 NSaved= 1 IEnMin= 1 EnMin= -270.475507910503     IErMin= 1 ErrMin= 1.47D-03
 ErrMax= 1.47D-03  0.00D+00 EMaxC= 1.00D-01 BMatC= 4.88D-04 BMatP= 4.88D-04
 IDIUse=3 WtCom= 9.85D-01 WtEn= 1.47D-02
 Coeff-Com:  0.100D+01
 Coeff-En:   0.100D+01
 Coeff:      0.100D+01
 Gap=     0.611 Goal=   None    Shift=    0.000
 GapD=    0.611 DampG=2.000 DampE=1.000 DampFc=2.0000 IDamp=-1.
 RMSDP=6.18D-04 MaxDP=8.57D-03              OVMax= 2.82D-02

 Cycle   2  Pass 1  IDiag  1:
 RMSU=  6.18D-04    CP:  9.99D-01
 E= -270.476848182111     Delta-E=       -0.001340271608 Rises=F Damp=F
 DIIS: error= 6.43D-04 at cycle   2 NSaved=   2.
 NSaved= 2 IEnMin= 2 EnMin= -270.476848182111     IErMin= 2 ErrMin= 6.43D-04
 ErrMax= 6.43D-04  0.00D+00 EMaxC= 1.00D-01 BMatC= 7.44D-05 BMatP= 4.88D-04
 IDIUse=3 WtCom= 9.94D-01 WtEn= 6.43D-03
 Coeff-Com:  0.942D-01 0.906D+00
 Coeff-En:   0.000D+00 0.100D+01
 Coeff:      0.936D-01 0.906D+00
 Gap=     0.191 Goal=   None    Shift=    0.000
 RMSDP=2.50D-04 MaxDP=4.29D-03 DE=-1.34D-03 OVMax= 8.07D-03

 Cycle   3  Pass 1  IDiag  1:
 RMSU=  2.42D-04    CP:  9.99D-01  1.09D+00
 E= -270.476778647255     Delta-E=        0.000069534856 Rises=F Damp=F
 DIIS: error= 7.93D-04 at cycle   3 NSaved=   3.
 NSaved= 3 IEnMin= 2 EnMin= -270.476848182111     IErMin= 2 ErrMin= 6.43D-04
 ErrMax= 7.93D-04  0.00D+00 EMaxC= 1.00D-01 BMatC= 1.55D-04 BMatP= 7.44D-05
 IDIUse=3 WtCom= 2.62D-01 WtEn= 7.38D-01
 Coeff-Com: -0.483D-01 0.624D+00 0.424D+00
 Coeff-En:   0.000D+00 0.623D+00 0.377D+00
 Coeff:     -0.127D-01 0.623D+00 0.389D+00
 Gap=     0.191 Goal=   None    Shift=    0.000
 RMSDP=1.45D-04 MaxDP=3.09D-03 DE= 6.95D-05 OVMax= 7.20D-03

 Cycle   4  Pass 1  IDiag  1:
 RMSU=  5.67D-05    CP:  9.99D-01  1.14D+00  4.67D-01
 E= -270.476952413130     Delta-E=       -0.000173765875 Rises=F Damp=F
 DIIS: error= 6.98D-05 at cycle   4 NSaved=   4.
 NSaved= 4 IEnMin= 4 EnMin= -270.476952413130     IErMin= 4 ErrMin= 6.98D-05
 ErrMax= 6.98D-05  0.00D+00 EMaxC= 1.00D-01 BMatC= 1.03D-06 BMatP= 7.44D-05
 IDIUse=1 WtCom= 1.00D+00 WtEn= 0.00D+00
 Coeff-Com: -0.180D-01 0.105D+00 0.111D+00 0.802D+00
 Coeff:     -0.180D-01 0.105D+00 0.111D+00 0.802D+00
 Gap=     0.191 Goal=   None    Shift=    0.000
 RMSDP=2.43D-05 MaxDP=4.43D-04 DE=-1.74D-04 OVMax= 9.66D-04

 Cycle   5  Pass 1  IDiag  1:
 RMSU=  1.82D-05    CP:  9.99D-01  1.16D+00  5.17D-01  1.02D+00
 E= -270.476953707059     Delta-E=       -0.000001293929 Rises=F Damp=F
 DIIS: error= 4.31D-05 at cycle   5 NSaved=   5.
 NSaved= 5 IEnMin= 5 EnMin= -270.476953707059     IErMin= 5 ErrMin= 4.31D-05
 ErrMax= 4.31D-05  0.00D+00 EMaxC= 1.00D-01 BMatC= 5.62D-07 BMatP= 1.03D-06
 IDIUse=1 WtCom= 1.00D+00 WtEn= 0.00D+00
 Coeff-Com: -0.733D-02 0.287D-02 0.332D-01 0.479D+00 0.492D+00
 Coeff:     -0.733D-02 0.287D-02 0.332D-01 0.479D+00 0.492D+00
 Gap=     0.191 Goal=   None    Shift=    0.000
 RMSDP=1.06D-05 MaxDP=1.69D-04 DE=-1.29D-06 OVMax= 2.68D-04

 Cycle   6  Pass 1  IDiag  1:
 RMSU=  7.21D-06    CP:  9.99D-01  1.17D+00  5.29D-01  1.09D+00  8.35D-01
 E= -270.476954189192     Delta-E=       -0.000000482133 Rises=F Damp=F
 DIIS: error= 1.66D-05 at cycle   6 NSaved=   6.
 NSaved= 6 IEnMin= 6 EnMin= -270.476954189192     IErMin= 6 ErrMin= 1.66D-05
 ErrMax= 1.66D-05  0.00D+00 EMaxC= 1.00D-01 BMatC= 6.42D-08 BMatP= 5.62D-07
 IDIUse=1 WtCom= 1.00D+00 WtEn= 0.00D+00
 Coeff-Com: -0.201D-03-0.206D-01-0.633D-03 0.106D+00 0.266D+00 0.649D+00
 Coeff:     -0.201D-03-0.206D-01-0.633D-03 0.106D+00 0.266D+00 0.649D+00
 Gap=     0.191 Goal=   None    Shift=    0.000
 RMSDP=4.70D-06 MaxDP=7.81D-05 DE=-4.82D-07 OVMax= 1.90D-04

 Cycle   7  Pass 1  IDiag  1:
 RMSU=  3.10D-06    CP:  9.99D-01  1.17D+00  5.33D-01  1.10D+00  8.95D-01
                    CP:  6.05D-01
 E= -270.476954228144     Delta-E=       -0.000000038952 Rises=F Damp=F
 DIIS: error= 9.89D-06 at cycle   7 NSaved=   7.
 NSaved= 7 IEnMin= 7 EnMin= -270.476954228144     IErMin= 7 ErrMin= 9.89D-06
 ErrMax= 9.89D-06  0.00D+00 EMaxC= 1.00D-01 BMatC= 2.89D-08 BMatP= 6.42D-08
 IDIUse=1 WtCom= 1.00D+00 WtEn= 0.00D+00
 Coeff-Com:  0.110D-02-0.167D-01-0.558D-02 0.495D-02 0.110D+00 0.468D+00
 Coeff-Com:  0.439D+00
 Coeff:      0.110D-02-0.167D-01-0.558D-02 0.495D-02 0.110D+00 0.468D+00
 Coeff:      0.439D+00
 Gap=     0.191 Goal=   None    Shift=    0.000
 RMSDP=2.31D-06 MaxDP=4.31D-05 DE=-3.90D-08 OVMax= 7.05D-05

 Cycle   8  Pass 1  IDiag  1:
 RMSU=  8.81D-07    CP:  9.99D-01  1.17D+00  5.35D-01  1.11D+00  9.05D-01
                    CP:  7.60D-01  6.14D-01
 E= -270.476954257469     Delta-E=       -0.000000029325 Rises=F Damp=F
 DIIS: error= 1.25D-06 at cycle   8 NSaved=   8.
 NSaved= 8 IEnMin= 8 EnMin= -270.476954257469     IErMin= 8 ErrMin= 1.25D-06
 ErrMax= 1.25D-06  0.00D+00 EMaxC= 1.00D-01 BMatC= 3.28D-10 BMatP= 2.89D-08
 IDIUse=1 WtCom= 1.00D+00 WtEn= 0.00D+00
 Coeff-Com:  0.402D-03-0.484D-02-0.154D-02-0.546D-02 0.230D-01 0.139D+00
 Coeff-Com:  0.160D+00 0.690D+00
 Coeff:      0.402D-03-0.484D-02-0.154D-02-0.546D-02 0.230D-01 0.139D+00
 Coeff:      0.160D+00 0.690D+00
 Gap=     0.191 Goal=   None    Shift=    0.000
 RMSDP=3.66D-07 MaxDP=8.84D-06 DE=-2.93D-08 OVMax= 9.96D-06

 Cycle   9  Pass 1  IDiag  1:
 RMSU=  1.99D-07    CP:  9.99D-01  1.17D+00  5.36D-01  1.11D+00  9.10D-01
                    CP:  7.53D-01  6.42D-01  8.75D-01
 E= -270.476954257744     Delta-E=       -0.000000000275 Rises=F Damp=F
 DIIS: error= 4.93D-07 at cycle   9 NSaved=   9.
 NSaved= 9 IEnMin= 9 EnMin= -270.476954257744     IErMin= 9 ErrMin= 4.93D-07
 ErrMax= 4.93D-07  0.00D+00 EMaxC= 1.00D-01 BMatC= 8.52D-11 BMatP= 3.28D-10
 IDIUse=1 WtCom= 1.00D+00 WtEn= 0.00D+00
 Coeff-Com:  0.115D-03-0.939D-03-0.200D-03-0.368D-02 0.622D-03 0.287D-01
 Coeff-Com:  0.428D-01 0.400D+00 0.532D+00
 Coeff:      0.115D-03-0.939D-03-0.200D-03-0.368D-02 0.622D-03 0.287D-01
 Coeff:      0.428D-01 0.400D+00 0.532D+00
 Gap=     0.191 Goal=   None    Shift=    0.000
 RMSDP=1.21D-07 MaxDP=2.07D-06 DE=-2.75D-10 OVMax= 5.69D-06

 Cycle  10  Pass 1  IDiag  1:
 RMSU=  8.57D-08    CP:  9.99D-01  1.17D+00  5.36D-01  1.11D+00  9.12D-01
                    CP:  7.60D-01  6.42D-01  9.18D-01  8.12D-01
 E= -270.476954257832     Delta-E=       -0.000000000087 Rises=F Damp=F
 DIIS: error= 9.73D-08 at cycle  10 NSaved=  10.
 NSaved=10 IEnMin=10 EnMin= -270.476954257832     IErMin=10 ErrMin= 9.73D-08
 ErrMax= 9.73D-08  0.00D+00 EMaxC= 1.00D-01 BMatC= 3.23D-12 BMatP= 8.52D-11
 IDIUse=1 WtCom= 1.00D+00 WtEn= 0.00D+00
 Coeff-Com: -0.390D-05 0.180D-03 0.115D-03-0.600D-03-0.209D-02-0.422D-02
 Coeff-Com: -0.161D-02 0.620D-01 0.205D+00 0.741D+00
 Coeff:     -0.390D-05 0.180D-03 0.115D-03-0.600D-03-0.209D-02-0.422D-02
 Coeff:     -0.161D-02 0.620D-01 0.205D+00 0.741D+00
 Gap=     0.191 Goal=   None    Shift=    0.000
 RMSDP=3.95D-08 MaxDP=6.33D-07 DE=-8.71D-11 OVMax= 7.99D-07

 Cycle  11  Pass 1  IDiag  1:
 RMSU=  2.59D-08    CP:  9.99D-01  1.17D+00  5.36D-01  1.11D+00  9.12D-01
                    CP:  7.61D-01  6.46D-01  9.25D-01  8.05D-01  7.36D-01
 E= -270.476954257839     Delta-E=       -0.000000000007 Rises=F Damp=F
 DIIS: error= 1.79D-08 at cycle  11 NSaved=  11.
 NSaved=11 IEnMin=11 EnMin= -270.476954257839     IErMin=11 ErrMin= 1.79D-08
 ErrMax= 1.79D-08  0.00D+00 EMaxC= 1.00D-01 BMatC= 1.12D-13 BMatP= 3.23D-12
 IDIUse=1 WtCom= 1.00D+00 WtEn= 0.00D+00
 Coeff-Com: -0.498D-05 0.867D-04 0.408D-04-0.760D-04-0.741D-03-0.227D-02
 Coeff-Com: -0.211D-02 0.728D-02 0.518D-01 0.249D+00 0.697D+00
 Coeff:     -0.498D-05 0.867D-04 0.408D-04-0.760D-04-0.741D-03-0.227D-02
[...]
 Calling FoFJK, ICntrl=      2147 FMM=F ISym2X=0 I1Cent= 0 IOpClX= 0 NMat=1 NMatS=1 NMatT=0.
 FoFJK:  IHMeth= 1 ICntrl=    2147 DoSepK=F KAlg= 0 I1Cent=           0 FoldK=F
 IRaf=         0 NMat=       1 IRICut=       1 DoRegI=T DoRafI=F ISym2E= 0 IDoP0=0 IntGTp=1.
 FoFCou: FMM=F IPFlag=           0 FMFlag=      100000 FMFlg1=         800
         NFxFlg=           0 DoJE=F BraDBF=F KetDBF=F FulRan=T
         wScrn=  0.000000 ICntrl=      2147 IOpCl=  0 I1Cent=           0 NGrid=           0
         NMat0=    1 NMatS0=      1 NMatT0=    0 NMatD0=    1 NMtDS0=    0 NMtDT0=    0
 Symmetry not used in FoFCou.
 Leave Link  703 at Wed Oct 16 02:48:51 2019, MaxMem=   280000000 cpu:              16.1 elap:               0.7
 (Enter /home/soft/g16/l716.exe)
 Dipole        =-1.33735455D-01 1.05829756D+00 3.48727338D-01
 Polarizability= 0.00000000D+00 0.00000000D+00 0.00000000D+00
                 0.00000000D+00 0.00000000D+00 0.00000000D+00
 -------------------------------------------------------------------
 Center     Atomic                   Forces (Hartrees/Bohr)
 Number     Number              X              Y              Z
 -------------------------------------------------------------------
      1        6          -0.002863220   -0.000323871   -0.003341755
      2        1           0.000807902    0.000504123    0.002322923
      3        1          -0.000148156   -0.000041291   -0.000068806
      4        6           0.004160283   -0.012729007   -0.006976381
      5        8          -0.009283756    0.011752948    0.007081931
      6        6           0.012615476    0.002906876   -0.007613576
      7        1          -0.002342466   -0.001166429    0.002604675
      8        1          -0.006718565    0.004072592    0.003626636
      9        6           0.001657752   -0.003995747    0.000831710
     10        1          -0.000182567   -0.000004894   -0.000307338
     11        6           0.005906729    0.001851081    0.008146548
     12        1          -0.002317513    0.000409190   -0.005975444
     13        1          -0.000951979   -0.002146476   -0.000536472
     14        1          -0.000339920   -0.001089095    0.000205350
 -------------------------------------------------------------------
 Cartesian Forces:  Max     0.012729007 RMS     0.004915869
 Z-matrix is all fixed cartesians, so copy forces.
 Leave Link  716 at Wed Oct 16 02:48:51 2019, MaxMem=   280000000 cpu:               1.3 elap:               0.1
 (Enter /home/soft/g16/l123.exe)
 IRC-IRC-IRC-IRC-IRC-IRC-IRC-IRC-IRC-IRC-IRC-IRC-IRC-IRC-IRC-IRC-IRC-IRC
 Pt 60 Step number   1 out of a maximum of  20
 Point Number:  30          Path Number:   2
                    CURRENT STRUCTURE
                Cartesian Coordinates (Ang):                
 ---------------------------------------------------------------------
 Center     Atomic                     Coordinates (Angstroms)
 Number     Number                        X           Y           Z
 ---------------------------------------------------------------------
      1          6                   -1.055720    0.948398   -0.222630
      2          1                   -1.081329    0.947569   -1.321628
      3          1                   -1.781919    1.679921    0.153540
      4          6                   -1.397321   -0.429477    0.280223
      5          8                   -1.076316   -1.460510   -0.295445
      6          6                    1.908665   -0.672334    0.265663
      7          1                    1.632598   -0.972011    1.269450
      8          1                    2.659405   -1.298347   -0.238958
      9          6                    1.424267    0.431857   -0.316899
     10          1                    1.745408    0.679012   -1.329235
     11          6                    0.366010    1.317645    0.283187
     12          1                    0.407192    1.238218    1.388439
     13          1                    0.560463    2.374623    0.046081
     14          1                   -1.894618   -0.473988    1.273679
 ---------------------------------------------------------------------
   CHANGE IN THE REACTION COORDINATE =    0.28454
   NET REACTION COORDINATE UP TO THIS POINT =    8.73215
  # OF POINTS ALONG THE PATH =  60
  # OF STEPS =   1

 Maximum number of steps reached.
 Calculation of REVERSE path complete.
 Reaction path calculation complete.
 
 Energies reported relative to the TS energy of        -270.475584
 --------------------------------------------------------------------------
    Summary of reaction path following
 --------------------------------------------------------------------------
                        Energy    RxCoord
   1                   -0.06622  -8.73215
   2                   -0.06632  -8.44761
   3                   -0.06584  -8.16664
   4                   -0.06518  -7.89496
   5                   -0.06479  -7.61251
   6                   -0.06400  -7.33905
   7                   -0.06352  -7.05137
   8                   -0.06267  -6.76585
   9                   -0.06187  -6.47548
  10                   -0.06076  -6.19467
  11                   -0.05976  -5.90560
  12                   -0.05859  -5.61115
  13                   -0.05703  -5.31593
  14                   -0.05524  -5.02087
  15                   -0.05315  -4.72619
  16                   -0.05061  -4.43142
  17                   -0.04739  -4.13620
  18                   -0.04347  -3.84079
  19                   -0.03898  -3.54533
  20                   -0.03415  -3.24987
  21                   -0.02920  -2.95440
  22                   -0.02433  -2.65894
  23                   -0.01967  -2.36348
  24                   -0.01537  -2.06803
  25                   -0.01149  -1.77258
  26                   -0.00810  -1.47714
  27                   -0.00526  -1.18171
  28                   -0.00300  -0.88629
  29                   -0.00135  -0.59091
  30                   -0.00034  -0.29553
  31                    0.00000   0.00000
  32                   -0.00034   0.29553
  33                   -0.00137   0.59091
  34                   -0.00305   0.88631
  35                   -0.00530   1.18174
  36                   -0.00800   1.47718
  37                   -0.01098   1.77264
  38                   -0.01401   2.06809
  39                   -0.01684   2.36349
  40                   -0.01930   2.65865
  41                   -0.02136   2.95329
  42                   -0.02313   3.24802
  43                   -0.02470   3.54313
  44                   -0.02612   3.83844
  45                   -0.02739   4.13381
  46                   -0.02851   4.42899
  47                   -0.02912   4.72268
  48                   -0.03018   5.00399
  49                   -0.03102   5.29244
  50                   -0.03169   5.58476
  51                   -0.03233   5.87468
  52                   -0.03302   6.15957
  53                   -0.03358   6.45023
  54                   -0.03362   6.73871
  55                   -0.03443   7.00385
  56                   -0.03496   7.28487
  57                   -0.03538   7.57232
  58                   -0.03568   7.85584
  59                   -0.03612   8.12974
  60                   -0.03640   8.41185
  61                   -0.03667   8.68703
 --------------------------------------------------------------------------
 
 Total number of points:                   60
 Total number of gradient calculations:    61
 Total number of Hessian calculations:      1
 IRC-IRC-IRC-IRC-IRC-IRC-IRC-IRC-IRC-IRC-IRC-IRC-IRC-IRC-IRC-IRC-IRC-IRC
 Leave Link  123 at Wed Oct 16 02:48:51 2019, MaxMem=   280000000 cpu:               0.9 elap:               0.1
 (Enter /home/soft/g16/l202.exe)
                          Input orientation:                          
 ---------------------------------------------------------------------
 Center     Atomic      Atomic             Coordinates (Angstroms)
 Number     Number       Type             X           Y           Z
 ---------------------------------------------------------------------
      1          6           0       -1.055720    0.948398   -0.222630
      2          1           0       -1.081329    0.947569   -1.321628
      3          1           0       -1.781919    1.679921    0.153540
      4          6           0       -1.397321   -0.429477    0.280223
      5          8           0       -1.076316   -1.460510   -0.295445
      6          6           0        1.908665   -0.672334    0.265663
      7          1           0        1.632598   -0.972011    1.269450
      8          1           0        2.659405   -1.298347   -0.238958
      9          6           0        1.424267    0.431857   -0.316899
     10          1           0        1.745408    0.679012   -1.329235
     11          6           0        0.366010    1.317645    0.283187
     12          1           0        0.407192    1.238218    1.388439
     13          1           0        0.560463    2.374623    0.046081
     14          1           0       -1.894618   -0.473988    1.273679
 ---------------------------------------------------------------------
                    Distance matrix (angstroms):
                    1          2          3          4          5
     1  C    0.000000
     2  H    1.099296   0.000000
     3  H    1.097267   1.789773   0.000000
     4  C    1.506019   2.135891   2.147912   0.000000
     5  O    2.410096   2.617617   3.249887   1.223710   0.000000
     6  C    3.413618   3.752818   4.377909   3.314926   3.137862
     7  H    3.625098   4.214721   4.465079   3.233160   3.166346
     8  H    4.341692   4.495487   5.361855   4.181089   3.739666
     9  C    2.534963   2.748355   3.472550   3.009952   3.135990
    10  H    3.023816   2.839476   3.955058   3.700791   3.688957
    11  C    1.553548   2.192528   2.182121   2.482294   3.183279
    12  H    2.195370   3.105581   2.551918   2.695481   3.509899
    13  H    2.172181   2.569551   2.445590   3.427932   4.183770
    14  H    2.228424   3.068857   2.430378   1.111864   2.026079
                    6          7          8          9         10
     6  C    0.000000
     7  H    1.083332   0.000000
     8  H    1.100066   1.853678   0.000000
     9  C    1.339126   2.128556   2.127263   0.000000
    10  H    2.096781   3.080872   2.435989   1.090433   0.000000
    11  C    2.517957   2.796334   3.517912   1.504869   2.215964
    12  H    2.676800   2.529998   3.762319   2.143090   3.080468
    13  H    3.339134   3.721030   4.239990   2.156908   2.484087
    14  H    3.939594   3.562205   4.868959   3.790184   4.621079
                   11         12         13         14
    11  C    0.000000
    12  H    1.108867   0.000000
    13  H    1.100561   1.765455   0.000000
    14  H    3.049830   2.871089   3.955882   0.000000
 Symmetry turned off by external request.
 Stoichiometry    C5H8O
 Framework group  C1[X(C5H8O)]
 Deg. of freedom    36
 Full point group                 C1      NOp   1
 Rotational constants (GHZ):           4.9651736           3.0827866           2.1374592
 Leave Link  202 at Wed Oct 16 02:48:51 2019, MaxMem=   280000000 cpu:               1.0 elap:               0.1
 (Enter /home/soft/g16/l601.exe)
 Copying SCF densities to generalized density rwf, IOpCl= 0 IROHF=0.

 **********************************************************************

            Population analysis using the SCF density.

 **********************************************************************

 Alpha  occ. eigenvalues --  -19.16280 -10.28571 -10.21451 -10.21072 -10.19878
 Alpha  occ. eigenvalues --  -10.18909  -1.04981  -0.82181  -0.75489  -0.66994
 Alpha  occ. eigenvalues --   -0.58371  -0.56441  -0.49896  -0.47005  -0.44866
 Alpha  occ. eigenvalues --   -0.43951  -0.42704  -0.39455  -0.37646  -0.36339
 Alpha  occ. eigenvalues --   -0.34673  -0.27373  -0.25356
 Alpha virt. eigenvalues --   -0.04470  -0.00897   0.01205   0.01740   0.02496
 Alpha virt. eigenvalues --    0.03280   0.04834   0.06097   0.06614   0.07008
 Alpha virt. eigenvalues --    0.07565   0.08927   0.10114   0.10788   0.11134
 Alpha virt. eigenvalues --    0.11289   0.12628   0.13583   0.15713   0.16919
 Alpha virt. eigenvalues --    0.19092   0.19402   0.20606   0.21260   0.23131
 Alpha virt. eigenvalues --    0.23497   0.24307   0.24747   0.25960   0.27247
 Alpha virt. eigenvalues --    0.29153   0.31325   0.32181   0.33124   0.35872
 Alpha virt. eigenvalues --    0.37124   0.39101   0.41082   0.44249   0.58816
 Alpha virt. eigenvalues --    0.62650   0.64404   0.65634   0.67349   0.68748
 Alpha virt. eigenvalues --    0.71875   0.72844   0.75175   0.78411   0.80522
 Alpha virt. eigenvalues --    0.81582   0.86682   0.88799   0.93158   0.94856
 Alpha virt. eigenvalues --    0.97906   0.99887   1.02501   1.04043   1.06046
 Alpha virt. eigenvalues --    1.09272   1.11268   1.13550   1.20261   1.24655
 Alpha virt. eigenvalues --    1.26126   1.27336   1.30544   1.37745   1.45767
 Alpha virt. eigenvalues --    1.49525   1.52398   1.53397   1.56270   1.64881
 Alpha virt. eigenvalues --    1.69643   1.75101   1.78856   1.83382   1.85933
 Alpha virt. eigenvalues --    1.88008   1.91676   1.94610   2.01793   2.07887
 Alpha virt. eigenvalues --    2.12205   2.15232   2.22247   2.24101   2.26320
 Alpha virt. eigenvalues --    2.30298   2.42632   2.46187   2.53697   2.55827
 Alpha virt. eigenvalues --    2.61964   2.68230   2.76845   2.87138   2.87770
 Alpha virt. eigenvalues --    3.04336   4.15348   4.22368   4.23936   4.33324
 Alpha virt. eigenvalues --    4.45221   4.55204
          Condensed to atoms (all electrons):
               1          2          3          4          5          6
     1  C    6.067179   0.403466   0.358464  -0.066533  -0.122640   0.002923
     2  H    0.403466   0.481931  -0.028792  -0.044421  -0.002998   0.006704
     3  H    0.358464  -0.028792   0.527755  -0.008337   0.005480  -0.001527
     4  C   -0.066533  -0.044421  -0.008337   5.060366   0.510197   0.006755
     5  O   -0.122640  -0.002998   0.005480   0.510197   8.041931  -0.007290
     6  C    0.002923   0.006704  -0.001527   0.006755  -0.007290   5.044889
     7  H   -0.000404   0.000014  -0.000018   0.008363  -0.003253   0.417520
     8  H    0.000391  -0.000004   0.000003  -0.000617   0.000352   0.367613
     9  C   -0.231308  -0.006297   0.027777   0.136268   0.046458   0.590280
    10  H    0.014128   0.001521  -0.000104   0.002471  -0.000976   0.010362
    11  C    0.290089  -0.047564  -0.079367  -0.141077  -0.069259   0.006356
    12  H   -0.048926   0.003851  -0.001896   0.006212  -0.000930   0.013910
    13  H   -0.067992  -0.003133  -0.003786   0.005847   0.000245  -0.002902
    14  H   -0.155887   0.003643   0.002065   0.429177  -0.069313  -0.001887
               7          8          9         10         11         12
     1  C   -0.000404   0.000391  -0.231308   0.014128   0.290089  -0.048926
     2  H    0.000014  -0.000004  -0.006297   0.001521  -0.047564   0.003851
     3  H   -0.000018   0.000003   0.027777  -0.000104  -0.079367  -0.001896
     4  C    0.008363  -0.000617   0.136268   0.002471  -0.141077   0.006212
     5  O   -0.003253   0.000352   0.046458  -0.000976  -0.069259  -0.000930
     6  C    0.417520   0.367613   0.590280   0.010362   0.006356   0.013910
     7  H    0.515021  -0.033542  -0.089012   0.004641  -0.002667   0.003069
     8  H   -0.033542   0.506125  -0.030579  -0.006665   0.013359   0.000069
     9  C   -0.089012  -0.030579   5.272937   0.316517  -0.002923  -0.091260
    10  H    0.004641  -0.006665   0.316517   0.534568  -0.054661   0.004032
    11  C   -0.002667   0.013359  -0.002923  -0.054661   5.783541   0.410067
    12  H    0.003069   0.000069  -0.091260   0.004032   0.410067   0.521213
    13  H    0.000099  -0.000140  -0.053550  -0.003545   0.431488  -0.031112
    14  H   -0.000124  -0.000001   0.021975  -0.000013  -0.017599   0.001590
              13         14
     1  C   -0.067992  -0.155887
     2  H   -0.003133   0.003643
     3  H   -0.003786   0.002065
     4  C    0.005847   0.429177
     5  O    0.000245  -0.069313
     6  C   -0.002902  -0.001887
     7  H    0.000099  -0.000124
     8  H   -0.000140  -0.000001
     9  C   -0.053550   0.021975
    10  H   -0.003545  -0.000013
    11  C    0.431488  -0.017599
    12  H   -0.031112   0.001590
    13  H    0.517313  -0.000263
    14  H   -0.000263   0.627803
 Mulliken charges:
               1
     1  C   -0.442949
     2  H    0.232079
     3  H    0.202283
     4  C    0.095331
     5  O   -0.328006
     6  C   -0.453706
     7  H    0.180295
     8  H    0.183636
     9  C    0.092717
    10  H    0.177723
    11  C   -0.519782
    12  H    0.210111
    13  H    0.211432
    14  H    0.158834
 Sum of Mulliken charges =  -0.00000
 Mulliken charges with hydrogens summed into heavy atoms:
               1
     1  C   -0.008586
     4  C    0.254165
     5  O   -0.328006
     6  C   -0.089774
     9  C    0.270440
    11  C   -0.098239
 APT charges:
               1
     1  C   -0.862823
     2  H    0.416470
     3  H    0.515996
     4  C   -0.261396
     5  O   -0.307166
     6  C   -0.901119
     7  H    0.351915
     8  H    0.605878
     9  C   -0.396677
    10  H    0.470249
    11  C   -1.003050
    12  H    0.394829
    13  H    0.544789
    14  H    0.432106
 Sum of APT charges =  -0.00000
 APT charges with hydrogens summed into heavy atoms:
               1
     1  C    0.069643
     4  C    0.170710
     5  O   -0.307166
     6  C    0.056673
     9  C    0.073572
    11  C   -0.063432
 Electronic spatial extent (au):  <R**2>=            611.2338
 Charge=             -0.0000 electrons
 Dipole moment (field-independent basis, Debye):
    X=             -0.3399    Y=              2.6899    Z=              0.8864  Tot=              2.8525
 Quadrupole moment (field-independent basis, Debye-Ang):
   XX=            -37.1869   YY=            -40.5267   ZZ=            -36.1461
   XY=             -3.8665   XZ=             -2.1190   YZ=             -2.1026
 Traceless Quadrupole moment (field-independent basis, Debye-Ang):
   XX=              0.7663   YY=             -2.5734   ZZ=              1.8071
   XY=             -3.8665   XZ=             -2.1190   YZ=             -2.1026
 Octapole moment (field-independent basis, Debye-Ang**2):
  XXX=            -16.0607  YYY=              0.5768  ZZZ=             -2.3005  XYY=              2.9498
  XXY=             -5.4268  XXZ=             -2.4391  XZZ=             -2.3455  YZZ=             -2.5993
  YYZ=              0.4129  XYZ=              0.3665
 Hexadecapole moment (field-independent basis, Debye-Ang**3):
 XXXX=           -468.4780 YYYY=           -293.7491 ZZZZ=            -92.2554 XXXY=            -21.5979
 XXXZ=            -15.1439 YYYX=            -15.9139 YYYZ=             -1.7468 ZZZX=             -2.9792
 ZZZY=             -3.0234 XXYY=           -124.3723 XXZZ=            -89.5802 YYZZ=            -63.9401
 XXYZ=             -1.8152 YYXZ=             -3.0593 ZZXY=             -1.9177
 N-N= 2.235168776596D+02 E-N=-1.075515770593D+03  KE= 2.678407096650D+02
  Exact polarizability:   0.000   0.000   0.000   0.000   0.000   0.000
 Approx polarizability:  77.220 -13.309 103.222  -2.048  -2.691  81.193
 No NMR shielding tensors so no spin-rotation constants.
 Leave Link  601 at Wed Oct 16 02:48:51 2019, MaxMem=   280000000 cpu:               2.7 elap:               0.1
 (Enter /home/soft/g16/l9999.exe)

 This type of calculation cannot be archived.


 HIGGLEDY-PIGGLEDY
 NIC'LAUS COPERNICUS
 LOOKED AT THE UNIVERSE,
 SPOKE TO THE THRONG;
 GIVE UP YOUR PTOLOMY,
 RISE UP AND FOLLOW ME,
 HELIOCENTRICALLY
 PTOLEMY'S WRONG.
   -- NANCY L. STARK
 Job cpu time:       0 days  2 hours 17 minutes 11.9 seconds.
 Elapsed time:       0 days  0 hours  6 minutes  9.8 seconds.
 File lengths (MBytes):  RWF=    332 Int=      0 D2E=      0 Chk=      8 Scr=      8
 Normal termination of Gaussian 16 at Wed Oct 16 02:48:51 2019.
