 Entering Gaussian System, Link 0=g16
 Input=ircb2.gjf
 Output=ircb2.log
 Initial command:
 /home/soft/g16/l1.exe "/tmp/gaussian/Gau-181599.inp" -scrdir="/tmp/gaussian/"
 Entering Link 1 = /home/soft/g16/l1.exe PID=    181600.
  
 Copyright (c) 1988,1990,1992,1993,1995,1998,2003,2009,2016,
            Gaussian, Inc.  All Rights Reserved.
  
 This is part of the Gaussian(R) 16 program.  It is based on
 the Gaussian(R) 09 system (copyright 2009, Gaussian, Inc.),
 the Gaussian(R) 03 system (copyright 2003, Gaussian, Inc.),
 the Gaussian(R) 98 system (copyright 1998, Gaussian, Inc.),
 the Gaussian(R) 94 system (copyright 1995, Gaussian, Inc.),
 the Gaussian 92(TM) system (copyright 1992, Gaussian, Inc.),
 the Gaussian 90(TM) system (copyright 1990, Gaussian, Inc.),
 the Gaussian 88(TM) system (copyright 1988, Gaussian, Inc.),
 the Gaussian 86(TM) system (copyright 1986, Carnegie Mellon
 University), and the Gaussian 82(TM) system (copyright 1983,
 Carnegie Mellon University). Gaussian is a federally registered
 trademark of Gaussian, Inc.
  
 This software contains proprietary and confidential information,
 including trade secrets, belonging to Gaussian, Inc.
  
 This software is provided under written license and may be
 used, copied, transmitted, or stored only in accord with that
 written license.
  
 The following legend is applicable only to US Government
 contracts under FAR:
  
                    RESTRICTED RIGHTS LEGEND
  
 Use, reproduction and disclosure by the US Government is
 subject to restrictions as set forth in subparagraphs (a)
 and (c) of the Commercial Computer Software - Restricted
 Rights clause in FAR 52.227-19.
  
 Gaussian, Inc.
 340 Quinnipiac St., Bldg. 40, Wallingford CT 06492
  
  
 ---------------------------------------------------------------
 Warning -- This program may not be used in any manner that
 competes with the business of Gaussian, Inc. or will provide
 assistance to any competitor of Gaussian, Inc.  The licensee
 of this program is prohibited from giving any competitor of
 Gaussian, Inc. access to this program.  By using this program,
 the user acknowledges that Gaussian, Inc. is engaged in the
 business of creating and licensing software in the field of
 computational chemistry and represents and warrants to the
 licensee that it is not a competitor of Gaussian, Inc. and that
 it will not use this program in any manner prohibited above.
 ---------------------------------------------------------------
  

 Cite this work as:
 Gaussian 16, Revision A.03,
 M. J. Frisch, G. W. Trucks, H. B. Schlegel, G. E. Scuseria, 
 M. A. Robb, J. R. Cheeseman, G. Scalmani, V. Barone, 
 G. A. Petersson, H. Nakatsuji, X. Li, M. Caricato, A. V. Marenich, 
 J. Bloino, B. G. Janesko, R. Gomperts, B. Mennucci, H. P. Hratchian, 
 J. V. Ortiz, A. F. Izmaylov, J. L. Sonnenberg, D. Williams-Young, 
 F. Ding, F. Lipparini, F. Egidi, J. Goings, B. Peng, A. Petrone, 
 T. Henderson, D. Ranasinghe, V. G. Zakrzewski, J. Gao, N. Rega, 
 G. Zheng, W. Liang, M. Hada, M. Ehara, K. Toyota, R. Fukuda, 
 J. Hasegawa, M. Ishida, T. Nakajima, Y. Honda, O. Kitao, H. Nakai, 
 T. Vreven, K. Throssell, J. A. Montgomery, Jr., J. E. Peralta, 
 F. Ogliaro, M. J. Bearpark, J. J. Heyd, E. N. Brothers, K. N. Kudin, 
 V. N. Staroverov, T. A. Keith, R. Kobayashi, J. Normand, 
 K. Raghavachari, A. P. Rendell, J. C. Burant, S. S. Iyengar, 
 J. Tomasi, M. Cossi, J. M. Millam, M. Klene, C. Adamo, R. Cammi, 
 J. W. Ochterski, R. L. Martin, K. Morokuma, O. Farkas, 
 J. B. Foresman, and D. J. Fox, Gaussian, Inc., Wallingford CT, 2016.
 
 ******************************************
 Gaussian 16:  ES64L-G16RevA.03 25-Dec-2016
                15-Oct-2019 
 ******************************************
 %chk=ircb2.chk
 %nprocshared=24
 Will use up to   24 processors via shared memory.
 -------------------------------------------
 #p irc=(calcfc,maxpoint=30) b3lyp/6-31+g(d)
 -------------------------------------------
 1/10=4,18=10,26=3,38=1,42=30,44=3,172=1/1,23;
 2/12=2,17=6,18=5,29=1,40=1/2;
 3/5=1,6=6,7=11,11=2,25=1,30=1,71=2,74=-5,140=1/1,2,3;
 4//1;
 5/5=2,38=5/2;
 8/6=4,10=90,11=11/1;
 11/6=1,8=1,9=11,15=111,16=1/1,2,10;
 10/6=1,13=1/2;
 6/7=2,8=2,9=2,10=2,28=1/1;
 7/10=1,18=20,25=1/1,2,3,16;
 1/10=4,18=10,26=3,42=30,44=3/23(2);
 2/29=1/2;
 99/5=20/99;
 2/29=1/2;
 3/5=1,6=6,7=11,11=2,25=1,30=1,71=2,74=-5,140=1/1,2,3;
 4/5=5,16=3,69=1/1;
 5/5=2,38=5/2;
 8/6=4,10=90,11=11/1;
 11/6=1,8=1,9=11,15=111,16=1/1,2,10;
 10/6=1,13=1/2;
 7/10=1,18=20,25=1/1,2,3,16;
 1/18=10,26=3,42=30,44=3/23(-8);
 2/29=1/2;
 6/7=2,8=2,9=2,10=2,19=2,28=1/1;
 99/5=20,9=1/99;
 Leave Link    1 at Tue Oct 15 11:21:57 2019, MaxMem=           0 cpu:               3.2 elap:               0.2
 (Enter /home/soft/g16/l101.exe)
 -------------------
 Title Card Required
 -------------------
 Symbolic Z-matrix:
 Charge =  0 Multiplicity = 1
 C                     1.13434  -0.84514   0.26181 
 H                     1.21044  -0.89019   1.36127 
 H                     1.91378  -1.50879  -0.12895 
 C                    -0.17352  -1.31759  -0.21264 
 O                    -1.31051  -0.66992   0.01998 
 C                    -1.22702   0.76364   0.09335 
 H                    -1.98636   1.06952  -0.63909 
 H                    -1.64139   1.02253   1.0853 
 C                     0.09134   1.38509  -0.14314 
 H                     0.11272   2.42958   0.16591 
 C                     1.37904   0.65306  -0.14016 
 H                     1.87074   0.6034   -1.12118 
 H                     2.11887   1.12802   0.53213 
 H                    -0.33977  -2.32904  -0.57054 
 
 ITRead=  0  0  0  0  0  0  0  0  0  0  0  0  0  0
 MicOpt= -1 -1 -1 -1 -1 -1 -1 -1 -1 -1 -1 -1 -1 -1
 NAtoms=     14 NQM=       14 NQMF=       0 NMMI=      0 NMMIF=      0
                NMic=       0 NMicF=      0.
                    Isotopes and Nuclear Properties:
 (Nuclear quadrupole moments (NQMom) in fm**2, nuclear magnetic moments (NMagM)
  in nuclear magnetons)

  Atom         1           2           3           4           5           6           7           8           9          10
 IAtWgt=          12           1           1          12          16          12           1           1          12           1
 AtmWgt=  12.0000000   1.0078250   1.0078250  12.0000000  15.9949146  12.0000000   1.0078250   1.0078250  12.0000000   1.0078250
 NucSpn=           0           1           1           0           0           0           1           1           0           1
 AtZEff=  -0.0000000  -0.0000000  -0.0000000  -0.0000000  -0.0000000  -0.0000000  -0.0000000  -0.0000000  -0.0000000  -0.0000000
 NQMom=    0.0000000   0.0000000   0.0000000   0.0000000   0.0000000   0.0000000   0.0000000   0.0000000   0.0000000   0.0000000
 NMagM=    0.0000000   2.7928460   2.7928460   0.0000000   0.0000000   0.0000000   2.7928460   2.7928460   0.0000000   2.7928460
 AtZNuc=   6.0000000   1.0000000   1.0000000   6.0000000   8.0000000   6.0000000   1.0000000   1.0000000   6.0000000   1.0000000

  Atom        11          12          13          14
 IAtWgt=          12           1           1           1
 AtmWgt=  12.0000000   1.0078250   1.0078250   1.0078250
 NucSpn=           0           1           1           1
 AtZEff=  -0.0000000  -0.0000000  -0.0000000  -0.0000000
 NQMom=    0.0000000   0.0000000   0.0000000   0.0000000
 NMagM=    0.0000000   2.7928460   2.7928460   2.7928460
 AtZNuc=   6.0000000   1.0000000   1.0000000   1.0000000
 Leave Link  101 at Tue Oct 15 11:21:57 2019, MaxMem=   280000000 cpu:               3.1 elap:               0.2
 (Enter /home/soft/g16/l123.exe)
 IRC-IRC-IRC-IRC-IRC-IRC-IRC-IRC-IRC-IRC-IRC-IRC-IRC-IRC-IRC-IRC-IRC-IRC
 ------------------------------------------------------------------------
 INPUT DATA FOR L123
 ------------------------------------------------------------------------
 GENERAL PARAMETERS:
 Follow reaction path in both directions.
 Maximum points per path      =  30
 Step size                    =   0.100 bohr
 Integration scheme           = HPC                                 
    Redo corrector integration= Yes                                 
    DWI Weight Power          =  2
    DWI will use Hessian update vectors when possible.
    Max correction cycles     =  20
 Initial Hessian              = CalcFC
 Hessian evaluation           = All updating
 Hessian updating method      = Bofill                              
 ------------------------------------------------------------------------
 IRC-IRC-IRC-IRC-IRC-IRC-IRC-IRC-IRC-IRC-IRC-IRC-IRC-IRC-IRC-IRC-IRC-IRC
 Leave Link  123 at Tue Oct 15 11:21:57 2019, MaxMem=   280000000 cpu:               0.8 elap:               0.1
 (Enter /home/soft/g16/l202.exe)
                          Input orientation:                          
 ---------------------------------------------------------------------
 Center     Atomic      Atomic             Coordinates (Angstroms)
 Number     Number       Type             X           Y           Z
 ---------------------------------------------------------------------
      1          6           0        1.134344   -0.845141    0.261807
      2          1           0        1.210444   -0.890194    1.361274
      3          1           0        1.913778   -1.508789   -0.128951
      4          6           0       -0.173519   -1.317590   -0.212639
      5          8           0       -1.310511   -0.669922    0.019977
      6          6           0       -1.227023    0.763644    0.093352
      7          1           0       -1.986364    1.069522   -0.639085
      8          1           0       -1.641393    1.022528    1.085302
      9          6           0        0.091336    1.385089   -0.143136
     10          1           0        0.112715    2.429583    0.165907
     11          6           0        1.379037    0.653058   -0.140161
     12          1           0        1.870744    0.603397   -1.121181
     13          1           0        2.118870    1.128016    0.532126
     14          1           0       -0.339765   -2.329042   -0.570541
 ---------------------------------------------------------------------
                    Distance matrix (angstroms):
                    1          2          3          4          5
     1  C    0.000000
     2  H    1.103018   0.000000
     3  H    1.095736   1.760145   0.000000
     4  C    1.469290   2.138977   2.097706   0.000000
     5  O    2.463026   2.864055   3.334954   1.329035   0.000000
     6  C    2.862275   3.206876   3.883040   2.352666   1.437868
     7  H    3.770459   4.249883   4.703087   3.027634   1.979092
     8  H    3.445439   3.444944   4.530035   3.052123   2.027014
     9  C    2.495149   2.948316   3.419945   2.716515   2.492960
    10  H    3.431725   3.695244   4.340685   3.777106   3.413766
    11  C    1.570367   2.159712   2.227029   2.509808   3.001598
    12  H    2.133824   2.971429   2.334031   2.948669   3.611643
    13  H    2.221646   2.363450   2.726138   3.433760   3.905833
    14  H    2.251169   2.864497   2.438498   1.085710   2.010905
                    6          7          8          9         10
     6  C    0.000000
     7  H    1.098464   0.000000
     8  H    1.105752   1.759183   0.000000
     9  C    1.476547   2.159256   2.154730   0.000000
    10  H    2.139045   2.627529   2.429400   1.089464   0.000000
    11  C    2.618837   3.427578   3.280437   1.481233   2.203018
    12  H    3.331205   3.914968   4.168854   2.175754   2.842924
    13  H    3.394155   4.269438   3.802198   2.152431   2.419267
    14  H    3.285223   3.777066   3.958418   3.763415   4.836487
                   11         12         13         14
    11  C    0.000000
    12  H    1.098473   0.000000
    13  H    1.106756   1.752203   0.000000
    14  H    3.468779   3.713321   4.383151   0.000000
 Symmetry turned off by external request.
 Stoichiometry    C5H8O
 Framework group  C1[X(C5H8O)]
 Deg. of freedom    36
 Full point group                 C1      NOp   1
 Rotational constants (GHZ):           5.2235702           4.5059922           2.6017183
 Leave Link  202 at Tue Oct 15 11:21:57 2019, MaxMem=   280000000 cpu:               1.1 elap:               0.1
 (Enter /home/soft/g16/l301.exe)
 Standard basis: 6-31+G(d) (6D, 7F)
 Ernie: Thresh=  0.10000D-02 Tol=  0.10000D-05 Strict=F.
   130 basis functions,   224 primitive gaussians,   130 cartesian basis functions
    23 alpha electrons       23 beta electrons
       nuclear repulsion energy       238.4421270143 Hartrees.
 IExCor=  402 DFT=T Ex+Corr=B3LYP ExCW=0 ScaHFX=  0.200000
 ScaDFX=  0.800000  0.720000  1.000000  0.810000 ScalE2=  1.000000  1.000000
 IRadAn=      5 IRanWt=     -1 IRanGd=            0 ICorTp=0 IEmpDi=  4
 NAtoms=   14 NActive=   14 NUniq=   14 SFac= 1.00D+00 NAtFMM=   60 NAOKFM=F Big=F
 Integral buffers will be    131072 words long.
 Raffenetti 2 integral format.
 Two-electron integral symmetry is turned off.
 Leave Link  301 at Tue Oct 15 11:21:57 2019, MaxMem=   280000000 cpu:               2.3 elap:               0.1
 (Enter /home/soft/g16/l302.exe)
 NPDir=0 NMtPBC=     1 NCelOv=     1 NCel=       1 NClECP=     1 NCelD=      1
         NCelK=      1 NCelE2=     1 NClLst=     1 CellRange=     0.0.
 One-electron integrals computed using PRISM.
 NBasis=   130 RedAO= T EigKep=  4.02D-05  NBF=   130
 NBsUse=   130 1.00D-06 EigRej= -1.00D+00 NBFU=   130
 Precomputing XC quadrature grid using
 IXCGrd= 4 IRadAn=           5 IRanWt=          -1 IRanGd=           0 AccXCQ= 0.00D+00.
 Generated NRdTot=       0 NPtTot=           0 NUsed=           0 NTot=          32
 NSgBfM=   130   130   130   130   130 MxSgAt=    14 MxSgA2=    14.
 Leave Link  302 at Tue Oct 15 11:21:58 2019, MaxMem=   280000000 cpu:               5.1 elap:               0.3
 (Enter /home/soft/g16/l303.exe)
 DipDrv:  MaxL=1.
 Leave Link  303 at Tue Oct 15 11:21:58 2019, MaxMem=   280000000 cpu:               0.7 elap:               0.0
 (Enter /home/soft/g16/l401.exe)
 ExpMin= 4.38D-02 ExpMax= 5.48D+03 ExpMxC= 8.25D+02 IAcc=3 IRadAn=         5 AccDes= 0.00D+00
 Harris functional with IExCor=  402 and IRadAn=       5 diagonalized for initial guess.
 HarFok:  IExCor=  402 AccDes= 0.00D+00 IRadAn=         5 IDoV= 1 UseB2=F ITyADJ=14
 ICtDFT=  3500011 ScaDFX=  1.000000  1.000000  1.000000  1.000000
 FoFCou: FMM=F IPFlag=           0 FMFlag=      100000 FMFlg1=           0
         NFxFlg=           0 DoJE=T BraDBF=F KetDBF=T FulRan=T
         wScrn=  0.000000 ICntrl=       500 IOpCl=  0 I1Cent=   200000004 NGrid=           0
         NMat0=    1 NMatS0=      1 NMatT0=    0 NMatD0=    1 NMtDS0=    0 NMtDT0=    0
 Symmetry not used in FoFCou.
 Harris En= -270.463136173439    
 JPrj=0 DoOrth=F DoCkMO=F.
 Leave Link  401 at Tue Oct 15 11:21:58 2019, MaxMem=   280000000 cpu:               8.8 elap:               0.4
 (Enter /home/soft/g16/l502.exe)
 Two-electron integral symmetry not used.
 Closed shell SCF:
 Using DIIS extrapolation, IDIIS=  1040.
 NGot=   280000000 LenX=   279961824 LenY=   279944483
 Requested convergence on RMS density matrix=1.00D-08 within 128 cycles.
 Requested convergence on MAX density matrix=1.00D-06.
 Requested convergence on             energy=1.00D-06.
 No special actions if energy rises.
 Fock matrices will be formed incrementally for  20 cycles.

 Cycle   1  Pass 1  IDiag  1:
 FoFJK:  IHMeth= 1 ICntrl=       0 DoSepK=F KAlg= 0 I1Cent=           0 FoldK=F
 IRaf= 990000000 NMat=       1 IRICut=       1 DoRegI=T DoRafI=F ISym2E= 0 IDoP0=0 IntGTp=1.
 FoFCou: FMM=F IPFlag=           0 FMFlag=      100000 FMFlg1=           0
         NFxFlg=           0 DoJE=F BraDBF=F KetDBF=F FulRan=T
         wScrn=  0.000000 ICntrl=         0 IOpCl=  0 I1Cent=           0 NGrid=           0
         NMat0=    1 NMatS0=      1 NMatT0=    0 NMatD0=    1 NMtDS0=    0 NMtDT0=    0
 Symmetry not used in FoFCou.
 E= -270.161291066806    
 DIIS: error= 2.43D-02 at cycle   1 NSaved=   1.
 NSaved= 1 IEnMin= 1 EnMin= -270.161291066806     IErMin= 1 ErrMin= 2.43D-02
 ErrMax= 2.43D-02  0.00D+00 EMaxC= 1.00D-01 BMatC= 2.16D-01 BMatP= 2.16D-01
 IDIUse=3 WtCom= 7.57D-01 WtEn= 2.43D-01
 Coeff-Com:  0.100D+01
 Coeff-En:   0.100D+01
 Coeff:      0.100D+01
 Gap=    -0.201 Goal=   None    Shift=    0.000
 GapD=   -0.201 DampG=0.250 DampE=0.500 DampFc=0.2500 IDamp=-1.
 Damping current iteration by 2.50D-01
 RMSDP=2.30D-02 MaxDP=4.56D-01              OVMax= 7.04D-01

 Cycle   2  Pass 1  IDiag  1:
 RMSU=  5.69D-03    CP:  9.73D-01
 E= -270.273867400227     Delta-E=       -0.112576333421 Rises=F Damp=T
 DIIS: error= 1.17D-02 at cycle   2 NSaved=   2.
 NSaved= 2 IEnMin= 2 EnMin= -270.273867400227     IErMin= 2 ErrMin= 1.17D-02
 ErrMax= 1.17D-02  0.00D+00 EMaxC= 1.00D-01 BMatC= 3.85D-02 BMatP= 2.16D-01
 IDIUse=3 WtCom= 8.83D-01 WtEn= 1.17D-01
 Coeff-Com: -0.232D+00 0.123D+01
 Coeff-En:   0.226D-01 0.977D+00
 Coeff:     -0.202D+00 0.120D+01
 Gap=     0.311 Goal=   None    Shift=    0.000
 RMSDP=1.36D-02 MaxDP=3.19D-01 DE=-1.13D-01 OVMax= 8.95D-01

 Cycle   3  Pass 1  IDiag  1:
 RMSU=  1.22D-02    CP:  1.03D+00 -2.24D-02
 E= -270.328530495847     Delta-E=       -0.054663095620 Rises=F Damp=F
 DIIS: error= 1.53D-02 at cycle   3 NSaved=   3.
 NSaved= 3 IEnMin= 3 EnMin= -270.328530495847     IErMin= 2 ErrMin= 1.17D-02
 ErrMax= 1.53D-02  0.00D+00 EMaxC= 1.00D-01 BMatC= 7.51D-02 BMatP= 3.85D-02
 IDIUse=2 WtCom= 0.00D+00 WtEn= 1.00D+00
 Coeff-En:   0.000D+00 0.252D+00 0.748D+00
 Coeff:      0.000D+00 0.252D+00 0.748D+00
 Gap=    -0.062 Goal=   None    Shift=    0.000
 RMSDP=1.99D-02 MaxDP=3.67D-01 DE=-5.47D-02 OVMax= 8.61D-01

 Cycle   4  Pass 1  IDiag  1:
 RMSU=  8.94D-03    CP:  8.51D-01  1.69D+00 -1.41D-01
 E= -269.727885412841     Delta-E=        0.600645083006 Rises=F Damp=F
 DIIS: error= 4.79D-02 at cycle   4 NSaved=   4.
 NSaved= 4 IEnMin= 3 EnMin= -270.328530495847     IErMin= 2 ErrMin= 1.17D-02
 ErrMax= 4.79D-02  0.00D+00 EMaxC= 1.00D-01 BMatC= 4.96D-01 BMatP= 3.85D-02
 IDIUse=2 WtCom= 0.00D+00 WtEn= 1.00D+00
 Coeff-En:   0.000D+00 0.000D+00 0.778D+00 0.222D+00
 Coeff:      0.000D+00 0.000D+00 0.778D+00 0.222D+00
 Gap=     0.037 Goal=   None    Shift=    0.000
 RMSDP=1.28D-02 MaxDP=2.74D-01 DE= 6.01D-01 OVMax= 4.93D-01

 Cycle   5  Pass 1  IDiag  1:
 RMSU=  5.21D-03    CP:  9.43D-01  3.09D-01  5.27D-01  8.89D-01
 E= -270.352508935060     Delta-E=       -0.624623522219 Rises=F Damp=F
 DIIS: error= 1.63D-02 at cycle   5 NSaved=   5.
 NSaved= 5 IEnMin= 5 EnMin= -270.352508935060     IErMin= 2 ErrMin= 1.17D-02
 ErrMax= 1.63D-02  0.00D+00 EMaxC= 1.00D-01 BMatC= 6.35D-02 BMatP= 3.85D-02
 IDIUse=2 WtCom= 0.00D+00 WtEn= 1.00D+00
 Coeff-En:   0.000D+00 0.000D+00 0.458D+00 0.000D+00 0.542D+00
 Coeff:      0.000D+00 0.000D+00 0.458D+00 0.000D+00 0.542D+00
 Gap=     0.057 Goal=   None    Shift=    0.000
 RMSDP=6.54D-03 MaxDP=1.49D-01 DE=-6.25D-01 OVMax= 3.00D-01

 Cycle   6  Pass 1  IDiag  1:
 RMSU=  9.57D-04    CP:  9.98D-01 -6.64D-02  8.20D-01  4.12D-01  6.29D-01
 E= -270.425420626479     Delta-E=       -0.072911691418 Rises=F Damp=F
 DIIS: error= 4.47D-03 at cycle   6 NSaved=   6.
 NSaved= 6 IEnMin= 6 EnMin= -270.425420626479     IErMin= 6 ErrMin= 4.47D-03
 ErrMax= 4.47D-03  0.00D+00 EMaxC= 1.00D-01 BMatC= 3.96D-03 BMatP= 3.85D-02
 IDIUse=3 WtCom= 9.55D-01 WtEn= 4.47D-02
 Coeff-Com: -0.101D+00 0.139D+00 0.843D-01-0.274D-01 0.217D+00 0.688D+00
 Coeff-En:   0.000D+00 0.000D+00 0.000D+00 0.000D+00 0.138D+00 0.862D+00
 Coeff:     -0.966D-01 0.133D+00 0.806D-01-0.262D-01 0.214D+00 0.696D+00
 Gap=     0.067 Goal=   None    Shift=    0.000
 RMSDP=2.57D-03 MaxDP=8.17D-02 DE=-7.29D-02 OVMax= 1.06D-01

 Cycle   7  Pass 1  IDiag  1:
 RMSU=  7.01D-04    CP:  9.88D-01  1.74D-02  8.61D-01  6.08D-01  9.22D-01
                    CP:  6.36D-01
 E= -270.429178581816     Delta-E=       -0.003757955337 Rises=F Damp=F
 DIIS: error= 2.74D-03 at cycle   7 NSaved=   7.
 NSaved= 7 IEnMin= 7 EnMin= -270.429178581816     IErMin= 7 ErrMin= 2.74D-03
 ErrMax= 2.74D-03  0.00D+00 EMaxC= 1.00D-01 BMatC= 1.39D-03 BMatP= 3.96D-03
 IDIUse=3 WtCom= 9.73D-01 WtEn= 2.74D-02
 Coeff-Com: -0.428D-01 0.487D-01 0.978D-02-0.109D-01 0.638D-01 0.518D+00
 Coeff-Com:  0.413D+00
 Coeff-En:   0.000D+00 0.000D+00 0.000D+00 0.000D+00 0.000D+00 0.331D+00
 Coeff-En:   0.669D+00
 Coeff:     -0.417D-01 0.474D-01 0.951D-02-0.106D-01 0.620D-01 0.513D+00
 Coeff:      0.420D+00
 Gap=     0.070 Goal=   None    Shift=    0.000
 RMSDP=6.80D-04 MaxDP=1.67D-02 DE=-3.76D-03 OVMax= 2.67D-02

 Cycle   8  Pass 1  IDiag  1:
 RMSU=  1.67D-04    CP:  9.93D-01 -1.87D-02  8.74D-01  5.55D-01  8.64D-01
                    CP:  7.85D-01  8.62D-01
 E= -270.430820261546     Delta-E=       -0.001641679730 Rises=F Damp=F
 DIIS: error= 5.84D-04 at cycle   8 NSaved=   8.
 NSaved= 8 IEnMin= 8 EnMin= -270.430820261546     IErMin= 8 ErrMin= 5.84D-04
 ErrMax= 5.84D-04  0.00D+00 EMaxC= 1.00D-01 BMatC= 9.54D-05 BMatP= 1.39D-03
 IDIUse=3 WtCom= 9.94D-01 WtEn= 5.84D-03
 Coeff-Com: -0.721D-02 0.719D-02-0.185D-02-0.233D-02-0.692D-04 0.213D+00
 Coeff-Com:  0.188D+00 0.603D+00
 Coeff-En:   0.000D+00 0.000D+00 0.000D+00 0.000D+00 0.000D+00 0.479D-01
 Coeff-En:   0.000D+00 0.952D+00
 Coeff:     -0.717D-02 0.715D-02-0.184D-02-0.232D-02-0.688D-04 0.212D+00
 Coeff:      0.187D+00 0.605D+00
 Gap=     0.071 Goal=   None    Shift=    0.000
 RMSDP=1.16D-04 MaxDP=3.24D-03 DE=-1.64D-03 OVMax= 4.80D-03

 Cycle   9  Pass 1  IDiag  1:
 RMSU=  4.15D-05    CP:  9.93D-01 -2.40D-02  8.72D-01  5.47D-01  8.53D-01
                    CP:  8.07D-01  8.26D-01  9.27D-01
 E= -270.430913033532     Delta-E=       -0.000092771986 Rises=F Damp=F
 DIIS: error= 2.95D-04 at cycle   9 NSaved=   9.
 NSaved= 9 IEnMin= 9 EnMin= -270.430913033532     IErMin= 9 ErrMin= 2.95D-04
 ErrMax= 2.95D-04  0.00D+00 EMaxC= 1.00D-01 BMatC= 1.58D-05 BMatP= 9.54D-05
 IDIUse=3 WtCom= 9.97D-01 WtEn= 2.95D-03
 Coeff-Com:  0.235D-02-0.360D-02-0.226D-02-0.246D-05-0.100D-01 0.732D-01
 Coeff-Com:  0.497D-01 0.338D+00 0.553D+00
 Coeff-En:   0.000D+00 0.000D+00 0.000D+00 0.000D+00 0.000D+00 0.000D+00
 Coeff-En:   0.000D+00 0.000D+00 0.100D+01
 Coeff:      0.234D-02-0.358D-02-0.225D-02-0.245D-05-0.100D-01 0.730D-01
 Coeff:      0.496D-01 0.337D+00 0.554D+00
 Gap=     0.072 Goal=   None    Shift=    0.000
 RMSDP=7.55D-05 MaxDP=2.29D-03 DE=-9.28D-05 OVMax= 2.44D-03

 Cycle  10  Pass 1  IDiag  1:
 RMSU=  1.72D-05    CP:  9.94D-01 -2.83D-02  8.75D-01  5.42D-01  8.49D-01
                    CP:  8.18D-01  8.36D-01  1.03D+00  9.82D-01
 E= -270.430931077267     Delta-E=       -0.000018043735 Rises=F Damp=F
 DIIS: error= 9.12D-05 at cycle  10 NSaved=  10.
 NSaved=10 IEnMin=10 EnMin= -270.430931077267     IErMin=10 ErrMin= 9.12D-05
 ErrMax= 9.12D-05  0.00D+00 EMaxC= 1.00D-01 BMatC= 1.76D-06 BMatP= 1.58D-05
 IDIUse=1 WtCom= 1.00D+00 WtEn= 0.00D+00
 Coeff-Com:  0.175D-02-0.252D-02-0.190D-03 0.279D-03-0.265D-02 0.355D-02
 Coeff-Com: -0.105D-01-0.474D-03 0.609D-01 0.950D+00
 Coeff:      0.175D-02-0.252D-02-0.190D-03 0.279D-03-0.265D-02 0.355D-02
 Coeff:     -0.105D-01-0.474D-03 0.609D-01 0.950D+00
 Gap=     0.072 Goal=   None    Shift=    0.000
 RMSDP=2.58D-05 MaxDP=4.66D-04 DE=-1.80D-05 OVMax= 1.09D-03

 Cycle  11  Pass 1  IDiag  1:
 RMSU=  5.27D-06    CP:  9.94D-01 -2.98D-02  8.76D-01  5.39D-01  8.47D-01
                    CP:  8.20D-01  8.35D-01  1.07D+00  1.08D+00  1.11D+00
 E= -270.430933253254     Delta-E=       -0.000002175987 Rises=F Damp=F
 DIIS: error= 8.06D-06 at cycle  11 NSaved=  11.
 NSaved=11 IEnMin=11 EnMin= -270.430933253254     IErMin=11 ErrMin= 8.06D-06
 ErrMax= 8.06D-06  0.00D+00 EMaxC= 1.00D-01 BMatC= 1.46D-08 BMatP= 1.76D-06
 IDIUse=1 WtCom= 1.00D+00 WtEn= 0.00D+00
 Coeff-Com:  0.324D-03-0.429D-03 0.658D-04 0.666D-04-0.481D-03-0.431D-03
 Coeff-Com: -0.395D-02-0.104D-01-0.111D-01 0.261D+00 0.765D+00
 Coeff:      0.324D-03-0.429D-03 0.658D-04 0.666D-04-0.481D-03-0.431D-03
 Coeff:     -0.395D-02-0.104D-01-0.111D-01 0.261D+00 0.765D+00
 Gap=     0.072 Goal=   None    Shift=    0.000
 RMSDP=3.16D-06 MaxDP=6.00D-05 DE=-2.18D-06 OVMax= 1.33D-04

 Cycle  12  Pass 1  IDiag  1:
 RMSU=  1.19D-06    CP:  9.94D-01 -2.99D-02  8.76D-01  5.39D-01  8.47D-01
                    CP:  8.20D-01  8.34D-01  1.07D+00  1.08D+00  1.14D+00
                    CP:  1.06D+00
 E= -270.430933271763     Delta-E=       -0.000000018509 Rises=F Damp=F
 DIIS: error= 1.77D-06 at cycle  12 NSaved=  12.
 NSaved=12 IEnMin=12 EnMin= -270.430933271763     IErMin=12 ErrMin= 1.77D-06
 ErrMax= 1.77D-06  0.00D+00 EMaxC= 1.00D-01 BMatC= 9.96D-10 BMatP= 1.46D-08
 IDIUse=1 WtCom= 1.00D+00 WtEn= 0.00D+00
 Coeff-Com: -0.146D-04 0.299D-04 0.370D-04 0.618D-05-0.911D-04 0.748D-03
 Coeff-Com: -0.266D-04-0.197D-03-0.584D-02 0.445D-01 0.377D+00 0.584D+00
 Coeff:     -0.146D-04 0.299D-04 0.370D-04 0.618D-05-0.911D-04 0.748D-03
 Coeff:     -0.266D-04-0.197D-03-0.584D-02 0.445D-01 0.377D+00 0.584D+00
 Gap=     0.072 Goal=   None    Shift=    0.000
 RMSDP=1.49D-06 MaxDP=3.83D-05 DE=-1.85D-08 OVMax= 1.52D-05

 Cycle  13  Pass 1  IDiag  1:
 RMSU=  4.33D-07    CP:  9.94D-01 -2.99D-02  8.76D-01  5.39D-01  8.47D-01
                    CP:  8.20D-01  8.34D-01  1.07D+00  1.08D+00  1.12D+00
                    CP:  1.07D+00  9.76D-01
 E= -270.430933272747     Delta-E=       -0.000000000984 Rises=F Damp=F
 DIIS: error= 3.41D-07 at cycle  13 NSaved=  13.
 NSaved=13 IEnMin=13 EnMin= -270.430933272747     IErMin=13 ErrMin= 3.41D-07
 ErrMax= 3.41D-07  0.00D+00 EMaxC= 1.00D-01 BMatC= 3.76D-11 BMatP= 9.96D-10
 IDIUse=1 WtCom= 1.00D+00 WtEn= 0.00D+00
 Coeff-Com:  0.254D-05 0.918D-07 0.803D-05 0.238D-05-0.221D-04 0.236D-04
 Coeff-Com: -0.246D-04-0.527D-04-0.142D-02 0.543D-02 0.452D-01 0.143D+00
 Coeff-Com:  0.808D+00
 Coeff:      0.254D-05 0.918D-07 0.803D-05 0.238D-05-0.221D-04 0.236D-04
 Coeff:     -0.246D-04-0.527D-04-0.142D-02 0.543D-02 0.452D-01 0.143D+00
 Coeff:      0.808D+00
 Gap=     0.072 Goal=   None    Shift=    0.000
 RMSDP=3.10D-07 MaxDP=7.84D-06 DE=-9.84D-10 OVMax= 3.48D-06

 Cycle  14  Pass 1  IDiag  1:
 RMSU=  7.22D-08    CP:  9.94D-01 -2.99D-02  8.76D-01  5.39D-01  8.47D-01
                    CP:  8.20D-01  8.34D-01  1.07D+00  1.08D+00  1.13D+00
                    CP:  1.09D+00  1.04D+00  9.93D-01
 E= -270.430933272789     Delta-E=       -0.000000000042 Rises=F Damp=F
 DIIS: error= 7.41D-08 at cycle  14 NSaved=  14.
 NSaved=14 IEnMin=14 EnMin= -270.430933272789     IErMin=14 ErrMin= 7.41D-08
 ErrMax= 7.41D-08  0.00D+00 EMaxC= 1.00D-01 BMatC= 1.76D-12 BMatP= 3.76D-11
 IDIUse=1 WtCom= 1.00D+00 WtEn= 0.00D+00
 Coeff-Com:  0.171D-05-0.179D-05 0.133D-05 0.736D-06-0.103D-05-0.431D-04
 Coeff-Com: -0.109D-04-0.955D-04-0.291D-03-0.750D-03-0.413D-02 0.166D-01
 Coeff-Com:  0.224D+00 0.765D+00
 Coeff:      0.171D-05-0.179D-05 0.133D-05 0.736D-06-0.103D-05-0.431D-04
 Coeff:     -0.109D-04-0.955D-04-0.291D-03-0.750D-03-0.413D-02 0.166D-01
 Coeff:      0.224D+00 0.765D+00
 Gap=     0.072 Goal=   None    Shift=    0.000
 RMSDP=6.89D-08 MaxDP=1.47D-06 DE=-4.23D-11 OVMax= 1.41D-06

 Cycle  15  Pass 1  IDiag  1:
 RMSU=  1.60D-08    CP:  9.94D-01 -2.99D-02  8.76D-01  5.39D-01  8.47D-01
                    CP:  8.20D-01  8.34D-01  1.07D+00  1.08D+00  1.13D+00
                    CP:  1.09D+00  1.06D+00  1.03D+00  1.06D+00
 E= -270.430933272791     Delta-E=       -0.000000000001 Rises=F Damp=F
 DIIS: error= 2.89D-08 at cycle  15 NSaved=  15.
 NSaved=15 IEnMin=15 EnMin= -270.430933272791     IErMin=15 ErrMin= 2.89D-08
 ErrMax= 2.89D-08  0.00D+00 EMaxC= 1.00D-01 BMatC= 3.34D-13 BMatP= 1.76D-12
 IDIUse=1 WtCom= 1.00D+00 WtEn= 0.00D+00
 Coeff-Com:  0.485D-06-0.745D-06-0.167D-06 0.624D-07 0.176D-05-0.217D-04
 Coeff-Com:  0.200D-05-0.241D-04 0.287D-04-0.103D-02-0.718D-02-0.597D-02
 Coeff-Com:  0.408D-01 0.404D+00 0.569D+00
 Coeff:      0.485D-06-0.745D-06-0.167D-06 0.624D-07 0.176D-05-0.217D-04
 Coeff:      0.200D-05-0.241D-04 0.287D-04-0.103D-02-0.718D-02-0.597D-02
 Coeff:      0.408D-01 0.404D+00 0.569D+00
 Gap=     0.072 Goal=   None    Shift=    0.000
 RMSDP=1.22D-08 MaxDP=2.67D-07 DE=-1.42D-12 OVMax= 3.58D-07

 Cycle  16  Pass 1  IDiag  1:
 RMSU=  5.45D-09    CP:  9.94D-01 -2.99D-02  8.76D-01  5.39D-01  8.47D-01
                    CP:  8.20D-01  8.34D-01  1.07D+00  1.08D+00  1.13D+00
                    CP:  1.09D+00  1.06D+00  1.04D+00  1.12D+00  9.52D-01
 E= -270.430933272793     Delta-E=       -0.000000000002 Rises=F Damp=F
 DIIS: error= 8.87D-09 at cycle  16 NSaved=  16.
 NSaved=16 IEnMin=16 EnMin= -270.430933272793     IErMin=16 ErrMin= 8.87D-09
 ErrMax= 8.87D-09  0.00D+00 EMaxC= 1.00D-01 BMatC= 1.57D-14 BMatP= 3.34D-13
 IDIUse=1 WtCom= 1.00D+00 WtEn= 0.00D+00
 Coeff-Com: -0.334D-07 0.239D-07-0.138D-06-0.350D-07 0.418D-06-0.103D-05
 Coeff-Com:  0.233D-05 0.416D-05 0.334D-04-0.157D-03-0.102D-02-0.219D-02
 Coeff-Com: -0.516D-02 0.280D-01 0.104D+00 0.877D+00
 Coeff:     -0.334D-07 0.239D-07-0.138D-06-0.350D-07 0.418D-06-0.103D-05
 Coeff:      0.233D-05 0.416D-05 0.334D-04-0.157D-03-0.102D-02-0.219D-02
 Coeff:     -0.516D-02 0.280D-01 0.104D+00 0.877D+00
 Gap=     0.072 Goal=   None    Shift=    0.000
 RMSDP=5.22D-09 MaxDP=1.38D-07 DE=-2.39D-12 OVMax= 1.63D-07

 SCF Done:  E(RB3LYP) =  -270.430933273     A.U. after   16 cycles
            NFock= 16  Conv=0.52D-08     -V/T= 2.0097
 KE= 2.678239663087D+02 PE=-1.104938441016D+03 EE= 3.282414144198D+02
 Leave Link  502 at Tue Oct 15 11:22:03 2019, MaxMem=   280000000 cpu:             117.7 elap:               5.0
 (Enter /home/soft/g16/l801.exe)
 DoSCS=F DFT=T ScalE2(SS,OS)=  1.000000  1.000000
 Range of M.O.s used for correlation:     1   130
 NBasis=   130 NAE=    23 NBE=    23 NFC=     0 NFV=     0
 NROrb=    130 NOA=    23 NOB=    23 NVA=   107 NVB=   107

 **** Warning!!: The largest alpha MO coefficient is  0.68165140D+02


 **** Warning!!: The smallest alpha delta epsilon is  0.71555958D-01

 Leave Link  801 at Tue Oct 15 11:22:03 2019, MaxMem=   280000000 cpu:               0.4 elap:               0.0
 (Enter /home/soft/g16/l1101.exe)
 Using compressed storage, NAtomX=    14.
 Will process     15 centers per pass.
 Leave Link 1101 at Tue Oct 15 11:22:03 2019, MaxMem=   280000000 cpu:               3.9 elap:               0.3
 (Enter /home/soft/g16/l1102.exe)
 Symmetrizing basis deriv contribution to polar:
 IMax=3 JMax=2 DiffMx= 0.00D+00
 Leave Link 1102 at Tue Oct 15 11:22:03 2019, MaxMem=   280000000 cpu:               1.0 elap:               0.1
 (Enter /home/soft/g16/l1110.exe)
 Forming Gx(P) for the SCF density, NAtomX=    14.
 Integral derivatives from FoFJK, PRISM(SPDF).
 Do as many integral derivatives as possible in FoFJK.
 G2DrvN: MDV=     279998856.
 G2DrvN: will do    15 centers at a time, making    1 passes.
 Calling FoFCou, ICntrl=  3107 FMM=F I1Cent=   0 AccDes= 0.00D+00.
 FoFJK:  IHMeth= 1 ICntrl=    3107 DoSepK=F KAlg= 0 I1Cent=           0 FoldK=F
 IRaf=         0 NMat=       1 IRICut=       1 DoRegI=T DoRafI=F ISym2E= 0 IDoP0=0 IntGTp=1.
 FoFCou: FMM=F IPFlag=           0 FMFlag=      100000 FMFlg1=           0
         NFxFlg=           0 DoJE=F BraDBF=F KetDBF=F FulRan=T
         wScrn=  0.000000 ICntrl=      3107 IOpCl=  0 I1Cent=           0 NGrid=           0
         NMat0=    1 NMatS0=      1 NMatT0=    0 NMatD0=    1 NMtDS0=    0 NMtDT0=    0
 Symmetry not used in FoFCou.
 End of G2Drv F.D. properties file   721 does not exist.
 End of G2Drv F.D. properties file   722 does not exist.
 End of G2Drv F.D. properties file   788 does not exist.
 Leave Link 1110 at Tue Oct 15 11:22:09 2019, MaxMem=   280000000 cpu:             133.2 elap:               5.6
 (Enter /home/soft/g16/l1002.exe)
 Minotr:  Closed shell wavefunction.
          IDoAtm=11111111111111
          Direct CPHF calculation.
          Differentiating once with respect to nuclear coordinates.
          Requested convergence is 1.0D-08 RMS, and 1.0D-07 maximum.
          Secondary convergence is 1.0D-12 RMS, and 1.0D-12 maximum.
          NewPWx=T KeepS1=F KeepF1=F KeepIn=T MapXYZ=F SortEE=F KeepMc=T.
         4236 words used for storage of precomputed grid.
 Keep R1 ints in memory in canonical form, NReq=59093990.
 FoFCou: FMM=F IPFlag=           0 FMFlag=           0 FMFlg1=           0
         NFxFlg=           0 DoJE=F BraDBF=F KetDBF=F FulRan=T
         wScrn=  0.000000 ICntrl=       600 IOpCl=  0 I1Cent=           0 NGrid=           0
         NMat0=    1 NMatS0=   8515 NMatT0=    0 NMatD0=    1 NMtDS0=    0 NMtDT0=    0
 Symmetry not used in FoFCou.
 Two-electron integral symmetry not used.
          MDV=     280000000 using IRadAn=       1.
          Solving linear equations simultaneously, MaxMat=       0.
          There are    45 degrees of freedom in the 1st order CPHF.  IDoFFX=6 NUNeed=     0.
     39 vectors produced by pass  0 Test12= 5.47D-15 2.22D-09 XBig12= 1.33D-01 1.72D-01.
 AX will form    39 AO Fock derivatives at one time.
     39 vectors produced by pass  1 Test12= 5.47D-15 2.22D-09 XBig12= 9.24D-02 9.33D-02.
     39 vectors produced by pass  2 Test12= 5.47D-15 2.22D-09 XBig12= 7.13D-04 4.20D-03.
     39 vectors produced by pass  3 Test12= 5.47D-15 2.22D-09 XBig12= 2.51D-06 1.93D-04.
     39 vectors produced by pass  4 Test12= 5.47D-15 2.22D-09 XBig12= 3.23D-09 9.37D-06.
     32 vectors produced by pass  5 Test12= 5.47D-15 2.22D-09 XBig12= 2.93D-12 2.21D-07.
      2 vectors produced by pass  6 Test12= 5.47D-15 2.22D-09 XBig12= 2.44D-15 6.04D-09.
      1 vectors produced by pass  7 Test12= 5.47D-15 2.22D-09 XBig12= 2.87D-17 2.49D-09.
 InvSVY:  IOpt=1 It=  1 EMax= 2.66D-15
 Solved reduced A of dimension   230 with    39 vectors.
 End of Minotr F.D. properties file   721 does not exist.
 End of Minotr F.D. properties file   722 does not exist.
 End of Minotr F.D. properties file   788 does not exist.
 Leave Link 1002 at Tue Oct 15 11:22:17 2019, MaxMem=   280000000 cpu:             176.7 elap:               7.5
 (Enter /home/soft/g16/l601.exe)
 Copying SCF densities to generalized density rwf, IOpCl= 0 IROHF=0.

 **********************************************************************

            Population analysis using the SCF density.

 **********************************************************************

 Alpha  occ. eigenvalues --  -19.21496 -10.25985 -10.25216 -10.20590 -10.19559
 Alpha  occ. eigenvalues --  -10.17115  -1.09477  -0.80303  -0.77686  -0.66637
 Alpha  occ. eigenvalues --   -0.63971  -0.53715  -0.50802  -0.48569  -0.48209
 Alpha  occ. eigenvalues --   -0.44163  -0.41285  -0.40834  -0.37845  -0.35252
 Alpha  occ. eigenvalues --   -0.34278  -0.31297  -0.14605
 Alpha virt. eigenvalues --   -0.07449   0.00424   0.02438   0.02708   0.03394
 Alpha virt. eigenvalues --    0.04502   0.05176   0.06381   0.06890   0.07975
 Alpha virt. eigenvalues --    0.08837   0.09903   0.11431   0.11882   0.12618
 Alpha virt. eigenvalues --    0.13402   0.13828   0.14751   0.15487   0.17016
 Alpha virt. eigenvalues --    0.18743   0.19595   0.20293   0.22002   0.22398
 Alpha virt. eigenvalues --    0.24495   0.24797   0.26364   0.28250   0.29220
 Alpha virt. eigenvalues --    0.29730   0.31159   0.32369   0.33092   0.35515
 Alpha virt. eigenvalues --    0.37162   0.38538   0.39374   0.43168   0.62318
 Alpha virt. eigenvalues --    0.65128   0.65358   0.66250   0.67686   0.69474
 Alpha virt. eigenvalues --    0.71551   0.72033   0.73164   0.75693   0.76805
 Alpha virt. eigenvalues --    0.77124   0.85080   0.91762   0.93860   0.94843
 Alpha virt. eigenvalues --    0.97679   0.99539   1.01499   1.05764   1.06388
 Alpha virt. eigenvalues --    1.10099   1.12766   1.14969   1.16447   1.23566
 Alpha virt. eigenvalues --    1.30239   1.31823   1.32558   1.41212   1.43137
 Alpha virt. eigenvalues --    1.48208   1.51245   1.57420   1.66742   1.69174
 Alpha virt. eigenvalues --    1.74180   1.80183   1.81362   1.88675   1.90658
 Alpha virt. eigenvalues --    1.95051   1.99742   2.00294   2.08008   2.10555
 Alpha virt. eigenvalues --    2.14811   2.22588   2.25034   2.29758   2.33171
 Alpha virt. eigenvalues --    2.39194   2.39596   2.44749   2.49516   2.61123
 Alpha virt. eigenvalues --    2.62119   2.69989   2.73126   2.79213   2.98474
 Alpha virt. eigenvalues --    3.03387   4.17914   4.23810   4.26266   4.41330
 Alpha virt. eigenvalues --    4.44983   4.61058
          Condensed to atoms (all electrons):
               1          2          3          4          5          6
     1  C    6.427975   0.329225   0.439299  -0.504908  -0.047935  -0.055533
     2  H    0.329225   0.520563  -0.040269   0.040233  -0.003150  -0.012039
     3  H    0.439299  -0.040269   0.527639  -0.113368   0.007542   0.005577
     4  C   -0.504908   0.040233  -0.113368   6.439723   0.161091  -0.273285
     5  O   -0.047935  -0.003150   0.007542   0.161091   8.199732   0.104844
     6  C   -0.055533  -0.012039   0.005577  -0.273285   0.104844   5.838342
     7  H    0.027486  -0.000225   0.000039  -0.063108  -0.042579   0.495574
     8  H   -0.044844   0.001683  -0.000051   0.058593  -0.037143   0.371849
     9  C    0.349328  -0.073745   0.046811  -0.461894  -0.058922  -0.013213
    10  H    0.011104  -0.000091  -0.000103  -0.005687   0.008232  -0.019621
    11  C   -0.414539   0.001555  -0.072003   0.453461  -0.012290  -0.027459
    12  H    0.013939   0.000791  -0.002230  -0.112242   0.004862   0.006754
    13  H   -0.083157   0.002059  -0.001531   0.073401  -0.000284  -0.017492
    14  H   -0.082446   0.001669  -0.002082   0.400761  -0.062980   0.030948
               7          8          9         10         11         12
     1  C    0.027486  -0.044844   0.349328   0.011104  -0.414539   0.013939
     2  H   -0.000225   0.001683  -0.073745  -0.000091   0.001555   0.000791
     3  H    0.000039  -0.000051   0.046811  -0.000103  -0.072003  -0.002230
     4  C   -0.063108   0.058593  -0.461894  -0.005687   0.453461  -0.112242
     5  O   -0.042579  -0.037143  -0.058922   0.008232  -0.012290   0.004862
     6  C    0.495574   0.371849  -0.013213  -0.019621  -0.027459   0.006754
     7  H    0.525698  -0.047466  -0.092398   0.000647  -0.033601   0.000095
     8  H   -0.047466   0.552665  -0.116176  -0.003214   0.053361  -0.000193
     9  C   -0.092398  -0.116176   6.821762   0.366335  -0.752089   0.049391
    10  H    0.000647  -0.003214   0.366335   0.534812  -0.057105   0.001278
    11  C   -0.033601   0.053361  -0.752089  -0.057105   6.682322   0.320632
    12  H    0.000095  -0.000193   0.049391   0.001278   0.320632   0.545124
    13  H   -0.000202   0.000469  -0.219940  -0.006058   0.540700  -0.052493
    14  H    0.000041  -0.000300  -0.020838   0.000010   0.024871   0.000034
              13         14
     1  C   -0.083157  -0.082446
     2  H    0.002059   0.001669
     3  H   -0.001531  -0.002082
     4  C    0.073401   0.400761
     5  O   -0.000284  -0.062980
     6  C   -0.017492   0.030948
     7  H   -0.000202   0.000041
     8  H    0.000469  -0.000300
     9  C   -0.219940  -0.020838
    10  H   -0.006058   0.000010
    11  C    0.540700   0.024871
    12  H   -0.052493   0.000034
    13  H    0.580383  -0.000122
    14  H   -0.000122   0.519399
 Mulliken charges:
               1
     1  C   -0.364993
     2  H    0.231743
     3  H    0.204730
     4  C   -0.092771
     5  O   -0.221020
     6  C   -0.435247
     7  H    0.229999
     8  H    0.210768
     9  C    0.175589
    10  H    0.169460
    11  C   -0.707817
    12  H    0.224259
    13  H    0.184267
    14  H    0.191036
 Sum of Mulliken charges =  -0.00000
 Mulliken charges with hydrogens summed into heavy atoms:
               1
     1  C    0.071479
     4  C    0.098264
     5  O   -0.221020
     6  C    0.005519
     9  C    0.345049
    11  C   -0.299291
 APT charges:
               1
     1  C   -0.848909
     2  H    0.430727
     3  H    0.528441
     4  C   -0.519914
     5  O   -0.188604
     6  C   -0.932212
     7  H    0.550875
     8  H    0.464401
     9  C   -0.192696
    10  H    0.517493
    11  C   -1.336608
    12  H    0.490234
    13  H    0.455007
    14  H    0.581764
 Sum of APT charges =  -0.00000
 APT charges with hydrogens summed into heavy atoms:
               1
     1  C    0.110259
     4  C    0.061850
     5  O   -0.188604
     6  C    0.083065
     9  C    0.324796
    11  C   -0.391366
 Electronic spatial extent (au):  <R**2>=            521.7561
 Charge=             -0.0000 electrons
 Dipole moment (field-independent basis, Debye):
    X=              0.4011    Y=             -0.6510    Z=              0.9127  Tot=              1.1907
 Quadrupole moment (field-independent basis, Debye-Ang):
   XX=            -37.1743   YY=            -37.1777   ZZ=            -39.3683
   XY=             -2.9848   XZ=             -0.0981   YZ=              2.1504
 Traceless Quadrupole moment (field-independent basis, Debye-Ang):
   XX=              0.7325   YY=              0.7291   ZZ=             -1.4615
   XY=             -2.9848   XZ=             -0.0981   YZ=              2.1504
 Octapole moment (field-independent basis, Debye-Ang**2):
  XXX=             -5.5117  YYY=            -11.0470  ZZZ=              5.2943  XYY=             -2.6678
  XXY=              2.8230  XXZ=             -1.3095  XZZ=             -2.1538  YZZ=             -3.4685
  YYZ=              1.5854  XYZ=             -0.3020
 Hexadecapole moment (field-independent basis, Debye-Ang**3):
 XXXX=           -339.9485 YYYY=           -306.7821 ZZZZ=            -81.7830 XXXY=             -9.5886
 XXXZ=             -0.8646 YYYX=              2.3909 YYYZ=             15.7171 ZZZX=             -1.3991
 ZZZY=              3.3973 XXYY=           -107.0065 XXZZ=            -66.6200 YYZZ=            -72.0160
 XXYZ=              1.2355 YYXZ=              0.5159 ZZXY=             -0.8853
 N-N= 2.384421270143D+02 E-N=-1.104938441545D+03  KE= 2.678239663087D+02
  Exact polarizability:   0.000   0.000   0.000   0.000   0.000   0.000
 Approx polarizability: 102.073  20.999 344.415   0.129  -7.437  79.718
 No NMR shielding tensors so no spin-rotation constants.
 Leave Link  601 at Tue Oct 15 11:22:17 2019, MaxMem=   280000000 cpu:               3.1 elap:               0.2
 (Enter /home/soft/g16/l701.exe)
 ... and contract with generalized density number  0.
 Compute integral second derivatives.
 Leave Link  701 at Tue Oct 15 11:22:17 2019, MaxMem=   280000000 cpu:               3.4 elap:               0.2
 (Enter /home/soft/g16/l702.exe)
 L702 exits ... SP integral derivatives will be done elsewhere.
 Leave Link  702 at Tue Oct 15 11:22:17 2019, MaxMem=   280000000 cpu:               0.8 elap:               0.1
 (Enter /home/soft/g16/l703.exe)
 Integral derivatives from FoFJK, PRISM(SPDF).
 Compute integral second derivatives, UseDBF=F ICtDFT=           0.
 Calling FoFJK, ICntrl=    100147 FMM=F ISym2X=0 I1Cent= 0 IOpClX= 0 NMat=1 NMatS=1 NMatT=0.
 FoFJK:  IHMeth= 1 ICntrl=  100147 DoSepK=F KAlg= 0 I1Cent=           0 FoldK=F
 IRaf=         0 NMat=       1 IRICut=       1 DoRegI=T DoRafI=F ISym2E= 0 IDoP0=0 IntGTp=1.
 FoFCou: FMM=F IPFlag=           0 FMFlag=      100000 FMFlg1=         800
         NFxFlg=           0 DoJE=F BraDBF=F KetDBF=F FulRan=T
         wScrn=  0.000000 ICntrl=    100147 IOpCl=  0 I1Cent=           0 NGrid=           0
         NMat0=    1 NMatS0=      1 NMatT0=    0 NMatD0=    1 NMtDS0=    0 NMtDT0=    0
 Symmetry not used in FoFCou.
 Leave Link  703 at Tue Oct 15 11:22:25 2019, MaxMem=   280000000 cpu:             182.1 elap:               7.6
 (Enter /home/soft/g16/l716.exe)
 Dipole        = 1.57801856D-01-2.56112636D-01 3.59096527D-01
 Polarizability= 0.00000000D+00 0.00000000D+00 0.00000000D+00
                 0.00000000D+00 0.00000000D+00 0.00000000D+00
 -------------------------------------------------------------------
 Center     Atomic                   Forces (Hartrees/Bohr)
 Number     Number              X              Y              Z
 -------------------------------------------------------------------
      1        6          -0.000000416    0.000000081   -0.000002259
      2        1          -0.000000313   -0.000003120   -0.000001754
      3        1           0.000000296    0.000000195   -0.000003505
      4        6          -0.000000790    0.000001032   -0.000003105
      5        8           0.000000788   -0.000001123   -0.000002371
      6        6          -0.000000305    0.000000122    0.000000300
      7        1           0.000000151    0.000001637    0.000001925
      8        1          -0.000000344   -0.000002232    0.000002167
      9        6           0.000000370    0.000000975    0.000003202
     10        1          -0.000000037   -0.000000041    0.000005454
     11        6           0.000000564   -0.000000312    0.000001269
     12        1           0.000000047    0.000002617    0.000001711
     13        1          -0.000000132   -0.000001176    0.000002943
     14        1           0.000000123    0.000001346   -0.000005979
 -------------------------------------------------------------------
 Cartesian Forces:  Max     0.000005979 RMS     0.000001990
 Z-matrix is all fixed cartesians, so copy forces.
 Leave Link  716 at Tue Oct 15 11:22:25 2019, MaxMem=   280000000 cpu:               0.7 elap:               0.1
 (Enter /home/soft/g16/l123.exe)
 IRC-IRC-IRC-IRC-IRC-IRC-IRC-IRC-IRC-IRC-IRC-IRC-IRC-IRC-IRC-IRC-IRC-IRC
          ******** Start new reaction path calculation ********
 Current Structure is TS -> form Hessian eigenvectors.
                            Diagonalizing Hessian.
 Supplied step size of   0.1000 bohr.
    Integration on MW PES will use step size of   0.1349 sqrt(amu)*bohr.
 Point Number:   0          Path Number:   1
 Calculating another point on the path.
 Point Number  1 in FORWARD path direction.
 Using LQA Reaction Path Following.
 IRC-IRC-IRC-IRC-IRC-IRC-IRC-IRC-IRC-IRC-IRC-IRC-IRC-IRC-IRC-IRC-IRC-IRC
 Leave Link  123 at Tue Oct 15 11:22:25 2019, MaxMem=   280000000 cpu:               0.4 elap:               0.0
 (Enter /home/soft/g16/l202.exe)
                          Input orientation:                          
 ---------------------------------------------------------------------
 Center     Atomic      Atomic             Coordinates (Angstroms)
 Number     Number       Type             X           Y           Z
 ---------------------------------------------------------------------
      1          6           0        1.172986   -0.825658    0.268729
      2          1           0        1.246087   -0.878769    1.368649
      3          1           0        1.952203   -1.488711   -0.123367
      4          6           0       -0.135546   -1.296863   -0.209133
      5          8           0       -1.273527   -0.651339    0.028629
      6          6           0       -1.187737    0.779705    0.106611
      7          1           0       -1.952816    1.094503   -0.616011
      8          1           0       -1.591457    1.033855    1.104794
      9          6           0        0.128862    1.399712   -0.144061
     10          1           0        0.146729    2.451926    0.139571
     11          6           0        1.419145    0.670744   -0.125466
     12          1           0        1.920312    0.628446   -1.102105
     13          1           0        2.151474    1.145721    0.556018
     14          1           0       -0.303030   -2.313632   -0.551688
 ---------------------------------------------------------------------
                    Distance matrix (angstroms):
                    1          2          3          4          5
     1  C    0.000000
     2  H    1.103625   0.000000
     3  H    1.095699   1.759756   0.000000
     4  C    1.470593   2.138483   2.098299   0.000000
     5  O    2.464439   2.862837   3.336110   1.329749   0.000000
     6  C    2.859456   3.204181   3.880441   2.349242   1.435733
     7  H    3.773649   4.250372   4.707958   3.030950   1.981151
     8  H    3.434958   3.432114   4.519872   3.046034   2.024621
     9  C    2.492562   2.954312   3.415844   2.710289   2.490648
    10  H    3.436924   3.716551   4.342522   3.775539   3.414629
    11  C    1.566909   2.159472   2.224275   2.509092   3.003686
    12  H    2.133566   2.971684   2.332659   2.954788   3.621743
    13  H    2.219529   2.361918   2.727913   3.432511   3.903613
    14  H    2.250728   2.854171   2.439268   1.085916   2.010436
                    6          7          8          9         10
     6  C    0.000000
     7  H    1.098466   0.000000
     8  H    1.106323   1.759383   0.000000
     9  C    1.476712   2.156218   2.157078   0.000000
    10  H    2.139675   2.611818   2.442104   1.089918   0.000000
    11  C    2.619459   3.433705   3.272478   1.482083   2.204971
    12  H    3.338240   3.931237   4.167407   2.173015   2.830625
    13  H    3.389139   4.268661   3.784600   2.155360   2.428703
    14  H    3.284022   3.786994   3.950905   3.760534   4.836390
                   11         12         13         14
    11  C    0.000000
    12  H    1.098536   0.000000
    13  H    1.107397   1.752250   0.000000
    14  H    3.471895   3.728543   4.383917   0.000000
 Symmetry turned off by external request.
 Stoichiometry    C5H8O
 Framework group  C1[X(C5H8O)]
 Deg. of freedom    36
 Full point group                 C1      NOp   1
 Rotational constants (GHZ):           5.2359804           4.5015533           2.6036331
 Leave Link  202 at Tue Oct 15 11:22:25 2019, MaxMem=   280000000 cpu:               0.4 elap:               0.0
 (Enter /home/soft/g16/l301.exe)
 Standard basis: 6-31+G(d) (6D, 7F)
 Ernie: Thresh=  0.10000D-02 Tol=  0.10000D-05 Strict=F.
   130 basis functions,   224 primitive gaussians,   130 cartesian basis functions
    23 alpha electrons       23 beta electrons
       nuclear repulsion energy       238.4994831132 Hartrees.
 IExCor=  402 DFT=T Ex+Corr=B3LYP ExCW=0 ScaHFX=  0.200000
 ScaDFX=  0.800000  0.720000  1.000000  0.810000 ScalE2=  1.000000  1.000000
 IRadAn=      5 IRanWt=     -1 IRanGd=            0 ICorTp=0 IEmpDi=  4
 NAtoms=   14 NActive=   14 NUniq=   14 SFac= 1.00D+00 NAtFMM=   60 NAOKFM=F Big=F
 Integral buffers will be    131072 words long.
 Raffenetti 2 integral format.
 Two-electron integral symmetry is turned off.
 Leave Link  301 at Tue Oct 15 11:22:25 2019, MaxMem=   280000000 cpu:               1.2 elap:               0.1
 (Enter /home/soft/g16/l302.exe)
 NPDir=0 NMtPBC=     1 NCelOv=     1 NCel=       1 NClECP=     1 NCelD=      1
         NCelK=      1 NCelE2=     1 NClLst=     1 CellRange=     0.0.
 One-electron integrals computed using PRISM.
 NBasis=   130 RedAO= T EigKep=  3.93D-05  NBF=   130
 NBsUse=   130 1.00D-06 EigRej= -1.00D+00 NBFU=   130
 Precomputing XC quadrature grid using
 IXCGrd= 4 IRadAn=           5 IRanWt=          -1 IRanGd=           0 AccXCQ= 0.00D+00.
 Generated NRdTot=       0 NPtTot=           0 NUsed=           0 NTot=          32
 NSgBfM=   130   130   130   130   130 MxSgAt=    14 MxSgA2=    14.
 Leave Link  302 at Tue Oct 15 11:22:25 2019, MaxMem=   280000000 cpu:               3.1 elap:               0.2
 (Enter /home/soft/g16/l303.exe)
 DipDrv:  MaxL=1.
 Leave Link  303 at Tue Oct 15 11:22:25 2019, MaxMem=   280000000 cpu:               0.8 elap:               0.1
 (Enter /home/soft/g16/l401.exe)
 Initial guess from the checkpoint file:  "ircb2.chk"
 B after Tr=     0.072613    0.034034    0.015815
         Rot=    1.000000    0.000104   -0.000015   -0.000010 Ang=   0.01 deg.
 Guess basis will be translated and rotated to current coordinates.
 JPrj=2 DoOrth=T DoCkMO=T.
 Generating alternative initial guess.
 ExpMin= 4.38D-02 ExpMax= 5.48D+03 ExpMxC= 8.25D+02 IAcc=2 IRadAn=         4 AccDes= 0.00D+00
 Harris functional with IExCor=  402 and IRadAn=       4 diagonalized for initial guess.
 HarFok:  IExCor=  402 AccDes= 0.00D+00 IRadAn=         4 IDoV= 1 UseB2=F ITyADJ=14
 ICtDFT=  3500011 ScaDFX=  1.000000  1.000000  1.000000  1.000000
 FoFCou: FMM=F IPFlag=           0 FMFlag=      100000 FMFlg1=           0
         NFxFlg=           0 DoJE=T BraDBF=F KetDBF=T FulRan=T
         wScrn=  0.000000 ICntrl=       500 IOpCl=  0 I1Cent=   200000004 NGrid=           0
         NMat0=    1 NMatS0=      1 NMatT0=    0 NMatD0=    1 NMtDS0=    0 NMtDT0=    0
 Symmetry not used in FoFCou.
 Harris En= -270.462608342192    
 Leave Link  401 at Tue Oct 15 11:22:25 2019, MaxMem=   280000000 cpu:               6.6 elap:               0.3
 (Enter /home/soft/g16/l502.exe)
 Two-electron integral symmetry not used.
 Closed shell SCF:
 Using DIIS extrapolation, IDIIS=  1040.
 NGot=   280000000 LenX=   279961824 LenY=   279944483
 Requested convergence on RMS density matrix=1.00D-08 within 128 cycles.
 Requested convergence on MAX density matrix=1.00D-06.
 Requested convergence on             energy=1.00D-06.
 No special actions if energy rises.
 Fock matrices will be formed incrementally for  20 cycles.

 Cycle   1  Pass 1  IDiag  1:
 FoFJK:  IHMeth= 1 ICntrl=       0 DoSepK=F KAlg= 0 I1Cent=           0 FoldK=F
 IRaf= 990000000 NMat=       1 IRICut=       1 DoRegI=T DoRafI=F ISym2E= 0 IDoP0=0 IntGTp=1.
 FoFCou: FMM=F IPFlag=           0 FMFlag=      100000 FMFlg1=           0
         NFxFlg=           0 DoJE=F BraDBF=F KetDBF=F FulRan=T
         wScrn=  0.000000 ICntrl=         0 IOpCl=  0 I1Cent=           0 NGrid=           0
         NMat0=    1 NMatS0=      1 NMatT0=    0 NMatD0=    1 NMtDS0=    0 NMtDT0=    0
 Symmetry not used in FoFCou.
 E= -270.430659798339    
 DIIS: error= 5.94D-04 at cycle   1 NSaved=   1.
 NSaved= 1 IEnMin= 1 EnMin= -270.430659798339     IErMin= 1 ErrMin= 5.94D-04
 ErrMax= 5.94D-04  0.00D+00 EMaxC= 1.00D-01 BMatC= 1.17D-04 BMatP= 1.17D-04
 IDIUse=3 WtCom= 9.94D-01 WtEn= 5.94D-03
 Coeff-Com:  0.100D+01
 Coeff-En:   0.100D+01
 Coeff:      0.100D+01
 Gap=     0.453 Goal=   None    Shift=    0.000
 RMSDP=8.38D-04 MaxDP=2.50D-02              OVMax= 1.14D-02

 Cycle   2  Pass 1  IDiag  1:
 RMSU=  8.38D-04    CP:  9.99D-01
 E= -270.430948673341     Delta-E=       -0.000288875001 Rises=F Damp=F
 DIIS: error= 1.26D-04 at cycle   2 NSaved=   2.
 NSaved= 2 IEnMin= 2 EnMin= -270.430948673341     IErMin= 2 ErrMin= 1.26D-04
 ErrMax= 1.26D-04  0.00D+00 EMaxC= 1.00D-01 BMatC= 4.03D-06 BMatP= 1.17D-04
 IDIUse=3 WtCom= 9.99D-01 WtEn= 1.26D-03
 Coeff-Com: -0.407D-01 0.104D+01
 Coeff-En:   0.000D+00 0.100D+01
 Coeff:     -0.407D-01 0.104D+01
 Gap=     0.072 Goal=   None    Shift=    0.000
 RMSDP=2.11D-04 MaxDP=6.58D-03 DE=-2.89D-04 OVMax= 5.44D-03

 Cycle   3  Pass 1  IDiag  1:
 RMSU=  1.90D-04    CP:  1.00D+00  9.25D-01
 E= -270.430927170147     Delta-E=        0.000021503194 Rises=F Damp=F
 DIIS: error= 3.07D-04 at cycle   3 NSaved=   3.
 NSaved= 3 IEnMin= 2 EnMin= -270.430948673341     IErMin= 2 ErrMin= 1.26D-04
 ErrMax= 3.07D-04  0.00D+00 EMaxC= 1.00D-01 BMatC= 2.51D-05 BMatP= 4.03D-06
 IDIUse=3 WtCom= 3.63D-01 WtEn= 6.37D-01
 Coeff-Com: -0.501D-01 0.797D+00 0.253D+00
 Coeff-En:   0.000D+00 0.805D+00 0.195D+00
 Coeff:     -0.182D-01 0.802D+00 0.216D+00
 Gap=     0.071 Goal=   None    Shift=    0.000
 RMSDP=1.52D-04 MaxDP=3.98D-03 DE= 2.15D-05 OVMax= 6.85D-03

 Cycle   4  Pass 1  IDiag  1:
 RMSU=  1.10D-04    CP:  1.00D+00  1.02D+00  6.33D-01
 E= -270.430951020774     Delta-E=       -0.000023850627 Rises=F Damp=F
 DIIS: error= 1.74D-04 at cycle   4 NSaved=   4.
 NSaved= 4 IEnMin= 4 EnMin= -270.430951020774     IErMin= 2 ErrMin= 1.26D-04
 ErrMax= 1.74D-04  0.00D+00 EMaxC= 1.00D-01 BMatC= 4.84D-06 BMatP= 4.03D-06
 IDIUse=3 WtCom= 4.31D-01 WtEn= 5.69D-01
 Coeff-Com: -0.360D-01 0.401D+00 0.245D+00 0.390D+00
 Coeff-En:   0.000D+00 0.000D+00 0.262D+00 0.738D+00
 Coeff:     -0.155D-01 0.173D+00 0.255D+00 0.588D+00
 Gap=     0.072 Goal=   None    Shift=    0.000
 RMSDP=9.86D-05 MaxDP=2.68D-03 DE=-2.39D-05 OVMax= 3.46D-03

 Cycle   5  Pass 1  IDiag  1:
 RMSU=  4.43D-05    CP:  1.00D+00  9.83D-01  1.02D+00  7.66D-01
 E= -270.430954709935     Delta-E=       -0.000003689160 Rises=F Damp=F
 DIIS: error= 1.07D-04 at cycle   5 NSaved=   5.
 NSaved= 5 IEnMin= 5 EnMin= -270.430954709935     IErMin= 5 ErrMin= 1.07D-04
 ErrMax= 1.07D-04  0.00D+00 EMaxC= 1.00D-01 BMatC= 2.29D-06 BMatP= 4.03D-06
 IDIUse=3 WtCom= 9.99D-01 WtEn= 1.07D-03
 Coeff-Com: -0.109D-01 0.715D-01 0.112D+00 0.431D+00 0.396D+00
 Coeff-En:   0.000D+00 0.000D+00 0.000D+00 0.365D+00 0.635D+00
 Coeff:     -0.109D-01 0.714D-01 0.112D+00 0.431D+00 0.397D+00
 Gap=     0.071 Goal=   None    Shift=    0.000
 RMSDP=3.82D-05 MaxDP=1.03D-03 DE=-3.69D-06 OVMax= 1.36D-03

 Cycle   6  Pass 1  IDiag  1:
 RMSU=  1.13D-05    CP:  1.00D+00  1.00D+00  8.96D-01  8.64D-01  6.12D-01
 E= -270.430957466548     Delta-E=       -0.000002756614 Rises=F Damp=F
 DIIS: error= 1.04D-05 at cycle   6 NSaved=   6.
 NSaved= 6 IEnMin= 6 EnMin= -270.430957466548     IErMin= 6 ErrMin= 1.04D-05
 ErrMax= 1.04D-05  0.00D+00 EMaxC= 1.00D-01 BMatC= 3.49D-08 BMatP= 2.29D-06
 IDIUse=1 WtCom= 1.00D+00 WtEn= 0.00D+00
 Coeff-Com: -0.212D-02-0.836D-02 0.406D-01 0.205D+00 0.235D+00 0.530D+00
 Coeff:     -0.212D-02-0.836D-02 0.406D-01 0.205D+00 0.235D+00 0.530D+00
 Gap=     0.071 Goal=   None    Shift=    0.000
 RMSDP=7.30D-06 MaxDP=2.04D-04 DE=-2.76D-06 OVMax= 9.68D-05

 Cycle   7  Pass 1  IDiag  1:
 RMSU=  2.58D-06    CP:  1.00D+00  9.98D-01  9.24D-01  8.66D-01  6.22D-01
                    CP:  1.19D+00
 E= -270.430957498534     Delta-E=       -0.000000031986 Rises=F Damp=F
 DIIS: error= 2.76D-06 at cycle   7 NSaved=   7.
 NSaved= 7 IEnMin= 7 EnMin= -270.430957498534     IErMin= 7 ErrMin= 2.76D-06
 ErrMax= 2.76D-06  0.00D+00 EMaxC= 1.00D-01 BMatC= 2.35D-09 BMatP= 3.49D-08
 IDIUse=1 WtCom= 1.00D+00 WtEn= 0.00D+00
 Coeff-Com:  0.105D-02-0.178D-01-0.182D-02 0.156D-01 0.350D-01 0.246D+00
 Coeff-Com:  0.722D+00
 Coeff:      0.105D-02-0.178D-01-0.182D-02 0.156D-01 0.350D-01 0.246D+00
 Coeff:      0.722D+00
 Gap=     0.071 Goal=   None    Shift=    0.000
 RMSDP=6.20D-06 MaxDP=1.55D-04 DE=-3.20D-08 OVMax= 4.38D-05

 Cycle   8  Pass 1  IDiag  1:
 RMSU=  8.31D-07    CP:  1.00D+00  9.96D-01  9.43D-01  8.96D-01  6.57D-01
                    CP:  1.20D+00  8.75D-01
 E= -270.430957501282     Delta-E=       -0.000000002748 Rises=F Damp=F
 DIIS: error= 8.35D-07 at cycle   8 NSaved=   8.
 NSaved= 8 IEnMin= 8 EnMin= -270.430957501282     IErMin= 8 ErrMin= 8.35D-07
 ErrMax= 8.35D-07  0.00D+00 EMaxC= 1.00D-01 BMatC= 1.29D-10 BMatP= 2.35D-09
 IDIUse=1 WtCom= 1.00D+00 WtEn= 0.00D+00
 Coeff-Com:  0.427D-03-0.571D-02-0.144D-02-0.296D-02 0.386D-02 0.581D-01
 Coeff-Com:  0.245D+00 0.702D+00
 Coeff:      0.427D-03-0.571D-02-0.144D-02-0.296D-02 0.386D-02 0.581D-01
 Coeff:      0.245D+00 0.702D+00
 Gap=     0.071 Goal=   None    Shift=    0.000
 RMSDP=5.39D-07 MaxDP=1.49D-05 DE=-2.75D-09 OVMax= 8.58D-06

 Cycle   9  Pass 1  IDiag  1:
 RMSU=  1.47D-07    CP:  1.00D+00  9.96D-01  9.44D-01  8.94D-01  6.59D-01
                    CP:  1.23D+00  9.31D-01  9.90D-01
 E= -270.430957501455     Delta-E=       -0.000000000173 Rises=F Damp=F
 DIIS: error= 1.72D-07 at cycle   9 NSaved=   9.
 NSaved= 9 IEnMin= 9 EnMin= -270.430957501455     IErMin= 9 ErrMin= 1.72D-07
 ErrMax= 1.72D-07  0.00D+00 EMaxC= 1.00D-01 BMatC= 1.39D-11 BMatP= 1.29D-10
 IDIUse=1 WtCom= 1.00D+00 WtEn= 0.00D+00
 Coeff-Com:  0.909D-04-0.877D-03-0.364D-03-0.320D-02-0.174D-02 0.156D-02
 Coeff-Com:  0.436D-01 0.325D+00 0.635D+00
 Coeff:      0.909D-04-0.877D-03-0.364D-03-0.320D-02-0.174D-02 0.156D-02
 Coeff:      0.436D-01 0.325D+00 0.635D+00
 Gap=     0.071 Goal=   None    Shift=    0.000
 RMSDP=2.68D-07 MaxDP=6.78D-06 DE=-1.73D-10 OVMax= 2.31D-06

 Cycle  10  Pass 1  IDiag  1:
 RMSU=  4.21D-08    CP:  1.00D+00  9.95D-01  9.45D-01  8.95D-01  6.60D-01
                    CP:  1.24D+00  9.42D-01  1.06D+00  8.12D-01
 E= -270.430957501467     Delta-E=       -0.000000000013 Rises=F Damp=F
 DIIS: error= 2.99D-08 at cycle  10 NSaved=  10.
 NSaved=10 IEnMin=10 EnMin= -270.430957501467     IErMin=10 ErrMin= 2.99D-08
 ErrMax= 2.99D-08  0.00D+00 EMaxC= 1.00D-01 BMatC= 4.01D-13 BMatP= 1.39D-11
 IDIUse=1 WtCom= 1.00D+00 WtEn= 0.00D+00
 Coeff-Com: -0.666D-05 0.222D-03 0.266D-04-0.809D-03-0.939D-03-0.476D-02
 Coeff-Com: -0.725D-02 0.402D-01 0.191D+00 0.782D+00
 Coeff:     -0.666D-05 0.222D-03 0.266D-04-0.809D-03-0.939D-03-0.476D-02
 Coeff:     -0.725D-02 0.402D-01 0.191D+00 0.782D+00
 Gap=     0.071 Goal=   None    Shift=    0.000
 RMSDP=7.74D-08 MaxDP=2.25D-06 DE=-1.25D-11 OVMax= 5.82D-07

 Cycle  11  Pass 1  IDiag  1:
 RMSU=  2.11D-08    CP:  1.00D+00  9.95D-01  9.45D-01  8.95D-01  6.60D-01
                    CP:  1.24D+00  9.45D-01  1.08D+00  7.94D-01  1.16D+00
 E= -270.430957501467     Delta-E=        0.000000000000 Rises=F Damp=F
 DIIS: error= 1.12D-08 at cycle  11 NSaved=  11.
 NSaved=11 IEnMin=10 EnMin= -270.430957501467     IErMin=11 ErrMin= 1.12D-08
 ErrMax= 1.12D-08  0.00D+00 EMaxC= 1.00D-01 BMatC= 3.17D-14 BMatP= 4.01D-13
 IDIUse=1 WtCom= 1.00D+00 WtEn= 0.00D+00
 Coeff-Com: -0.679D-05 0.130D-03 0.378D-04-0.151D-03-0.263D-03-0.184D-02
 Coeff-Com: -0.456D-02 0.115D-02 0.463D-01 0.310D+00 0.649D+00
 Coeff:     -0.679D-05 0.130D-03 0.378D-04-0.151D-03-0.263D-03-0.184D-02
 Coeff:     -0.456D-02 0.115D-02 0.463D-01 0.310D+00 0.649D+00
 Gap=     0.071 Goal=   None    Shift=    0.000
 RMSDP=1.39D-08 MaxDP=6.06D-07 DE= 1.14D-13 OVMax= 1.03D-07

 Cycle  12  Pass 1  IDiag  1:
 RMSU=  4.46D-09    CP:  1.00D+00  9.95D-01  9.45D-01  8.95D-01  6.60D-01
                    CP:  1.24D+00  9.45D-01  1.08D+00  8.19D-01  1.17D+00
                    CP:  9.74D-01
 E= -270.430957501464     Delta-E=        0.000000000003 Rises=F Damp=F
 DIIS: error= 2.78D-09 at cycle  12 NSaved=  12.
 NSaved=12 IEnMin=10 EnMin= -270.430957501467     IErMin=12 ErrMin= 2.78D-09
 ErrMax= 2.78D-09  0.00D+00 EMaxC= 1.00D-01 BMatC= 2.50D-15 BMatP= 3.17D-14
 IDIUse=1 WtCom= 1.00D+00 WtEn= 0.00D+00
 Coeff-Com: -0.154D-05 0.224D-04 0.113D-04 0.115D-05-0.163D-04-0.239D-03
 Coeff-Com: -0.901D-03-0.244D-02 0.605D-03 0.398D-01 0.189D+00 0.775D+00
 Coeff:     -0.154D-05 0.224D-04 0.113D-04 0.115D-05-0.163D-04-0.239D-03
 Coeff:     -0.901D-03-0.244D-02 0.605D-03 0.398D-01 0.189D+00 0.775D+00
 Gap=     0.071 Goal=   None    Shift=    0.000
 RMSDP=3.09D-09 MaxDP=9.46D-08 DE= 3.18D-12 OVMax= 4.92D-08

 SCF Done:  E(RB3LYP) =  -270.430957501     A.U. after   12 cycles
            NFock= 12  Conv=0.31D-08     -V/T= 2.0097
 KE= 2.678226232454D+02 PE=-1.105047114917D+03 EE= 3.282940510565D+02
 Leave Link  502 at Tue Oct 15 11:22:29 2019, MaxMem=   280000000 cpu:              86.3 elap:               3.6
 (Enter /home/soft/g16/l801.exe)
 DoSCS=F DFT=T ScalE2(SS,OS)=  1.000000  1.000000
 Range of M.O.s used for correlation:     1   130
 NBasis=   130 NAE=    23 NBE=    23 NFC=     0 NFV=     0
 NROrb=    130 NOA=    23 NOB=    23 NVA=   107 NVB=   107

 **** Warning!!: The largest alpha MO coefficient is  0.67164324D+02


 **** Warning!!: The smallest alpha delta epsilon is  0.71474575D-01

 Leave Link  801 at Tue Oct 15 11:22:29 2019, MaxMem=   280000000 cpu:               1.0 elap:               0.1
 (Enter /home/soft/g16/l1101.exe)
 Leave Link 1101 at Tue Oct 15 11:22:29 2019, MaxMem=   280000000 cpu:               0.5 elap:               0.0
 (Enter /home/soft/g16/l1102.exe)
 Symmetrizing basis deriv contribution to polar:
 IMax=3 JMax=2 DiffMx= 0.00D+00
 Leave Link 1102 at Tue Oct 15 11:22:29 2019, MaxMem=   280000000 cpu:               1.1 elap:               0.1
 (Enter /home/soft/g16/l1110.exe)
 Leave Link 1110 at Tue Oct 15 11:22:29 2019, MaxMem=   280000000 cpu:               0.9 elap:               0.1
 (Enter /home/soft/g16/l1002.exe)
 Minotr:  Closed shell wavefunction.
 Leave Link 1002 at Tue Oct 15 11:22:29 2019, MaxMem=   280000000 cpu:               1.0 elap:               0.1
 (Enter /home/soft/g16/l701.exe)
 ... and contract with generalized density number  0.
 Compute integral first derivatives.
 Leave Link  701 at Tue Oct 15 11:22:30 2019, MaxMem=   280000000 cpu:               2.7 elap:               0.1
 (Enter /home/soft/g16/l702.exe)
 L702 exits ... SP integral derivatives will be done elsewhere.
 Leave Link  702 at Tue Oct 15 11:22:30 2019, MaxMem=   280000000 cpu:               0.5 elap:               0.0
 (Enter /home/soft/g16/l703.exe)
 Integral derivatives from FoFJK, PRISM(SPDF).
 Compute integral first derivatives, UseDBF=F ICtDFT=           0.
 Calling FoFJK, ICntrl=      2147 FMM=F ISym2X=0 I1Cent= 0 IOpClX= 0 NMat=1 NMatS=1 NMatT=0.
 FoFJK:  IHMeth= 1 ICntrl=    2147 DoSepK=F KAlg= 0 I1Cent=           0 FoldK=F
 IRaf=         0 NMat=       1 IRICut=       1 DoRegI=T DoRafI=F ISym2E= 0 IDoP0=0 IntGTp=1.
 FoFCou: FMM=F IPFlag=           0 FMFlag=      100000 FMFlg1=         800
         NFxFlg=           0 DoJE=F BraDBF=F KetDBF=F FulRan=T
         wScrn=  0.000000 ICntrl=      2147 IOpCl=  0 I1Cent=           0 NGrid=           0
         NMat0=    1 NMatS0=      1 NMatT0=    0 NMatD0=    1 NMtDS0=    0 NMtDT0=    0
 Symmetry not used in FoFCou.
 Leave Link  703 at Tue Oct 15 11:22:30 2019, MaxMem=   280000000 cpu:              14.4 elap:               0.6
 (Enter /home/soft/g16/l716.exe)
 Dipole        = 1.58586834D-01-2.45967629D-01 3.72251293D-01
 Polarizability= 0.00000000D+00 0.00000000D+00 0.00000000D+00
                 0.00000000D+00 0.00000000D+00 0.00000000D+00
 -------------------------------------------------------------------
 Center     Atomic                   Forces (Hartrees/Bohr)
 Number     Number              X              Y              Z
 -------------------------------------------------------------------
      1        6           0.000023797    0.000067677   -0.000036646
      2        1          -0.000021080   -0.000039754   -0.000027158
      3        1           0.000002351    0.000011858   -0.000016445
      4        6          -0.000070931    0.000117988   -0.000292142
      5        8          -0.000088920   -0.000019438    0.000045615
      6        6           0.000045844    0.000018160    0.000313731
      7        1           0.000021796    0.000017691    0.000117089
      8        1           0.000084585   -0.000048768    0.000012143
      9        6          -0.000054136   -0.000070720   -0.000497782
     10        1          -0.000019409   -0.000200273   -0.000223336
     11        6           0.000099247    0.000058616    0.000379566
     12        1           0.000027962    0.000051027    0.000099340
     13        1          -0.000063945   -0.000026131    0.000062590
     14        1           0.000012838    0.000062066    0.000063434
 -------------------------------------------------------------------
 Cartesian Forces:  Max     0.000497782 RMS     0.000136521
 Z-matrix is all fixed cartesians, so copy forces.
 Leave Link  716 at Tue Oct 15 11:22:30 2019, MaxMem=   280000000 cpu:               0.6 elap:               0.0
 (Enter /home/soft/g16/l123.exe)
 IRC-IRC-IRC-IRC-IRC-IRC-IRC-IRC-IRC-IRC-IRC-IRC-IRC-IRC-IRC-IRC-IRC-IRC
 Pt  1 Step number   1 out of a maximum of  20
 Using modified Bulirsch-Stoer corrector integration.
   Using distance weighted interpolants to fit PES.
 PreDWI: IReCr0= 2 IReCr1= 1 IReCr2= 1 IReCr3= 1
 Modified Bulirsch-Stoer Extrapolation Cycles:
    EPS =    0.000010000000000
    Cycle     1 NS=    48
      PEZero:  N= 2 I= 1 D=  3.51D-04 Err=  1.02D-02
    Cycle     2 NS=    64 Truncation Error =  0.010182755
      PEZero:  N= 3 I= 2 D=  3.51D-04 Err=  8.00D-04
      PEZero:  N= 3 I= 1 D=  7.03D-04 Err=  8.98D-03
    Cycle     3 NS=    96 Truncation Error =  0.000799502
      PEZero:  N= 4 I= 3 D=  1.76D-04 Err=  2.71D-04
      PEZero:  N= 4 I= 2 D=  5.27D-04 Err=  4.38D-04
    Cycle     4 NS=   128 Truncation Error =  0.000271247
      PEZero:  N= 5 I= 4 D=  1.76D-04 Err=  1.73D-04
      PEZero:  N= 5 I= 3 D=  3.51D-04 Err=  1.21D-05
      PEZero:  N= 5 I= 2 D=  7.03D-04 Err=  4.12D-04
    Cycle     5 NS=   192 Truncation Error =  0.000012071
      PEZero:  N= 6 I= 5 D=  8.79D-05 Err=  1.28D-04
      PEZero:  N= 6 I= 4 D=  2.64D-04 Err=  2.39D-06
      PEZero:  N= 6 I= 3 D=  4.39D-04 Err=  4.37D-06
    Cycle     6 NS=   256 Truncation Error =  0.000002392
 BS completed in    6 cycles and     784 integration steps.
 Maximum DWI energy   std dev =  0.000000076 at pt     4
 Maximum DWI gradient std dev =  0.360138142 at pt     5
 SUMMARY OF CORRECTOR INTEGRATION:
   Predictor End Point Energy =  -270.430958
   Old End Point Energy       =  -270.430958
   Corrected End Point Energy =  -270.430958
   Predictor End-Start Dist.  =     0.134941
   Old End-Start Dist.        =     0.134941
   New End-Start Dist.        =     0.134891
   New End-Old End Dist.      =     0.002757
 CORRECTOR INTEGRATION CONVERGENCE:
   Recorrection delta-x convergence threshold:    0.010000
   Delta-x Convergence Met
 Point Number:   1          Path Number:   1
                    CURRENT STRUCTURE
                Cartesian Coordinates (Ang):                
 ---------------------------------------------------------------------
 Center     Atomic                     Coordinates (Angstroms)
 Number     Number                        X           Y           Z
 ---------------------------------------------------------------------
      1          6                    1.172968   -0.825722    0.268701
      2          1                    1.245996   -0.878926    1.368576
      3          1                    1.952213   -1.488691   -0.123477
      4          6                   -0.135559   -1.296845   -0.209214
      5          8                   -1.273493   -0.651401    0.028654
      6          6                   -1.187688    0.779819    0.106642
      7          1                   -1.952769    1.094416   -0.615900
      8          1                   -1.591277    1.033908    1.104797
      9          6                    0.128854    1.399681   -0.144085
     10          1                    0.146849    2.451416    0.140005
     11          6                    1.419077    0.670808   -0.125393
     12          1                    1.920329    0.628621   -1.101901
     13          1                    2.151220    1.145682    0.556251
     14          1                   -0.302879   -2.313285   -0.552454
 ---------------------------------------------------------------------
   CHANGE IN THE REACTION COORDINATE =    0.13489
   NET REACTION COORDINATE UP TO THIS POINT =    0.13489
  # OF POINTS ALONG THE PATH =   1
  # OF STEPS =   1

 Calculating another point on the path.
 Point Number  2 in FORWARD path direction.
 Using LQA Reaction Path Following.
   LQA: T_Est iteration completed in    3 iterations.
 IRC-IRC-IRC-IRC-IRC-IRC-IRC-IRC-IRC-IRC-IRC-IRC-IRC-IRC-IRC-IRC-IRC-IRC
 Leave Link  123 at Tue Oct 15 11:22:31 2019, MaxMem=   280000000 cpu:               8.7 elap:               0.5
 (Enter /home/soft/g16/l202.exe)
                          Input orientation:                          
 ---------------------------------------------------------------------
 Center     Atomic      Atomic             Coordinates (Angstroms)
 Number     Number       Type             X           Y           Z
 ---------------------------------------------------------------------
      1          6           0        1.173186   -0.824296    0.267487
      2          1           0        1.243086   -0.885686    1.367768
      3          1           0        1.952267   -1.486554   -0.126111
      4          6           0       -0.135983   -1.294040   -0.213974
      5          8           0       -1.274843   -0.650853    0.029288
      6          6           0       -1.186745    0.778042    0.111866
      7          1           0       -1.957562    1.101292   -0.600812
      8          1           0       -1.579566    1.027383    1.116203
      9          6           0        0.127980    1.396325   -0.153101
     10          1           0        0.142610    2.455254    0.106212
     11          6           0        1.420722    0.670607   -0.118664
     12          1           0        1.931568    0.635913   -1.090633
     13          1           0        2.145140    1.145376    0.572390
     14          1           0       -0.304364   -2.315373   -0.542828
 ---------------------------------------------------------------------
                    Distance matrix (angstroms):
                    1          2          3          4          5
     1  C    0.000000
     2  H    1.104207   0.000000
     3  H    1.095660   1.759447   0.000000
     4  C    1.471865   2.137870   2.098945   0.000000
     5  O    2.465698   2.861231   3.337182   1.330364   0.000000
     6  C    2.856743   3.201462   3.877940   2.346017   1.433988
     7  H    3.776694   4.250592   4.712648   3.034042   1.983215
     8  H    3.424424   3.419135   4.509664   3.040116   2.022552
     9  C    2.490082   2.960418   3.411707   2.703968   2.488396
    10  H    3.441445   3.736904   4.343580   3.773240   3.415112
    11  C    1.563688   2.159417   2.221697   2.508436   3.005697
    12  H    2.133505   2.972038   2.331437   2.961084   3.631950
    13  H    2.217492   2.360411   2.729865   3.431128   3.900985
    14  H    2.250128   2.844114   2.439872   1.086102   2.009919
                    6          7          8          9         10
     6  C    0.000000
     7  H    1.098435   0.000000
     8  H    1.106876   1.759683   0.000000
     9  C    1.476815   2.153364   2.159390   0.000000
    10  H    2.140153   2.596886   2.454544   1.090316   0.000000
    11  C    2.619841   3.439587   3.264033   1.482914   2.206605
    12  H    3.345158   3.947384   4.165506   2.170282   2.818299
    13  H    3.383559   4.267378   3.766044   2.158297   2.437874
    14  H    3.282748   3.796054   3.943671   3.757061   4.835279
                   11         12         13         14
    11  C    0.000000
    12  H    1.098587   0.000000
    13  H    1.108035   1.752373   0.000000
    14  H    3.474466   3.742937   4.384127   0.000000
 Symmetry turned off by external request.
 Stoichiometry    C5H8O
 Framework group  C1[X(C5H8O)]
 Deg. of freedom    36
 Full point group                 C1      NOp   1
 Rotational constants (GHZ):           5.2477975           4.4973381           2.6057447
 Leave Link  202 at Tue Oct 15 11:22:31 2019, MaxMem=   280000000 cpu:               0.6 elap:               0.0
 (Enter /home/soft/g16/l301.exe)
 Standard basis: 6-31+G(d) (6D, 7F)
 Ernie: Thresh=  0.10000D-02 Tol=  0.10000D-05 Strict=F.
   130 basis functions,   224 primitive gaussians,   130 cartesian basis functions
    23 alpha electrons       23 beta electrons
       nuclear repulsion energy       238.5549969744 Hartrees.
 IExCor=  402 DFT=T Ex+Corr=B3LYP ExCW=0 ScaHFX=  0.200000
 ScaDFX=  0.800000  0.720000  1.000000  0.810000 ScalE2=  1.000000  1.000000
 IRadAn=      5 IRanWt=     -1 IRanGd=            0 ICorTp=0 IEmpDi=  4
 NAtoms=   14 NActive=   14 NUniq=   14 SFac= 1.00D+00 NAtFMM=   60 NAOKFM=F Big=F
 Integral buffers will be    131072 words long.
 Raffenetti 2 integral format.
 Two-electron integral symmetry is turned off.
 Leave Link  301 at Tue Oct 15 11:22:31 2019, MaxMem=   280000000 cpu:               1.6 elap:               0.1
 (Enter /home/soft/g16/l302.exe)
 NPDir=0 NMtPBC=     1 NCelOv=     1 NCel=       1 NClECP=     1 NCelD=      1
         NCelK=      1 NCelE2=     1 NClLst=     1 CellRange=     0.0.
 One-electron integrals computed using PRISM.
 NBasis=   130 RedAO= T EigKep=  3.84D-05  NBF=   130
 NBsUse=   130 1.00D-06 EigRej= -1.00D+00 NBFU=   130
 Precomputing XC quadrature grid using
 IXCGrd= 4 IRadAn=           5 IRanWt=          -1 IRanGd=           0 AccXCQ= 0.00D+00.
 Generated NRdTot=       0 NPtTot=           0 NUsed=           0 NTot=          32
 NSgBfM=   130   130   130   130   130 MxSgAt=    14 MxSgA2=    14.
 Leave Link  302 at Tue Oct 15 11:22:31 2019, MaxMem=   280000000 cpu:               3.0 elap:               0.1
 (Enter /home/soft/g16/l303.exe)
 DipDrv:  MaxL=1.
 Leave Link  303 at Tue Oct 15 11:22:31 2019, MaxMem=   280000000 cpu:               0.7 elap:               0.0
 (Enter /home/soft/g16/l401.exe)
 Initial guess from the checkpoint file:  "ircb2.chk"
 B after Tr=     0.000076    0.000087    0.000542
         Rot=    1.000000   -0.000004   -0.000001   -0.000010 Ang=  -0.00 deg.
 Guess basis will be translated and rotated to current coordinates.
 JPrj=2 DoOrth=T DoCkMO=T.
 Generating alternative initial guess.
 ExpMin= 4.38D-02 ExpMax= 5.48D+03 ExpMxC= 8.25D+02 IAcc=2 IRadAn=         4 AccDes= 0.00D+00
 Harris functional with IExCor=  402 and IRadAn=       4 diagonalized for initial guess.
 HarFok:  IExCor=  402 AccDes= 0.00D+00 IRadAn=         4 IDoV= 1 UseB2=F ITyADJ=14
 ICtDFT=  3500011 ScaDFX=  1.000000  1.000000  1.000000  1.000000
 FoFCou: FMM=F IPFlag=           0 FMFlag=      100000 FMFlg1=           0
         NFxFlg=           0 DoJE=T BraDBF=F KetDBF=T FulRan=T
         wScrn=  0.000000 ICntrl=       500 IOpCl=  0 I1Cent=   200000004 NGrid=           0
         NMat0=    1 NMatS0=      1 NMatT0=    0 NMatD0=    1 NMtDS0=    0 NMtDT0=    0
 Symmetry not used in FoFCou.
 Harris En= -270.462249724775    
 Leave Link  401 at Tue Oct 15 11:22:32 2019, MaxMem=   280000000 cpu:               9.2 elap:               0.5
 (Enter /home/soft/g16/l502.exe)
 Two-electron integral symmetry not used.
 Closed shell SCF:
 Using DIIS extrapolation, IDIIS=  1040.
 NGot=   280000000 LenX=   279961824 LenY=   279944483
 Requested convergence on RMS density matrix=1.00D-08 within 128 cycles.
 Requested convergence on MAX density matrix=1.00D-06.
 Requested convergence on             energy=1.00D-06.
 No special actions if energy rises.
 Fock matrices will be formed incrementally for  20 cycles.

 Cycle   1  Pass 1  IDiag  1:
 FoFJK:  IHMeth= 1 ICntrl=       0 DoSepK=F KAlg= 0 I1Cent=           0 FoldK=F
 IRaf= 990000000 NMat=       1 IRICut=       1 DoRegI=T DoRafI=F ISym2E= 0 IDoP0=0 IntGTp=1.
 FoFCou: FMM=F IPFlag=           0 FMFlag=      100000 FMFlg1=           0
         NFxFlg=           0 DoJE=F BraDBF=F KetDBF=F FulRan=T
         wScrn=  0.000000 ICntrl=         0 IOpCl=  0 I1Cent=           0 NGrid=           0
         NMat0=    1 NMatS0=      1 NMatT0=    0 NMatD0=    1 NMtDS0=    0 NMtDT0=    0
 Symmetry not used in FoFCou.
 E= -270.430740310344    
 DIIS: error= 6.14D-04 at cycle   1 NSaved=   1.
 NSaved= 1 IEnMin= 1 EnMin= -270.430740310344     IErMin= 1 ErrMin= 6.14D-04
 ErrMax= 6.14D-04  0.00D+00 EMaxC= 1.00D-01 BMatC= 1.14D-04 BMatP= 1.14D-04
 IDIUse=3 WtCom= 9.94D-01 WtEn= 6.14D-03
 Coeff-Com:  0.100D+01
 Coeff-En:   0.100D+01
 Coeff:      0.100D+01
 Gap=     0.455 Goal=   None    Shift=    0.000
 RMSDP=8.32D-04 MaxDP=2.47D-02              OVMax= 1.10D-02

 Cycle   2  Pass 1  IDiag  1:
 RMSU=  8.31D-04    CP:  9.99D-01
 E= -270.431019853799     Delta-E=       -0.000279543455 Rises=F Damp=F
 DIIS: error= 1.24D-04 at cycle   2 NSaved=   2.
 NSaved= 2 IEnMin= 2 EnMin= -270.431019853799     IErMin= 2 ErrMin= 1.24D-04
 ErrMax= 1.24D-04  0.00D+00 EMaxC= 1.00D-01 BMatC= 3.37D-06 BMatP= 1.14D-04
 IDIUse=3 WtCom= 9.99D-01 WtEn= 1.24D-03
 Coeff-Com: -0.476D-01 0.105D+01
 Coeff-En:   0.000D+00 0.100D+01
 Coeff:     -0.476D-01 0.105D+01
 Gap=     0.072 Goal=   None    Shift=    0.000
 RMSDP=1.71D-04 MaxDP=5.40D-03 DE=-2.80D-04 OVMax= 3.83D-03

 Cycle   3  Pass 1  IDiag  1:
 RMSU=  1.55D-04    CP:  1.00D+00  9.45D-01
 E= -270.431012848478     Delta-E=        0.000007005321 Rises=F Damp=F
 DIIS: error= 2.14D-04 at cycle   3 NSaved=   3.
 NSaved= 3 IEnMin= 2 EnMin= -270.431019853799     IErMin= 2 ErrMin= 1.24D-04
 ErrMax= 2.14D-04  0.00D+00 EMaxC= 1.00D-01 BMatC= 1.28D-05 BMatP= 3.37D-06
 IDIUse=3 WtCom= 4.06D-01 WtEn= 5.94D-01
 Coeff-Com: -0.497D-01 0.745D+00 0.305D+00
 Coeff-En:   0.000D+00 0.704D+00 0.296D+00
 Coeff:     -0.202D-01 0.721D+00 0.299D+00
 Gap=     0.071 Goal=   None    Shift=    0.000
 RMSDP=1.44D-04 MaxDP=4.15D-03 DE= 7.01D-06 OVMax= 6.32D-03

 Cycle   4  Pass 1  IDiag  1:
 RMSU=  1.16D-04    CP:  1.00D+00  1.03D+00  7.22D-01
 E= -270.431014620047     Delta-E=       -0.000001771569 Rises=F Damp=F
 DIIS: error= 2.41D-04 at cycle   4 NSaved=   4.
 NSaved= 4 IEnMin= 2 EnMin= -270.431019853799     IErMin= 2 ErrMin= 1.24D-04
 ErrMax= 2.41D-04  0.00D+00 EMaxC= 1.00D-01 BMatC= 9.92D-06 BMatP= 3.37D-06
 IDIUse=3 WtCom= 3.92D-01 WtEn= 6.08D-01
 Coeff-Com: -0.354D-01 0.400D+00 0.351D+00 0.285D+00
[...]
 Number     Number              X              Y              Z
 -------------------------------------------------------------------
      1        6           0.000686384    0.005039376    0.001150885
      2        1          -0.000739941    0.000163166    0.000214393
      3        1           0.000344489    0.000568500    0.000446702
      4        6          -0.001832335   -0.003605542   -0.003808182
      5        8           0.002946892   -0.038112282    0.013415176
      6        6           0.003193588    0.041299532   -0.015450295
      7        1           0.003537755   -0.001805365   -0.000100095
      8        1          -0.001330557    0.003173225   -0.002920702
      9        6          -0.001911480    0.000100302    0.014941162
     10        1           0.000731751   -0.002061956    0.003739353
     11        6          -0.005210622   -0.004852051   -0.007198582
     12        1          -0.002119391    0.000450808   -0.001011668
     13        1           0.000285833   -0.000613305   -0.001674798
     14        1           0.001417633    0.000255591   -0.001743350
 -------------------------------------------------------------------
 Cartesian Forces:  Max     0.041299532 RMS     0.009824055
 Z-matrix is all fixed cartesians, so copy forces.
 Leave Link  716 at Tue Oct 15 11:29:41 2019, MaxMem=   280000000 cpu:               0.6 elap:               0.0
 (Enter /home/soft/g16/l123.exe)
 IRC-IRC-IRC-IRC-IRC-IRC-IRC-IRC-IRC-IRC-IRC-IRC-IRC-IRC-IRC-IRC-IRC-IRC
 Pt 60 Step number   1 out of a maximum of  20
 Using modified Bulirsch-Stoer corrector integration.
   Using distance weighted interpolants to fit PES.
 PreDWI: IReCr0= 2 IReCr1= 1 IReCr2= 1 IReCr3= 1
 Modified Bulirsch-Stoer Extrapolation Cycles:
    EPS =    0.000010000000000
    Cycle     1 NS=    48
      PEZero:  N= 2 I= 1 D=  7.03D-04 Err=  2.96D-05
    Cycle     2 NS=    64 Truncation Error =  0.000029562
      PEZero:  N= 3 I= 2 D=  7.03D-04 Err=  1.97D-05
      PEZero:  N= 3 I= 1 D=  1.41D-03 Err=  7.11D-08
    Cycle     3 NS=    96 Truncation Error =  0.000000071
 BS completed in    3 cycles and     208 integration steps.
 Maximum DWI energy   std dev =  0.000004557 at pt    29
 Maximum DWI gradient std dev =  0.041415433 at pt    29
 SUMMARY OF CORRECTOR INTEGRATION:
   Predictor End Point Energy =  -270.464045
   Old End Point Energy       =  -270.464045
   Corrected End Point Energy =  -270.464053
   Predictor End-Start Dist.  =     0.134907
   Old End-Start Dist.        =     0.134907
   New End-Start Dist.        =     0.134847
   New End-Old End Dist.      =     0.005150
 CORRECTOR INTEGRATION CONVERGENCE:
   Recorrection delta-x convergence threshold:    0.010000
   Delta-x Convergence Met
 Point Number:  30          Path Number:   2
                    CURRENT STRUCTURE
                Cartesian Coordinates (Ang):                
 ---------------------------------------------------------------------
 Center     Atomic                     Coordinates (Angstroms)
 Number     Number                        X           Y           Z
 ---------------------------------------------------------------------
      1          6                    1.164736   -0.854673    0.309936
      2          1                    1.227441   -0.748608    1.394834
      3          1                    1.976415   -1.501927   -0.037344
      4          6                   -0.137109   -1.356951   -0.155234
      5          8                   -1.227366   -0.777437    0.079688
      6          6                   -1.172627    0.992568   -0.053397
      7          1                   -1.671795    0.835937   -1.008611
      8          1                   -1.871745    1.314319    0.718645
      9          6                    0.135422    1.455789    0.079464
     10          1                    0.288466    2.064532    0.971278
     11          6                    1.343811    0.676866   -0.286316
     12          1                    1.568151    0.550894   -1.351031
     13          1                    2.234372    1.099034    0.189743
     14          1                   -0.159766   -2.158278   -0.909657
 ---------------------------------------------------------------------
   CHANGE IN THE REACTION COORDINATE =    0.13485
   NET REACTION COORDINATE UP TO THIS POINT =    4.04542
  # OF POINTS ALONG THE PATH =  60
  # OF STEPS =   1

 Maximum number of steps reached.
 Calculation of REVERSE path complete.
 Reaction path calculation complete.
 
 Energies reported relative to the TS energy of        -270.430933
 --------------------------------------------------------------------------
    Summary of reaction path following
 --------------------------------------------------------------------------
                        Energy    RxCoord
   1                   -0.03312  -4.04542
   2                   -0.03059  -3.91057
   3                   -0.02816  -3.77573
   4                   -0.02584  -3.64088
   5                   -0.02365  -3.50605
   6                   -0.02158  -3.37121
   7                   -0.01964  -3.23636
   8                   -0.01782  -3.10156
   9                   -0.01614  -2.96686
  10                   -0.01456  -2.83216
  11                   -0.01309  -2.69737
  12                   -0.01171  -2.56252
  13                   -0.01044  -2.42767
  14                   -0.00925  -2.29291
  15                   -0.00814  -2.15811
  16                   -0.00711  -2.02337
  17                   -0.00615  -1.88851
  18                   -0.00526  -1.75363
  19                   -0.00445  -1.61873
  20                   -0.00371  -1.48384
  21                   -0.00303  -1.34894
  22                   -0.00243  -1.21404
  23                   -0.00190  -1.07914
  24                   -0.00143  -0.94424
  25                   -0.00103  -0.80935
  26                   -0.00071  -0.67445
  27                   -0.00044  -0.53955
  28                   -0.00024  -0.40466
  29                   -0.00011  -0.26977
  30                   -0.00003  -0.13489
  31                    0.00000   0.00000
  32                   -0.00002   0.13489
  33                   -0.00009   0.26977
  34                   -0.00021   0.40466
  35                   -0.00036   0.53955
  36                   -0.00054   0.67445
  37                   -0.00075   0.80935
  38                   -0.00099   0.94425
  39                   -0.00124   1.07915
  40                   -0.00152   1.21406
  41                   -0.00181   1.34896
  42                   -0.00211   1.48386
  43                   -0.00242   1.61875
  44                   -0.00273   1.75358
  45                   -0.00305   1.88816
  46                   -0.00337   2.02239
  47                   -0.00369   2.15616
  48                   -0.00401   2.29055
  49                   -0.00434   2.42525
  50                   -0.00466   2.56010
  51                   -0.00498   2.69497
  52                   -0.00530   2.82978
  53                   -0.00562   2.96447
  54                   -0.00594   3.09924
  55                   -0.00626   3.23399
  56                   -0.00659   3.36878
  57                   -0.00692   3.50362
  58                   -0.00727   3.63843
  59                   -0.00763   3.77325
  60                   -0.00800   3.90811
  61                   -0.00840   4.04293
 --------------------------------------------------------------------------
 
 Total number of points:                   60
 Total number of gradient calculations:    79
 Total number of Hessian calculations:      1
 IRC-IRC-IRC-IRC-IRC-IRC-IRC-IRC-IRC-IRC-IRC-IRC-IRC-IRC-IRC-IRC-IRC-IRC
 Leave Link  123 at Tue Oct 15 11:29:41 2019, MaxMem=   280000000 cpu:               0.8 elap:               0.1
 (Enter /home/soft/g16/l202.exe)
                          Input orientation:                          
 ---------------------------------------------------------------------
 Center     Atomic      Atomic             Coordinates (Angstroms)
 Number     Number       Type             X           Y           Z
 ---------------------------------------------------------------------
      1          6           0        1.164736   -0.854693    0.309926
      2          1           0        1.227436   -0.748611    1.394795
      3          1           0        1.976427   -1.501916   -0.037358
      4          6           0       -0.137114   -1.356943   -0.155294
      5          8           0       -1.227359   -0.777360    0.079708
      6          6           0       -1.172612    0.992534   -0.053238
      7          1           0       -1.672010    0.834958   -1.010582
      8          1           0       -1.872146    1.314470    0.718630
      9          6           0        0.135468    1.455812    0.079616
     10          1           0        0.288314    2.064167    0.970230
     11          6           0        1.343812    0.676875   -0.286339
     12          1           0        1.568107    0.550903   -1.351106
     13          1           0        2.234375    1.098987    0.189685
     14          1           0       -0.159772   -2.158107   -0.909197
 ---------------------------------------------------------------------
                    Distance matrix (angstroms):
                    1          2          3          4          5
     1  C    0.000000
     2  H    1.091845   0.000000
     3  H    1.094690   1.783121   0.000000
     4  C    1.470883   2.152868   2.121787   0.000000
     5  O    2.404392   2.785014   3.286782   1.256892   0.000000
     6  C    3.001222   3.299790   4.017335   2.569575   1.775724
     7  H    3.556092   4.086603   4.440635   2.809245   1.996501
     8  H    3.754325   3.784298   4.828567   3.303109   2.280290
     9  C    2.539857   2.789547   3.485824   2.835679   2.616172
    10  H    3.118311   2.995652   4.072089   3.626539   3.341343
    11  C    1.653270   2.207208   2.282395   2.519272   2.976527
    12  H    2.213015   3.056921   2.471179   2.824468   3.409713
    13  H    2.230572   2.424837   2.623506   3.431408   3.939083
    14  H    2.222492   3.036347   2.398758   1.100340   2.006026
                    6          7          8          9         10
     6  C    0.000000
     7  H    1.091209   0.000000
     8  H    1.090308   1.805592   0.000000
     9  C    1.394040   2.200220   2.111594   0.000000
    10  H    2.080911   3.045889   2.300638   1.089335   0.000000
    11  C    2.546834   3.105592   3.429122   1.483497   2.148865
    12  H    3.064480   3.270321   4.086830   2.217720   3.052284
    13  H    3.417295   4.095144   4.146050   2.131866   2.308241
    14  H    3.418341   3.354934   4.200100   3.758368   4.643343
                   11         12         13         14
    11  C    0.000000
    12  H    1.095402   0.000000
    13  H    1.094477   1.765885   0.000000
    14  H    3.268921   3.243391   4.189051   0.000000
 Symmetry turned off by external request.
 Stoichiometry    C5H8O
 Framework group  C1[X(C5H8O)]
 Deg. of freedom    36
 Full point group                 C1      NOp   1
 Rotational constants (GHZ):           4.7162200           4.5968971           2.5589892
 Leave Link  202 at Tue Oct 15 11:29:41 2019, MaxMem=   280000000 cpu:               1.1 elap:               0.1
 (Enter /home/soft/g16/l601.exe)
 Copying SCF densities to generalized density rwf, IOpCl= 0 IROHF=0.

 **********************************************************************

            Population analysis using the SCF density.

 **********************************************************************

 Alpha  occ. eigenvalues --  -19.18637 -10.27560 -10.21507 -10.20993 -10.20916
 Alpha  occ. eigenvalues --  -10.16596  -1.06679  -0.80373  -0.75806  -0.66713
 Alpha  occ. eigenvalues --   -0.60837  -0.55193  -0.50139  -0.47051  -0.45349
 Alpha  occ. eigenvalues --   -0.44656  -0.41206  -0.39973  -0.37336  -0.35546
 Alpha  occ. eigenvalues --   -0.34481  -0.29442  -0.18751
 Alpha virt. eigenvalues --   -0.06251   0.00674   0.01515   0.02526   0.02986
 Alpha virt. eigenvalues --    0.03830   0.05067   0.06564   0.06912   0.07709
 Alpha virt. eigenvalues --    0.08024   0.10182   0.10671   0.11394   0.11541
 Alpha virt. eigenvalues --    0.12187   0.12423   0.13399   0.15116   0.16681
 Alpha virt. eigenvalues --    0.17459   0.18853   0.19549   0.22030   0.23659
 Alpha virt. eigenvalues --    0.25196   0.25847   0.26173   0.27555   0.29881
 Alpha virt. eigenvalues --    0.31314   0.31538   0.32720   0.34438   0.34712
 Alpha virt. eigenvalues --    0.37006   0.38453   0.41225   0.42286   0.61607
 Alpha virt. eigenvalues --    0.64278   0.64656   0.66119   0.66942   0.69132
 Alpha virt. eigenvalues --    0.69624   0.74050   0.75465   0.77592   0.79888
 Alpha virt. eigenvalues --    0.81603   0.86615   0.88406   0.90722   0.94952
 Alpha virt. eigenvalues --    0.97411   0.98402   1.02612   1.05204   1.06949
 Alpha virt. eigenvalues --    1.09226   1.11437   1.18421   1.20754   1.23640
 Alpha virt. eigenvalues --    1.29560   1.33388   1.38035   1.42293   1.44705
 Alpha virt. eigenvalues --    1.47382   1.51502   1.55320   1.57484   1.65997
 Alpha virt. eigenvalues --    1.73769   1.76173   1.78985   1.82624   1.87330
 Alpha virt. eigenvalues --    1.90863   1.95397   2.01565   2.07670   2.10263
 Alpha virt. eigenvalues --    2.16523   2.19688   2.25126   2.26444   2.33122
 Alpha virt. eigenvalues --    2.34626   2.44657   2.46219   2.52784   2.57619
 Alpha virt. eigenvalues --    2.62695   2.67347   2.79454   2.80784   2.90955
 Alpha virt. eigenvalues --    2.98874   4.15744   4.22027   4.30461   4.35329
 Alpha virt. eigenvalues --    4.49560   4.53012
          Condensed to atoms (all electrons):
               1          2          3          4          5          6
     1  C    5.892393   0.386513   0.379599   0.135000  -0.090470  -0.001371
     2  H    0.386513   0.490241  -0.033993  -0.024001   0.000210  -0.003153
     3  H    0.379599  -0.033993   0.525469  -0.057881   0.008189   0.008446
     4  C    0.135000  -0.024001  -0.057881   5.266861   0.387890  -0.161561
     5  O   -0.090470   0.000210   0.008189   0.387890   8.266848  -0.002914
     6  C   -0.001371  -0.003153   0.008446  -0.161561  -0.002914   5.836180
     7  H    0.005756  -0.000121   0.000007  -0.031543  -0.054311   0.409841
     8  H   -0.004757   0.000105   0.000000   0.014026  -0.016930   0.407132
     9  C   -0.170686  -0.024447   0.018562   0.022171  -0.116918   0.161116
    10  H    0.002036   0.000548  -0.000090   0.004737   0.000744  -0.094221
    11  C    0.203734  -0.030526  -0.043889  -0.164261  -0.021497  -0.014961
    12  H   -0.055364   0.002785  -0.002331  -0.022159   0.001364  -0.018974
    13  H   -0.050752  -0.005328  -0.000539   0.003562   0.000947   0.011753
    14  H   -0.112886   0.003734  -0.003501   0.432578  -0.076430   0.017813
               7          8          9         10         11         12
     1  C    0.005756  -0.004757  -0.170686   0.002036   0.203734  -0.055364
     2  H   -0.000121   0.000105  -0.024447   0.000548  -0.030526   0.002785
     3  H    0.000007   0.000000   0.018562  -0.000090  -0.043889  -0.002331
     4  C   -0.031543   0.014026   0.022171   0.004737  -0.164261  -0.022159
     5  O   -0.054311  -0.016930  -0.116918   0.000744  -0.021497   0.001364
     6  C    0.409841   0.407132   0.161116  -0.094221  -0.014961  -0.018974
     7  H    0.526448  -0.037356  -0.041344   0.004966  -0.000859   0.001383
     8  H   -0.037356   0.512132  -0.079691  -0.009887   0.012280  -0.000112
     9  C   -0.041344  -0.079691   5.797680   0.461914   0.018874  -0.028804
    10  H    0.004966  -0.009887   0.461914   0.552913  -0.081868   0.004332
    11  C   -0.000859   0.012280   0.018874  -0.081868   5.807879   0.413134
    12  H    0.001383  -0.000112  -0.028804   0.004332   0.413134   0.528257
    13  H   -0.000168  -0.000083  -0.080873  -0.009545   0.438195  -0.036182
    14  H   -0.000787  -0.000096  -0.013962  -0.000000  -0.007824  -0.000286
              13         14
     1  C   -0.050752  -0.112886
     2  H   -0.005328   0.003734
     3  H   -0.000539  -0.003501
     4  C    0.003562   0.432578
     5  O    0.000947  -0.076430
     6  C    0.011753   0.017813
     7  H   -0.000168  -0.000787
     8  H   -0.000083  -0.000096
     9  C   -0.080873  -0.013962
    10  H   -0.009545  -0.000000
    11  C    0.438195  -0.007824
    12  H   -0.036182  -0.000286
    13  H    0.519382  -0.000114
    14  H   -0.000114   0.590576
 Mulliken charges:
               1
     1  C   -0.518746
     2  H    0.237433
     3  H    0.201952
     4  C    0.194581
     5  O   -0.286724
     6  C   -0.555126
     7  H    0.218086
     8  H    0.203237
     9  C    0.076408
    10  H    0.163420
    11  C   -0.528409
    12  H    0.212957
    13  H    0.209746
    14  H    0.171185
 Sum of Mulliken charges =  -0.00000
 Mulliken charges with hydrogens summed into heavy atoms:
               1
     1  C   -0.079361
     4  C    0.365766
     5  O   -0.286724
     6  C   -0.133803
     9  C    0.239829
    11  C   -0.105706
 APT charges:
               1
     1  C   -0.954758
     2  H    0.440896
     3  H    0.525095
     4  C   -0.182664
     5  O   -0.271868
     6  C   -1.084906
     7  H    0.473823
     8  H    0.511409
     9  C   -0.258087
    10  H    0.465613
    11  C   -1.146379
    12  H    0.444056
    13  H    0.538151
    14  H    0.499619
 Sum of APT charges =  -0.00000
 APT charges with hydrogens summed into heavy atoms:
               1
     1  C    0.011232
     4  C    0.316955
     5  O   -0.271868
     6  C   -0.099675
     9  C    0.207527
    11  C   -0.164172
 Electronic spatial extent (au):  <R**2>=            529.4167
 Charge=             -0.0000 electrons
 Dipole moment (field-independent basis, Debye):
    X=              1.5447    Y=             -1.2726    Z=             -0.0032  Tot=              2.0014
 Quadrupole moment (field-independent basis, Debye-Ang):
   XX=            -37.2617   YY=            -40.1234   ZZ=            -36.6179
   XY=             -2.3870   XZ=              0.5662   YZ=              2.6120
 Traceless Quadrupole moment (field-independent basis, Debye-Ang):
   XX=              0.7393   YY=             -2.1224   ZZ=              1.3831
   XY=             -2.3870   XZ=              0.5662   YZ=              2.6120
 Octapole moment (field-independent basis, Debye-Ang**2):
  XXX=             -5.0642  YYY=            -20.9014  ZZZ=              0.7733  XYY=             -1.1036
  XXY=              2.3504  XXZ=              0.7783  XZZ=             -3.0343  YZZ=             -3.0359
  YYZ=              2.5676  XYZ=             -0.2224
 Hexadecapole moment (field-independent basis, Debye-Ang**3):
 XXXX=           -318.5975 YYYY=           -360.4430 ZZZZ=            -78.0946 XXXY=             -1.7328
 XXXZ=             -0.6147 YYYX=              7.2003 YYYZ=             15.0752 ZZZX=              0.1844
 ZZZY=              0.0246 XXYY=           -109.6815 XXZZ=            -63.9485 YYZZ=            -69.6401
 XXYZ=              2.2414 YYXZ=             -0.6811 ZZXY=              0.8572
 N-N= 2.351619969861D+02 E-N=-1.098815806769D+03  KE= 2.679347282309D+02
  Exact polarizability:   0.000   0.000   0.000   0.000   0.000   0.000
 Approx polarizability: 110.905   7.903 164.083  -1.244   1.013  71.832
 No NMR shielding tensors so no spin-rotation constants.
 Leave Link  601 at Tue Oct 15 11:29:41 2019, MaxMem=   280000000 cpu:               2.4 elap:               0.1
 (Enter /home/soft/g16/l9999.exe)

 This type of calculation cannot be archived.


 Discoveries are often made by not following instructions,
 by going off the main road, by trying the untried.
 -- Frank Tyger
 Job cpu time:       0 days  2 hours 48 minutes 50.1 seconds.
 Elapsed time:       0 days  0 hours  7 minutes 40.3 seconds.
 File lengths (MBytes):  RWF=    332 Int=      0 D2E=      0 Chk=      8 Scr=      8
 Normal termination of Gaussian 16 at Tue Oct 15 11:29:41 2019.
