 Entering Gaussian System, Link 0=g16
 Input=Pb4.gjf
 Output=Pb4.log
 Initial command:
 /home/soft/g16/l1.exe "/tmp/gaussian/Gau-126477.inp" -scrdir="/tmp/gaussian/"
 Entering Link 1 = /home/soft/g16/l1.exe PID=    126478.
  
 Copyright (c) 1988,1990,1992,1993,1995,1998,2003,2009,2016,
            Gaussian, Inc.  All Rights Reserved.
  
 This is part of the Gaussian(R) 16 program.  It is based on
 the Gaussian(R) 09 system (copyright 2009, Gaussian, Inc.),
 the Gaussian(R) 03 system (copyright 2003, Gaussian, Inc.),
 the Gaussian(R) 98 system (copyright 1998, Gaussian, Inc.),
 the Gaussian(R) 94 system (copyright 1995, Gaussian, Inc.),
 the Gaussian 92(TM) system (copyright 1992, Gaussian, Inc.),
 the Gaussian 90(TM) system (copyright 1990, Gaussian, Inc.),
 the Gaussian 88(TM) system (copyright 1988, Gaussian, Inc.),
 the Gaussian 86(TM) system (copyright 1986, Carnegie Mellon
 University), and the Gaussian 82(TM) system (copyright 1983,
 Carnegie Mellon University). Gaussian is a federally registered
 trademark of Gaussian, Inc.
  
 This software contains proprietary and confidential information,
 including trade secrets, belonging to Gaussian, Inc.
  
 This software is provided under written license and may be
 used, copied, transmitted, or stored only in accord with that
 written license.
  
 The following legend is applicable only to US Government
 contracts under FAR:
  
                    RESTRICTED RIGHTS LEGEND
  
 Use, reproduction and disclosure by the US Government is
 subject to restrictions as set forth in subparagraphs (a)
 and (c) of the Commercial Computer Software - Restricted
 Rights clause in FAR 52.227-19.
  
 Gaussian, Inc.
 340 Quinnipiac St., Bldg. 40, Wallingford CT 06492
  
  
 ---------------------------------------------------------------
 Warning -- This program may not be used in any manner that
 competes with the business of Gaussian, Inc. or will provide
 assistance to any competitor of Gaussian, Inc.  The licensee
 of this program is prohibited from giving any competitor of
 Gaussian, Inc. access to this program.  By using this program,
 the user acknowledges that Gaussian, Inc. is engaged in the
 business of creating and licensing software in the field of
 computational chemistry and represents and warrants to the
 licensee that it is not a competitor of Gaussian, Inc. and that
 it will not use this program in any manner prohibited above.
 ---------------------------------------------------------------
  

 Cite this work as:
 Gaussian 16, Revision A.03,
 M. J. Frisch, G. W. Trucks, H. B. Schlegel, G. E. Scuseria, 
 M. A. Robb, J. R. Cheeseman, G. Scalmani, V. Barone, 
 G. A. Petersson, H. Nakatsuji, X. Li, M. Caricato, A. V. Marenich, 
 J. Bloino, B. G. Janesko, R. Gomperts, B. Mennucci, H. P. Hratchian, 
 J. V. Ortiz, A. F. Izmaylov, J. L. Sonnenberg, D. Williams-Young, 
 F. Ding, F. Lipparini, F. Egidi, J. Goings, B. Peng, A. Petrone, 
 T. Henderson, D. Ranasinghe, V. G. Zakrzewski, J. Gao, N. Rega, 
 G. Zheng, W. Liang, M. Hada, M. Ehara, K. Toyota, R. Fukuda, 
 J. Hasegawa, M. Ishida, T. Nakajima, Y. Honda, O. Kitao, H. Nakai, 
 T. Vreven, K. Throssell, J. A. Montgomery, Jr., J. E. Peralta, 
 F. Ogliaro, M. J. Bearpark, J. J. Heyd, E. N. Brothers, K. N. Kudin, 
 V. N. Staroverov, T. A. Keith, R. Kobayashi, J. Normand, 
 K. Raghavachari, A. P. Rendell, J. C. Burant, S. S. Iyengar, 
 J. Tomasi, M. Cossi, J. M. Millam, M. Klene, C. Adamo, R. Cammi, 
 J. W. Ochterski, R. L. Martin, K. Morokuma, O. Farkas, 
 J. B. Foresman, and D. J. Fox, Gaussian, Inc., Wallingford CT, 2016.
 
 ******************************************
 Gaussian 16:  ES64L-G16RevA.03 25-Dec-2016
                16-Oct-2019 
 ******************************************
 %chk=Pb4.chk
 %nprocshared=24
 Will use up to   24 processors via shared memory.
 ---------------------------
 #p opt freq b3lyp/6-31+g(d)
 ---------------------------
 1/18=20,19=15,26=3,38=1/1,3;
 2/9=110,12=2,17=6,18=5,40=1/2;
 3/5=1,6=6,7=11,11=2,25=1,30=1,71=1,74=-5/1,2,3;
 4//1;
 5/5=2,38=5/2;
 6/7=2,8=2,9=2,10=2,28=1/1;
 7//1,2,3,16;
 1/18=20,19=15,26=3/3(2);
 2/9=110/2;
 99//99;
 2/9=110/2;
 3/5=1,6=6,7=11,11=2,25=1,30=1,71=1,74=-5/1,2,3;
 4/5=5,16=3,69=1/1;
 5/5=2,38=5/2;
 7//1,2,3,16;
 1/18=20,19=15,26=3/3(-5);
 2/9=110/2;
 6/7=2,8=2,9=2,10=2,19=2,28=1/1;
 99/9=1/99;
 Leave Link    1 at Wed Oct 16 16:27:52 2019, MaxMem=           0 cpu:               2.1 elap:               0.1
 (Enter /home/soft/g16/l101.exe)
 -------------------
 Title Card Required
 -------------------
 Symbolic Z-matrix:
 Charge =  0 Multiplicity = 1
 C                    -1.06682   0.94878  -0.22052 
 H                    -1.09135   0.95514  -1.31691 
 H                    -1.79119   1.67524   0.16405 
 C                    -1.39423  -0.4381    0.27775 
 O                    -1.0596   -1.45168  -0.29038 
 C                     1.89502  -0.67795   0.26162 
 H                     1.57809  -0.98816   1.25572 
 H                     2.60999  -1.32086  -0.2365 
 C                     1.42767   0.42863  -0.3161 
 H                     1.7628    0.68525  -1.32328 
 C                     0.37383   1.32545   0.28302 
 H                     0.38571   1.25708   1.37573 
 H                     0.56056   2.37347   0.02136 
 H                    -1.90847  -0.49183   1.26573 
 
 ITRead=  0  0  0  0  0  0  0  0  0  0  0  0  0  0
 MicOpt= -1 -1 -1 -1 -1 -1 -1 -1 -1 -1 -1 -1 -1 -1
 NAtoms=     14 NQM=       14 NQMF=       0 NMMI=      0 NMMIF=      0
                NMic=       0 NMicF=      0.
                    Isotopes and Nuclear Properties:
 (Nuclear quadrupole moments (NQMom) in fm**2, nuclear magnetic moments (NMagM)
  in nuclear magnetons)

  Atom         1           2           3           4           5           6           7           8           9          10
 IAtWgt=          12           1           1          12          16          12           1           1          12           1
 AtmWgt=  12.0000000   1.0078250   1.0078250  12.0000000  15.9949146  12.0000000   1.0078250   1.0078250  12.0000000   1.0078250
 NucSpn=           0           1           1           0           0           0           1           1           0           1
 AtZEff=  -0.0000000  -0.0000000  -0.0000000  -0.0000000  -0.0000000  -0.0000000  -0.0000000  -0.0000000  -0.0000000  -0.0000000
 NQMom=    0.0000000   0.0000000   0.0000000   0.0000000   0.0000000   0.0000000   0.0000000   0.0000000   0.0000000   0.0000000
 NMagM=    0.0000000   2.7928460   2.7928460   0.0000000   0.0000000   0.0000000   2.7928460   2.7928460   0.0000000   2.7928460
 AtZNuc=   6.0000000   1.0000000   1.0000000   6.0000000   8.0000000   6.0000000   1.0000000   1.0000000   6.0000000   1.0000000

  Atom        11          12          13          14
 IAtWgt=          12           1           1           1
 AtmWgt=  12.0000000   1.0078250   1.0078250   1.0078250
 NucSpn=           0           1           1           1
 AtZEff=  -0.0000000  -0.0000000  -0.0000000  -0.0000000
 NQMom=    0.0000000   0.0000000   0.0000000   0.0000000
 NMagM=    0.0000000   2.7928460   2.7928460   2.7928460
 AtZNuc=   6.0000000   1.0000000   1.0000000   1.0000000
 Leave Link  101 at Wed Oct 16 16:27:52 2019, MaxMem=   280000000 cpu:               4.6 elap:               0.3
 (Enter /home/soft/g16/l103.exe)

 GradGradGradGradGradGradGradGradGradGradGradGradGradGradGradGradGradGrad
 Berny optimization.
 Initialization pass.
                           ----------------------------
                           !    Initial Parameters    !
                           ! (Angstroms and Degrees)  !
 --------------------------                            --------------------------
 ! Name  Definition              Value          Derivative Info.                !
 --------------------------------------------------------------------------------
 ! R1    R(1,2)                  1.0967         estimate D2E/DX2                !
 ! R2    R(1,3)                  1.0956         estimate D2E/DX2                !
 ! R3    R(1,4)                  1.5096         estimate D2E/DX2                !
 ! R4    R(1,11)                 1.5719         estimate D2E/DX2                !
 ! R5    R(4,5)                  1.2092         estimate D2E/DX2                !
 ! R6    R(4,14)                 1.1151         estimate D2E/DX2                !
 ! R7    R(6,7)                  1.0885         estimate D2E/DX2                !
 ! R8    R(6,8)                  1.0829         estimate D2E/DX2                !
 ! R9    R(6,9)                  1.3329         estimate D2E/DX2                !
 ! R10   R(9,10)                 1.092          estimate D2E/DX2                !
 ! R11   R(9,11)                 1.5079         estimate D2E/DX2                !
 ! R12   R(11,12)                1.0949         estimate D2E/DX2                !
 ! R13   R(11,13)                1.0962         estimate D2E/DX2                !
 ! A1    A(2,1,3)              109.4069         estimate D2E/DX2                !
 ! A2    A(2,1,4)              109.2967         estimate D2E/DX2                !
 ! A3    A(2,1,11)             109.8376         estimate D2E/DX2                !
 ! A4    A(3,1,4)              110.4822         estimate D2E/DX2                !
 ! A5    A(3,1,11)             109.5494         estimate D2E/DX2                !
 ! A6    A(4,1,11)             108.2517         estimate D2E/DX2                !
 ! A7    A(1,4,5)              123.7108         estimate D2E/DX2                !
 ! A8    A(1,4,14)             115.8951         estimate D2E/DX2                !
 ! A9    A(5,4,14)             120.2332         estimate D2E/DX2                !
 ! A10   A(7,6,8)              116.3034         estimate D2E/DX2                !
 ! A11   A(7,6,9)              122.0278         estimate D2E/DX2                !
 ! A12   A(8,6,9)              121.6684         estimate D2E/DX2                !
 ! A13   A(6,9,10)             119.1589         estimate D2E/DX2                !
 ! A14   A(6,9,11)             124.5119         estimate D2E/DX2                !
 ! A15   A(10,9,11)            116.177          estimate D2E/DX2                !
 ! A16   A(1,11,9)             111.7601         estimate D2E/DX2                !
 ! A17   A(1,11,12)            108.3408         estimate D2E/DX2                !
 ! A18   A(1,11,13)            107.9843         estimate D2E/DX2                !
 ! A19   A(9,11,12)            110.5972         estimate D2E/DX2                !
 ! A20   A(9,11,13)            110.776          estimate D2E/DX2                !
 ! A21   A(12,11,13)           107.2211         estimate D2E/DX2                !
 ! D1    D(2,1,4,5)             35.1346         estimate D2E/DX2                !
 ! D2    D(2,1,4,14)          -149.479          estimate D2E/DX2                !
 ! D3    D(3,1,4,5)            155.5719         estimate D2E/DX2                !
 ! D4    D(3,1,4,14)           -29.0417         estimate D2E/DX2                !
 ! D5    D(11,1,4,5)           -84.4739         estimate D2E/DX2                !
 ! D6    D(11,1,4,14)           90.9126         estimate D2E/DX2                !
 ! D7    D(2,1,11,9)           -54.7727         estimate D2E/DX2                !
 ! D8    D(2,1,11,12)         -176.8717         estimate D2E/DX2                !
 ! D9    D(2,1,11,13)           67.3087         estimate D2E/DX2                !
 ! D10   D(3,1,11,9)          -174.9679         estimate D2E/DX2                !
 ! D11   D(3,1,11,12)           62.9331         estimate D2E/DX2                !
 ! D12   D(3,1,11,13)          -52.8865         estimate D2E/DX2                !
 ! D13   D(4,1,11,9)            64.495          estimate D2E/DX2                !
 ! D14   D(4,1,11,12)          -57.604          estimate D2E/DX2                !
 ! D15   D(4,1,11,13)         -173.4235         estimate D2E/DX2                !
 ! D16   D(7,6,9,10)          -178.8073         estimate D2E/DX2                !
 ! D17   D(7,6,9,11)            -3.4722         estimate D2E/DX2                !
 ! D18   D(8,6,9,10)             0.9431         estimate D2E/DX2                !
 ! D19   D(8,6,9,11)           176.2781         estimate D2E/DX2                !
 ! D20   D(6,9,11,1)           -93.8364         estimate D2E/DX2                !
 ! D21   D(6,9,11,12)           26.958          estimate D2E/DX2                !
 ! D22   D(6,9,11,13)          145.6992         estimate D2E/DX2                !
 ! D23   D(10,9,11,1)           81.6245         estimate D2E/DX2                !
 ! D24   D(10,9,11,12)        -157.5811         estimate D2E/DX2                !
 ! D25   D(10,9,11,13)         -38.8399         estimate D2E/DX2                !
 --------------------------------------------------------------------------------
 Trust Radius=3.00D-01 FncErr=1.00D-07 GrdErr=1.00D-06 EigMax=2.50D+02 EigMin=1.00D-04
 Number of steps in this run=     69 maximum allowed number of steps=    100.
 GradGradGradGradGradGradGradGradGradGradGradGradGradGradGradGradGradGrad

 Leave Link  103 at Wed Oct 16 16:27:52 2019, MaxMem=   280000000 cpu:               0.9 elap:               0.1
 (Enter /home/soft/g16/l202.exe)
                          Input orientation:                          
 ---------------------------------------------------------------------
 Center     Atomic      Atomic             Coordinates (Angstroms)
 Number     Number       Type             X           Y           Z
 ---------------------------------------------------------------------
      1          6           0       -1.066821    0.948776   -0.220515
      2          1           0       -1.091354    0.955144   -1.316912
      3          1           0       -1.791193    1.675243    0.164053
      4          6           0       -1.394227   -0.438095    0.277749
      5          8           0       -1.059601   -1.451683   -0.290380
      6          6           0        1.895017   -0.677946    0.261624
      7          1           0        1.578094   -0.988155    1.255723
      8          1           0        2.609994   -1.320855   -0.236495
      9          6           0        1.427667    0.428626   -0.316104
     10          1           0        1.762798    0.685253   -1.323277
     11          6           0        0.373830    1.325452    0.283016
     12          1           0        0.385711    1.257081    1.375730
     13          1           0        0.560564    2.373471    0.021363
     14          1           0       -1.908469   -0.491825    1.265733
 ---------------------------------------------------------------------
                    Distance matrix (angstroms):
                    1          2          3          4          5
     1  C    0.000000
     2  H    1.096690   0.000000
     3  H    1.095610   1.789294   0.000000
     4  C    1.509594   2.139110   2.153301   0.000000
     5  O    2.401486   2.616790   3.243363   1.209176   0.000000
     6  C    3.413381   3.751956   4.374376   3.298017   3.103731
     7  H    3.595352   4.185787   4.431425   3.177057   3.092366
     8  H    4.320931   4.477438   5.339240   4.132493   3.672322
     9  C    2.549934   2.761214   3.485063   3.011138   3.118129
    10  H    3.048323   2.866891   3.977824   3.713758   3.687724
    11  C    1.571911   2.200832   2.196322   2.497229   3.177418
    12  H    2.180115   3.085970   2.526249   2.692093   3.493172
    13  H    2.176383   2.555673   2.457365   3.433926   4.165804
    14  H    2.234421   3.071067   2.433852   1.115098   2.015786
                    6          7          8          9         10
     6  C    0.000000
     7  H    1.088532   0.000000
     8  H    1.082888   1.844511   0.000000
     9  C    1.332924   2.121447   2.113035   0.000000
    10  H    2.094685   3.079878   2.433784   1.092047   0.000000
    11  C    2.515566   2.783736   3.503322   1.507917   2.217941
    12  H    2.695100   2.545047   3.767288   2.152745   3.083504
    13  H    3.339107   3.722840   4.232576   2.155962   2.470527
    14  H    3.938195   3.521728   4.833269   3.805160   4.643995
                   11         12         13         14
    11  C    0.000000
    12  H    1.094915   0.000000
    13  H    1.096210   1.763862   0.000000
    14  H    3.078493   2.886873   3.981771   0.000000
 Stoichiometry    C5H8O
 Framework group  C1[X(C5H8O)]
 Deg. of freedom    36
 Full point group                 C1      NOp   1
 Largest Abelian subgroup         C1      NOp   1
 Largest concise Abelian subgroup C1      NOp   1
                         Standard orientation:                         
 ---------------------------------------------------------------------
 Center     Atomic      Atomic             Coordinates (Angstroms)
 Number     Number       Type             X           Y           Z
 ---------------------------------------------------------------------
      1          6           0       -0.978309    1.025736   -0.223039
      2          1           0       -1.013264    1.035321   -1.319130
      3          1           0       -1.608494    1.831990    0.168350
      4          6           0       -1.460893   -0.313355    0.279773
      5          8           0       -1.253308   -1.358988   -0.290900
      6          6           0        1.777199   -0.937208    0.229939
      7          1           0        1.436389   -1.208467    1.227521
      8          1           0        2.406676   -1.659338   -0.274970
      9          6           0        1.436865    0.216731   -0.343895
     10          1           0        1.789339    0.432647   -1.354691
     11          6           0        0.501699    1.230722    0.265285
     12          1           0        0.516781    1.161046    1.357877
     13          1           0        0.807306    2.249710    0.000814
     14          1           0       -1.967642   -0.306767    1.273053
 ---------------------------------------------------------------------
 Rotational constants (GHZ):           4.9628076           3.1101626           2.1464330
 Leave Link  202 at Wed Oct 16 16:27:52 2019, MaxMem=   280000000 cpu:               0.8 elap:               0.1
 (Enter /home/soft/g16/l301.exe)
 Standard basis: 6-31+G(d) (6D, 7F)
 Ernie: Thresh=  0.10000D-02 Tol=  0.10000D-05 Strict=F.
 There are   130 symmetry adapted cartesian basis functions of A   symmetry.
 There are   130 symmetry adapted basis functions of A   symmetry.
   130 basis functions,   224 primitive gaussians,   130 cartesian basis functions
    23 alpha electrons       23 beta electrons
       nuclear repulsion energy       223.9240970837 Hartrees.
 IExCor=  402 DFT=T Ex+Corr=B3LYP ExCW=0 ScaHFX=  0.200000
 ScaDFX=  0.800000  0.720000  1.000000  0.810000 ScalE2=  1.000000  1.000000
 IRadAn=      5 IRanWt=     -1 IRanGd=            0 ICorTp=0 IEmpDi=  4
 NAtoms=   14 NActive=   14 NUniq=   14 SFac= 1.00D+00 NAtFMM=   60 NAOKFM=F Big=F
 Integral buffers will be    131072 words long.
 Raffenetti 2 integral format.
 Two-electron integral symmetry is turned on.
 Leave Link  301 at Wed Oct 16 16:27:52 2019, MaxMem=   280000000 cpu:               2.3 elap:               0.1
 (Enter /home/soft/g16/l302.exe)
 NPDir=0 NMtPBC=     1 NCelOv=     1 NCel=       1 NClECP=     1 NCelD=      1
         NCelK=      1 NCelE2=     1 NClLst=     1 CellRange=     0.0.
 One-electron integrals computed using PRISM.
 One-electron integral symmetry used in STVInt
 NBasis=   130 RedAO= T EigKep=  7.20D-05  NBF=   130
 NBsUse=   130 1.00D-06 EigRej= -1.00D+00 NBFU=   130
 Precomputing XC quadrature grid using
 IXCGrd= 4 IRadAn=           5 IRanWt=          -1 IRanGd=           0 AccXCQ= 0.00D+00.
 Generated NRdTot=       0 NPtTot=           0 NUsed=           0 NTot=          32
 NSgBfM=   130   130   130   130   130 MxSgAt=    14 MxSgA2=    14.
 Leave Link  302 at Wed Oct 16 16:27:53 2019, MaxMem=   280000000 cpu:               4.5 elap:               0.3
 (Enter /home/soft/g16/l303.exe)
 DipDrv:  MaxL=1.
 Leave Link  303 at Wed Oct 16 16:27:53 2019, MaxMem=   280000000 cpu:               0.6 elap:               0.1
 (Enter /home/soft/g16/l401.exe)
 ExpMin= 4.38D-02 ExpMax= 5.48D+03 ExpMxC= 8.25D+02 IAcc=3 IRadAn=         5 AccDes= 0.00D+00
 Harris functional with IExCor=  402 and IRadAn=       5 diagonalized for initial guess.
 HarFok:  IExCor=  402 AccDes= 0.00D+00 IRadAn=         5 IDoV= 1 UseB2=F ITyADJ=14
 ICtDFT=  3500011 ScaDFX=  1.000000  1.000000  1.000000  1.000000
 FoFCou: FMM=F IPFlag=           0 FMFlag=      100000 FMFlg1=           0
         NFxFlg=           0 DoJE=T BraDBF=F KetDBF=T FulRan=T
         wScrn=  0.000000 ICntrl=       500 IOpCl=  0 I1Cent=   200000004 NGrid=           0
         NMat0=    1 NMatS0=      1 NMatT0=    0 NMatD0=    1 NMtDS0=    0 NMtDT0=    0
 Petite list used in FoFCou.
 Harris En= -270.576126763446    
 JPrj=0 DoOrth=F DoCkMO=F.
 Leave Link  401 at Wed Oct 16 16:27:53 2019, MaxMem=   280000000 cpu:               8.5 elap:               0.4
 (Enter /home/soft/g16/l502.exe)
 Integral symmetry usage will be decided dynamically.
 Closed shell SCF:
 Using DIIS extrapolation, IDIIS=  1040.
 NGot=   280000000 LenX=   279961518 LenY=   279944177
 Requested convergence on RMS density matrix=1.00D-08 within 128 cycles.
 Requested convergence on MAX density matrix=1.00D-06.
 Requested convergence on             energy=1.00D-06.
 No special actions if energy rises.
 Fock matrices will be formed incrementally for  20 cycles.

 Cycle   1  Pass 1  IDiag  1:
 FoFJK:  IHMeth= 1 ICntrl=       0 DoSepK=F KAlg= 0 I1Cent=           0 FoldK=F
 IRaf= 990000000 NMat=       1 IRICut=       1 DoRegI=T DoRafI=F ISym2E= 0 IDoP0=0 IntGTp=1.
 FoFCou: FMM=F IPFlag=           0 FMFlag=      100000 FMFlg1=           0
         NFxFlg=           0 DoJE=F BraDBF=F KetDBF=F FulRan=T
         wScrn=  0.000000 ICntrl=         0 IOpCl=  0 I1Cent=           0 NGrid=           0
         NMat0=    1 NMatS0=      1 NMatT0=    0 NMatD0=    1 NMtDS0=    0 NMtDT0=    0
 Symmetry not used in FoFCou.
 E= -270.355936814628    
 DIIS: error= 2.33D-02 at cycle   1 NSaved=   1.
 NSaved= 1 IEnMin= 1 EnMin= -270.355936814628     IErMin= 1 ErrMin= 2.33D-02
 ErrMax= 2.33D-02  0.00D+00 EMaxC= 1.00D-01 BMatC= 1.82D-01 BMatP= 1.82D-01
 IDIUse=3 WtCom= 7.67D-01 WtEn= 2.33D-01
 Coeff-Com:  0.100D+01
 Coeff-En:   0.100D+01
 Coeff:      0.100D+01
 Gap=     0.177 Goal=   None    Shift=    0.000
 GapD=    0.177 DampG=1.000 DampE=0.500 DampFc=0.5000 IDamp=-1.
 Damping current iteration by 5.00D-01
 RMSDP=1.76D-02 MaxDP=6.23D-01              OVMax= 2.12D-01

 Cycle   2  Pass 1  IDiag  1:
 RMSU=  8.82D-03    CP:  9.94D-01
 E= -270.412922576585     Delta-E=       -0.056985761957 Rises=F Damp=T
 DIIS: error= 9.21D-03 at cycle   2 NSaved=   2.
 NSaved= 2 IEnMin= 2 EnMin= -270.412922576585     IErMin= 2 ErrMin= 9.21D-03
 ErrMax= 9.21D-03  0.00D+00 EMaxC= 1.00D-01 BMatC= 2.67D-02 BMatP= 1.82D-01
 IDIUse=3 WtCom= 9.08D-01 WtEn= 9.21D-02
 Coeff-Com:  0.208D+00 0.792D+00
 Coeff-En:   0.310D+00 0.690D+00
 Coeff:      0.217D+00 0.783D+00
 Gap=     0.254 Goal=   None    Shift=    0.000
 RMSDP=6.92D-03 MaxDP=3.23D-01 DE=-5.70D-02 OVMax= 1.44D-01

 Cycle   3  Pass 1  IDiag  1:
 RMSU=  3.39D-03    CP:  9.62D-01  3.23D-01
 E= -270.519931489304     Delta-E=       -0.107008912719 Rises=F Damp=F
 DIIS: error= 1.10D-02 at cycle   3 NSaved=   3.
 NSaved= 3 IEnMin= 3 EnMin= -270.519931489304     IErMin= 2 ErrMin= 9.21D-03
 ErrMax= 1.10D-02  0.00D+00 EMaxC= 1.00D-01 BMatC= 2.63D-02 BMatP= 2.67D-02
 IDIUse=3 WtCom= 8.90D-01 WtEn= 1.10D-01
 Coeff-Com:  0.629D-01 0.494D+00 0.443D+00
 Coeff-En:   0.000D+00 0.000D+00 0.100D+01
 Coeff:      0.560D-01 0.440D+00 0.504D+00
 Gap=     0.219 Goal=   None    Shift=    0.000
 RMSDP=1.73D-03 MaxDP=4.61D-02 DE=-1.07D-01 OVMax= 6.97D-02

 Cycle   4  Pass 1  IDiag  1:
 RMSU=  1.46D-03    CP:  9.71D-01  3.71D-01  7.66D-01
 E= -270.537888915675     Delta-E=       -0.017957426371 Rises=F Damp=F
 DIIS: error= 4.55D-03 at cycle   4 NSaved=   4.
 NSaved= 4 IEnMin= 4 EnMin= -270.537888915675     IErMin= 4 ErrMin= 4.55D-03
 ErrMax= 4.55D-03  0.00D+00 EMaxC= 1.00D-01 BMatC= 4.91D-03 BMatP= 2.63D-02
 IDIUse=3 WtCom= 9.55D-01 WtEn= 4.55D-02
 Coeff-Com:  0.360D-02 0.707D-01 0.311D+00 0.615D+00
 Coeff-En:   0.000D+00 0.000D+00 0.194D+00 0.806D+00
 Coeff:      0.344D-02 0.675D-01 0.305D+00 0.624D+00
 Gap=     0.213 Goal=   None    Shift=    0.000
 RMSDP=7.37D-04 MaxDP=1.33D-02 DE=-1.80D-02 OVMax= 1.87D-02

 Cycle   5  Pass 1  IDiag  1:
 RMSU=  4.34D-04    CP:  9.68D-01  3.55D-01  8.41D-01  6.50D-01
 E= -270.541836355990     Delta-E=       -0.003947440315 Rises=F Damp=F
 DIIS: error= 4.66D-04 at cycle   5 NSaved=   5.
 NSaved= 5 IEnMin= 5 EnMin= -270.541836355990     IErMin= 5 ErrMin= 4.66D-04
 ErrMax= 4.66D-04  0.00D+00 EMaxC= 1.00D-01 BMatC= 7.06D-05 BMatP= 4.91D-03
 IDIUse=3 WtCom= 9.95D-01 WtEn= 4.66D-03
 Coeff-Com: -0.922D-03 0.641D-02 0.104D+00 0.254D+00 0.637D+00
 Coeff-En:   0.000D+00 0.000D+00 0.000D+00 0.000D+00 0.100D+01
 Coeff:     -0.917D-03 0.638D-02 0.103D+00 0.253D+00 0.639D+00
 Gap=     0.211 Goal=   None    Shift=    0.000
 RMSDP=1.55D-04 MaxDP=2.27D-03 DE=-3.95D-03 OVMax= 4.00D-03

 Cycle   6  Pass 1  IDiag  1:
 RMSU=  8.06D-05    CP:  9.68D-01  3.49D-01  8.44D-01  6.69D-01  7.26D-01
 E= -270.541883548883     Delta-E=       -0.000047192893 Rises=F Damp=F
 DIIS: error= 2.69D-04 at cycle   6 NSaved=   6.
 NSaved= 6 IEnMin= 6 EnMin= -270.541883548883     IErMin= 6 ErrMin= 2.69D-04
 ErrMax= 2.69D-04  0.00D+00 EMaxC= 1.00D-01 BMatC= 2.12D-05 BMatP= 7.06D-05
 IDIUse=3 WtCom= 9.97D-01 WtEn= 2.69D-03
 Coeff-Com: -0.588D-03-0.136D-02 0.445D-01 0.117D+00 0.409D+00 0.431D+00
 Coeff-En:   0.000D+00 0.000D+00 0.000D+00 0.000D+00 0.231D+00 0.769D+00
 Coeff:     -0.586D-03-0.136D-02 0.444D-01 0.116D+00 0.409D+00 0.432D+00
 Gap=     0.211 Goal=   None    Shift=    0.000
 RMSDP=4.19D-05 MaxDP=1.07D-03 DE=-4.72D-05 OVMax= 2.03D-03

 Cycle   7  Pass 1  IDiag  1:
 RMSU=  3.43D-05    CP:  9.67D-01  3.49D-01  8.45D-01  6.67D-01  7.29D-01
                    CP:  7.20D-01
 E= -270.541905278044     Delta-E=       -0.000021729162 Rises=F Damp=F
 DIIS: error= 4.01D-05 at cycle   7 NSaved=   7.
 NSaved= 7 IEnMin= 7 EnMin= -270.541905278044     IErMin= 7 ErrMin= 4.01D-05
 ErrMax= 4.01D-05  0.00D+00 EMaxC= 1.00D-01 BMatC= 4.57D-07 BMatP= 2.12D-05
 IDIUse=1 WtCom= 1.00D+00 WtEn= 0.00D+00
 Coeff-Com:  0.437D-04-0.120D-02 0.806D-02 0.209D-01 0.995D-01 0.171D+00
 Coeff-Com:  0.701D+00
 Coeff:      0.437D-04-0.120D-02 0.806D-02 0.209D-01 0.995D-01 0.171D+00
 Coeff:      0.701D+00
 Gap=     0.211 Goal=   None    Shift=    0.000
 RMSDP=1.14D-05 MaxDP=1.73D-04 DE=-2.17D-05 OVMax= 2.98D-04

 Cycle   8  Pass 1  IDiag  1:
 RMSU=  6.72D-06    CP:  9.67D-01  3.48D-01  8.46D-01  6.66D-01  7.39D-01
                    CP:  7.29D-01  8.03D-01
 E= -270.541905711034     Delta-E=       -0.000000432990 Rises=F Damp=F
 DIIS: error= 1.04D-05 at cycle   8 NSaved=   8.
 NSaved= 8 IEnMin= 8 EnMin= -270.541905711034     IErMin= 8 ErrMin= 1.04D-05
 ErrMax= 1.04D-05  0.00D+00 EMaxC= 1.00D-01 BMatC= 4.64D-08 BMatP= 4.57D-07
 IDIUse=1 WtCom= 1.00D+00 WtEn= 0.00D+00
 Coeff-Com:  0.895D-04-0.589D-03 0.119D-02 0.275D-02 0.227D-01 0.526D-01
 Coeff-Com:  0.330D+00 0.591D+00
 Coeff:      0.895D-04-0.589D-03 0.119D-02 0.275D-02 0.227D-01 0.526D-01
 Coeff:      0.330D+00 0.591D+00
 Gap=     0.211 Goal=   None    Shift=    0.000
 RMSDP=2.43D-06 MaxDP=4.50D-05 DE=-4.33D-07 OVMax= 4.99D-05

 Cycle   9  Pass 1  IDiag  1:
 RMSU=  1.75D-06    CP:  9.67D-01  3.48D-01  8.46D-01  6.66D-01  7.41D-01
                    CP:  7.34D-01  8.11D-01  8.74D-01
 E= -270.541905752441     Delta-E=       -0.000000041407 Rises=F Damp=F
 DIIS: error= 2.72D-06 at cycle   9 NSaved=   9.
 NSaved= 9 IEnMin= 9 EnMin= -270.541905752441     IErMin= 9 ErrMin= 2.72D-06
 ErrMax= 2.72D-06  0.00D+00 EMaxC= 1.00D-01 BMatC= 2.68D-09 BMatP= 4.64D-08
 IDIUse=1 WtCom= 1.00D+00 WtEn= 0.00D+00
 Coeff-Com:  0.414D-04-0.938D-04-0.373D-03-0.129D-02-0.246D-02-0.130D-02
 Coeff-Com:  0.444D-01 0.214D+00 0.747D+00
 Coeff:      0.414D-04-0.938D-04-0.373D-03-0.129D-02-0.246D-02-0.130D-02
 Coeff:      0.444D-01 0.214D+00 0.747D+00
 Gap=     0.211 Goal=   None    Shift=    0.000
 RMSDP=1.06D-06 MaxDP=1.71D-05 DE=-4.14D-08 OVMax= 1.36D-05

 Cycle  10  Pass 1  IDiag  1:
 RMSU=  4.85D-07    CP:  9.67D-01  3.48D-01  8.46D-01  6.66D-01  7.41D-01
                    CP:  7.36D-01  8.26D-01  8.78D-01  8.32D-01
 E= -270.541905755205     Delta-E=       -0.000000002764 Rises=F Damp=F
 DIIS: error= 3.34D-07 at cycle  10 NSaved=  10.
 NSaved=10 IEnMin=10 EnMin= -270.541905755205     IErMin=10 ErrMin= 3.34D-07
 ErrMax= 3.34D-07  0.00D+00 EMaxC= 1.00D-01 BMatC= 3.24D-11 BMatP= 2.68D-09
 IDIUse=1 WtCom= 1.00D+00 WtEn= 0.00D+00
 Coeff-Com:  0.582D-05-0.485D-05-0.921D-04-0.319D-03-0.102D-02-0.175D-02
 Coeff-Com: -0.310D-03 0.236D-01 0.151D+00 0.829D+00
 Coeff:      0.582D-05-0.485D-05-0.921D-04-0.319D-03-0.102D-02-0.175D-02
 Coeff:     -0.310D-03 0.236D-01 0.151D+00 0.829D+00
 Gap=     0.211 Goal=   None    Shift=    0.000
 RMSDP=1.31D-07 MaxDP=2.76D-06 DE=-2.76D-09 OVMax= 1.93D-06

 Cycle  11  Pass 1  IDiag  1:
 RMSU=  7.84D-08    CP:  9.67D-01  3.48D-01  8.46D-01  6.66D-01  7.41D-01
                    CP:  7.36D-01  8.25D-01  8.87D-01  8.55D-01  9.10D-01
 E= -270.541905755236     Delta-E=       -0.000000000031 Rises=F Damp=F
 DIIS: error= 1.18D-07 at cycle  11 NSaved=  11.
 NSaved=11 IEnMin=11 EnMin= -270.541905755236     IErMin=11 ErrMin= 1.18D-07
 ErrMax= 1.18D-07  0.00D+00 EMaxC= 1.00D-01 BMatC= 2.53D-12 BMatP= 3.24D-11
 IDIUse=1 WtCom= 1.00D+00 WtEn= 0.00D+00
 Coeff-Com:  0.318D-06 0.160D-05-0.142D-04-0.573D-04-0.227D-03-0.514D-03
 Coeff-Com: -0.158D-02-0.138D-03 0.214D-01 0.253D+00 0.728D+00
 Coeff:      0.318D-06 0.160D-05-0.142D-04-0.573D-04-0.227D-03-0.514D-03
 Coeff:     -0.158D-02-0.138D-03 0.214D-01 0.253D+00 0.728D+00
 Gap=     0.211 Goal=   None    Shift=    0.000
 RMSDP=3.02D-08 MaxDP=5.17D-07 DE=-3.10D-11 OVMax= 5.65D-07

 Cycle  12  Pass 1  IDiag  1:
 RMSU=  1.72D-08    CP:  9.67D-01  3.48D-01  8.46D-01  6.66D-01  7.41D-01
                    CP:  7.36D-01  8.25D-01  8.87D-01  8.58D-01  9.37D-01
                    CP:  9.62D-01
 E= -270.541905755240     Delta-E=       -0.000000000004 Rises=F Damp=F
 DIIS: error= 3.69D-08 at cycle  12 NSaved=  12.
 NSaved=12 IEnMin=12 EnMin= -270.541905755240     IErMin=12 ErrMin= 3.69D-08
 ErrMax= 3.69D-08  0.00D+00 EMaxC= 1.00D-01 BMatC= 4.56D-13 BMatP= 2.53D-12
 IDIUse=1 WtCom= 1.00D+00 WtEn= 0.00D+00
 Coeff-Com: -0.415D-06 0.107D-05 0.280D-05 0.400D-05-0.520D-05-0.723D-04
 Coeff-Com: -0.717D-03-0.251D-02-0.532D-02 0.360D-01 0.332D+00 0.640D+00
 Coeff:     -0.415D-06 0.107D-05 0.280D-05 0.400D-05-0.520D-05-0.723D-04
 Coeff:     -0.717D-03-0.251D-02-0.532D-02 0.360D-01 0.332D+00 0.640D+00
 Gap=     0.211 Goal=   None    Shift=    0.000
 RMSDP=7.50D-09 MaxDP=1.30D-07 DE=-3.52D-12 OVMax= 1.83D-07

 SCF Done:  E(RB3LYP) =  -270.541905755     A.U. after   12 cycles
            NFock= 12  Conv=0.75D-08     -V/T= 2.0098
 KE= 2.679164449673D+02 PE=-1.076390930880D+03 EE= 3.140084830742D+02
 Leave Link  502 at Wed Oct 16 16:27:57 2019, MaxMem=   280000000 cpu:              89.1 elap:               3.8
 (Enter /home/soft/g16/l601.exe)
 Copying SCF densities to generalized density rwf, IOpCl= 0 IROHF=0.

 **********************************************************************

            Population analysis using the SCF density.

 **********************************************************************

 Orbital symmetries:
       Occupied  (A) (A) (A) (A) (A) (A) (A) (A) (A) (A) (A) (A)
                 (A) (A) (A) (A) (A) (A) (A) (A) (A) (A) (A)
       Virtual   (A) (A) (A) (A) (A) (A) (A) (A) (A) (A) (A) (A)
                 (A) (A) (A) (A) (A) (A) (A) (A) (A) (A) (A) (A)
                 (A) (A) (A) (A) (A) (A) (A) (A) (A) (A) (A) (A)
                 (A) (A) (A) (A) (A) (A) (A) (A) (A) (A) (A) (A)
                 (A) (A) (A) (A) (A) (A) (A) (A) (A) (A) (A) (A)
                 (A) (A) (A) (A) (A) (A) (A) (A) (A) (A) (A) (A)
                 (A) (A) (A) (A) (A) (A) (A) (A) (A) (A) (A) (A)
                 (A) (A) (A) (A) (A) (A) (A) (A) (A) (A) (A) (A)
                 (A) (A) (A) (A) (A) (A) (A) (A) (A) (A) (A)
 The electronic state is 1-A.
 Alpha  occ. eigenvalues --  -19.16241 -10.28426 -10.21325 -10.20979 -10.19803
 Alpha  occ. eigenvalues --  -10.18677  -1.05777  -0.81935  -0.75437  -0.66990
 Alpha  occ. eigenvalues --   -0.58214  -0.56412  -0.49909  -0.47150  -0.44977
 Alpha  occ. eigenvalues --   -0.43904  -0.42728  -0.39553  -0.37908  -0.36389
 Alpha  occ. eigenvalues --   -0.34725  -0.27394  -0.25291
 Alpha virt. eigenvalues --   -0.04165  -0.00794   0.01290   0.01767   0.02565
 Alpha virt. eigenvalues --    0.03311   0.04839   0.06148   0.06670   0.07004
 Alpha virt. eigenvalues --    0.07580   0.08991   0.10196   0.10831   0.11166
 Alpha virt. eigenvalues --    0.11311   0.12658   0.13533   0.15749   0.16992
 Alpha virt. eigenvalues --    0.19171   0.19450   0.20742   0.21176   0.22919
 Alpha virt. eigenvalues --    0.23664   0.24316   0.25072   0.25943   0.27137
 Alpha virt. eigenvalues --    0.29181   0.31451   0.32157   0.33308   0.35924
 Alpha virt. eigenvalues --    0.37095   0.39236   0.41103   0.44806   0.58545
 Alpha virt. eigenvalues --    0.62734   0.64778   0.65825   0.67217   0.68747
 Alpha virt. eigenvalues --    0.72129   0.72926   0.75012   0.78622   0.80551
 Alpha virt. eigenvalues --    0.81829   0.86832   0.89267   0.93259   0.95229
 Alpha virt. eigenvalues --    0.97939   1.00379   1.02910   1.04267   1.06203
 Alpha virt. eigenvalues --    1.09451   1.11481   1.13866   1.20105   1.25252
 Alpha virt. eigenvalues --    1.25981   1.27310   1.30475   1.37993   1.45992
 Alpha virt. eigenvalues --    1.49129   1.52195   1.53399   1.56120   1.64874
 Alpha virt. eigenvalues --    1.69580   1.75042   1.78713   1.83353   1.85710
 Alpha virt. eigenvalues --    1.88028   1.91936   1.94648   2.02270   2.08669
 Alpha virt. eigenvalues --    2.12500   2.15504   2.22813   2.23891   2.26803
 Alpha virt. eigenvalues --    2.31381   2.43307   2.46339   2.54000   2.56270
 Alpha virt. eigenvalues --    2.63032   2.68120   2.77494   2.87580   2.88762
 Alpha virt. eigenvalues --    3.06232   4.14997   4.22549   4.24652   4.33288
 Alpha virt. eigenvalues --    4.45419   4.55098
          Condensed to atoms (all electrons):
               1          2          3          4          5          6
     1  C    6.060996   0.399893   0.359011  -0.061140  -0.120359  -0.000997
     2  H    0.399893   0.483092  -0.028809  -0.041864  -0.003209   0.005998
     3  H    0.359011  -0.028809   0.526994  -0.009123   0.005589  -0.001198
     4  C   -0.061140  -0.041864  -0.009123   5.049245   0.509078   0.007482
     5  O   -0.120359  -0.003209   0.005589   0.509078   8.039632  -0.006361
     6  C   -0.000997   0.005998  -0.001198   0.007482  -0.006361   5.049087
     7  H   -0.001151   0.000016  -0.000020   0.009123  -0.003514   0.416690
     8  H    0.000700  -0.000003   0.000004  -0.000797   0.000239   0.373122
     9  C   -0.228051  -0.004126   0.027121   0.132930   0.046229   0.587392
    10  H    0.013851   0.001438  -0.000103   0.002487  -0.000997   0.011023
    11  C    0.300688  -0.047579  -0.078263  -0.141519  -0.071041   0.007810
    12  H   -0.052029   0.003965  -0.002043   0.007555  -0.000931   0.012782
    13  H   -0.066345  -0.003293  -0.003436   0.004855   0.000302  -0.001098
    14  H   -0.157448   0.003602   0.002337   0.432661  -0.071842  -0.002485
               7          8          9         10         11         12
     1  C   -0.001151   0.000700  -0.228051   0.013851   0.300688  -0.052029
     2  H    0.000016  -0.000003  -0.004126   0.001438  -0.047579   0.003965
     3  H   -0.000020   0.000004   0.027121  -0.000103  -0.078263  -0.002043
     4  C    0.009123  -0.000797   0.132930   0.002487  -0.141519   0.007555
     5  O   -0.003514   0.000239   0.046229  -0.000997  -0.071041  -0.000931
     6  C    0.416690   0.373122   0.587392   0.011023   0.007810   0.012782
     7  H    0.516502  -0.033780  -0.089767   0.004688  -0.001243   0.002943
     8  H   -0.033780   0.502879  -0.031996  -0.006698   0.010914   0.000074
     9  C   -0.089767  -0.031996   5.262136   0.317149   0.001900  -0.085144
    10  H    0.004688  -0.006698   0.317149   0.535432  -0.055684   0.003969
    11  C   -0.001243   0.010914   0.001900  -0.055684   5.772898   0.406858
    12  H    0.002943   0.000074  -0.085144   0.003969   0.406858   0.519053
    13  H    0.000110  -0.000142  -0.055403  -0.003594   0.431879  -0.030629
    14  H   -0.000140  -0.000001   0.022725  -0.000011  -0.018960   0.001523
              13         14
     1  C   -0.066345  -0.157448
     2  H   -0.003293   0.003602
     3  H   -0.003436   0.002337
     4  C    0.004855   0.432661
     5  O    0.000302  -0.071842
     6  C   -0.001098  -0.002485
     7  H    0.000110  -0.000140
     8  H   -0.000142  -0.000001
     9  C   -0.055403   0.022725
    10  H   -0.003594  -0.000011
    11  C    0.431879  -0.018960
    12  H   -0.030629   0.001523
    13  H    0.516145  -0.000249
    14  H   -0.000249   0.633731
 Mulliken charges:
               1
     1  C   -0.447620
     2  H    0.230880
     3  H    0.201939
     4  C    0.099026
     5  O   -0.322817
     6  C   -0.459245
     7  H    0.179543
     8  H    0.185486
     9  C    0.096904
    10  H    0.177051
    11  C   -0.518657
    12  H    0.212055
    13  H    0.210898
    14  H    0.154557
 Sum of Mulliken charges =  -0.00000
 Mulliken charges with hydrogens summed into heavy atoms:
               1
     1  C   -0.014801
     4  C    0.253583
     5  O   -0.322817
     6  C   -0.094216
     9  C    0.273955
    11  C   -0.095704
 Electronic spatial extent (au):  <R**2>=            608.3110
 Charge=              0.0000 electrons
 Dipole moment (field-independent basis, Debye):
    X=             -0.0652    Y=              2.6219    Z=              0.8342  Tot=              2.7522
 Quadrupole moment (field-independent basis, Debye-Ang):
   XX=            -38.1978   YY=            -39.6107   ZZ=            -36.1561
   XY=             -4.0652   XZ=             -2.3990   YZ=             -1.8193
 Traceless Quadrupole moment (field-independent basis, Debye-Ang):
   XX=             -0.2096   YY=             -1.6225   ZZ=              1.8321
   XY=             -4.0652   XZ=             -2.3990   YZ=             -1.8193
 Octapole moment (field-independent basis, Debye-Ang**2):
  XXX=            -14.5133  YYY=              3.8081  ZZZ=             -0.9266  XYY=              5.3521
  XXY=             -0.9069  XXZ=             -1.9581  XZZ=             -1.5319  YZZ=             -0.7425
  YYZ=              0.8336  XYZ=              0.8907
 Hexadecapole moment (field-independent basis, Debye-Ang**3):
 XXXX=           -471.5391 YYYY=           -288.6684 ZZZZ=            -91.5659 XXXY=             -7.3404
 XXXZ=            -12.5072 YYYX=             -6.9992 YYYZ=             -0.5390 ZZZX=             -0.8021
 ZZZY=             -2.0855 XXYY=           -122.6151 XXZZ=            -88.9403 YYZZ=            -63.4846
 XXYZ=             -0.2423 YYXZ=             -2.4979 ZZXY=              1.4107
 N-N= 2.239240970837D+02 E-N=-1.076390927061D+03  KE= 2.679164449673D+02
 No NMR shielding tensors so no spin-rotation constants.
 Leave Link  601 at Wed Oct 16 16:27:57 2019, MaxMem=   280000000 cpu:               3.2 elap:               0.2
 (Enter /home/soft/g16/l701.exe)
 ... and contract with generalized density number  0.
 Compute integral first derivatives.
 Leave Link  701 at Wed Oct 16 16:27:57 2019, MaxMem=   280000000 cpu:               3.2 elap:               0.2
 (Enter /home/soft/g16/l702.exe)
 L702 exits ... SP integral derivatives will be done elsewhere.
 Leave Link  702 at Wed Oct 16 16:27:57 2019, MaxMem=   280000000 cpu:               0.4 elap:               0.0
 (Enter /home/soft/g16/l703.exe)
 Integral derivatives from FoFJK, PRISM(SPDF).
 Compute integral first derivatives, UseDBF=F ICtDFT=           0.
 Calling FoFJK, ICntrl=      2127 FMM=F ISym2X=0 I1Cent= 0 IOpClX= 0 NMat=1 NMatS=1 NMatT=0.
 FoFJK:  IHMeth= 1 ICntrl=    2127 DoSepK=F KAlg= 0 I1Cent=           0 FoldK=F
 IRaf=         0 NMat=       1 IRICut=       1 DoRegI=T DoRafI=F ISym2E= 0 IDoP0=0 IntGTp=1.
 FoFCou: FMM=F IPFlag=           0 FMFlag=      100000 FMFlg1=         800
         NFxFlg=           0 DoJE=F BraDBF=F KetDBF=F FulRan=T
         wScrn=  0.000000 ICntrl=      2127 IOpCl=  0 I1Cent=           0 NGrid=           0
         NMat0=    1 NMatS0=      1 NMatT0=    0 NMatD0=    1 NMtDS0=    0 NMtDT0=    0
 Symmetry not used in FoFCou.
 Leave Link  703 at Wed Oct 16 16:27:58 2019, MaxMem=   280000000 cpu:              18.3 elap:               0.8
 (Enter /home/soft/g16/l716.exe)
 Dipole        =-2.56432126D-02 1.03154306D+00 3.28217296D-01
 ***** Axes restored to original set *****
 -------------------------------------------------------------------
 Center     Atomic                   Forces (Hartrees/Bohr)
 Number     Number              X              Y              Z
 -------------------------------------------------------------------
      1        6           0.004258275   -0.000679045   -0.000974360
      2        1           0.000187967    0.000225399    0.000809134
      3        1          -0.000426832    0.000568019    0.000300668
      4        6          -0.002791700    0.006581324    0.003298352
      5        8          -0.003033385   -0.007338541   -0.003706359
      6        6           0.003221763    0.000714722    0.003188594
      7        1          -0.000069767   -0.000006805   -0.000056597
      8        1           0.001996503   -0.001475738   -0.001199112
      9        6          -0.000981084    0.003861154   -0.001279688
     10        1          -0.000611044   -0.000257260    0.000631196
     11        6          -0.002942000   -0.002537986   -0.002876786
     12        1           0.001111654    0.000210063    0.001946038
     13        1          -0.000243036    0.000322812    0.000197325
     14        1           0.000322685   -0.000188120   -0.000278407
 -------------------------------------------------------------------
 Cartesian Forces:  Max     0.007338541 RMS     0.002368100
 Leave Link  716 at Wed Oct 16 16:27:58 2019, MaxMem=   280000000 cpu:               0.6 elap:               0.0
 (Enter /home/soft/g16/l103.exe)

 GradGradGradGradGradGradGradGradGradGradGradGradGradGradGradGradGradGrad
 Berny optimization.
 FormGI is forming the generalized inverse of G from B-inverse, IUseBI=4.
 Internal  Forces:  Max     0.014714433 RMS     0.003587443
 Search for a local minimum.
 Step number   1 out of a maximum of   69
 All quantities printed in internal units (Hartrees-Bohrs-Radians)
 RMS Force = .35874D-02 SwitMx=.10000D-02 MixMth= 1
 Mixed Optimization -- RFO/linear search
 Second derivative matrix not updated -- first step.
 ITU=  0
     Eigenvalues ---    0.00230   0.00639   0.00658   0.00661   0.01627
     Eigenvalues ---    0.02976   0.02976   0.04159   0.04584   0.05477
     Eigenvalues ---    0.05496   0.08632   0.09118   0.12301   0.12723
     Eigenvalues ---    0.15970   0.16000   0.16000   0.16000   0.21948
     Eigenvalues ---    0.21951   0.22008   0.22009   0.25869   0.31391
     Eigenvalues ---    0.31561   0.32066   0.34051   0.34105   0.34172
     Eigenvalues ---    0.34251   0.34577   0.34983   0.35648   0.58820
     Eigenvalues ---    1.00345
 RFO step:  Lambda=-7.20380106D-03 EMin= 2.30000000D-03
 Linear search not attempted -- first point.
 Iteration  1 RMS(Cart)=  0.18711710 RMS(Int)=  0.01184549
 Iteration  2 RMS(Cart)=  0.01462027 RMS(Int)=  0.00145104
 Iteration  3 RMS(Cart)=  0.00019657 RMS(Int)=  0.00143989
 Iteration  4 RMS(Cart)=  0.00000039 RMS(Int)=  0.00143989
 ITry= 1 IFail=0 DXMaxC= 9.20D-01 DCOld= 1.00D+10 DXMaxT= 3.00D-01 DXLimC= 3.00D+00 Rises=F
 Variable       Old X    -DE/DX   Delta X   Delta X   Delta X     New X
                                 (Linear)    (Quad)   (Total)
    R1        2.07244  -0.00081   0.00000  -0.00234  -0.00234   2.07011
    R2        2.07040   0.00076   0.00000   0.00219   0.00219   2.07259
    R3        2.85272   0.00184   0.00000   0.00572   0.00572   2.85844
    R4        2.97048   0.00173   0.00000   0.00652   0.00652   2.97700
    R5        2.28501   0.00705   0.00000   0.00698   0.00698   2.29199
    R6        2.10723  -0.00039   0.00000  -0.00118  -0.00118   2.10605
    R7        2.05703  -0.00003   0.00000  -0.00009  -0.00009   2.05694
    R8        2.04636   0.00275   0.00000   0.00755   0.00755   2.05391
    R9        2.51886   0.00328   0.00000   0.00551   0.00551   2.52437
   R10        2.06367  -0.00083   0.00000  -0.00235  -0.00235   2.06132
   R11        2.84955   0.00029   0.00000   0.00090   0.00090   2.85045
   R12        2.06909   0.00194   0.00000   0.00555   0.00555   2.07464
   R13        2.07154   0.00022   0.00000   0.00063   0.00063   2.07217
    A1        1.90951   0.00200   0.00000  -0.01024  -0.01045   1.89906
    A2        1.90759  -0.00342   0.00000   0.00650   0.00492   1.91251
    A3        1.91703  -0.00248   0.00000   0.00718   0.00569   1.92272
    A4        1.92828  -0.00508   0.00000  -0.03384  -0.03295   1.89532
    A5        1.91200  -0.00567   0.00000  -0.03947  -0.03879   1.87321
    A6        1.88935   0.01471   0.00000   0.07074   0.07024   1.95959
    A7        2.15916   0.00407   0.00000   0.02108   0.01526   2.17442
    A8        2.02275  -0.00172   0.00000  -0.00222  -0.00804   2.01471
    A9        2.09846  -0.00215   0.00000  -0.00476  -0.01062   2.08784
   A10        2.02988   0.00005   0.00000   0.00032   0.00032   2.03019
   A11        2.12979  -0.00001   0.00000  -0.00008  -0.00008   2.12970
   A12        2.12351  -0.00004   0.00000  -0.00022  -0.00022   2.12329
   A13        2.07972  -0.00125   0.00000  -0.00323  -0.00394   2.07577
   A14        2.17314   0.00310   0.00000   0.01463   0.01392   2.18706
   A15        2.02767  -0.00173   0.00000  -0.00664  -0.00735   2.02032
   A16        1.95058   0.01273   0.00000   0.06168   0.06096   2.01154
   A17        1.89090  -0.00107   0.00000   0.02078   0.01940   1.91031
   A18        1.88468  -0.00570   0.00000  -0.04184  -0.04099   1.84369
   A19        1.93029  -0.00373   0.00000   0.00240   0.00031   1.93059
   A20        1.93341  -0.00406   0.00000  -0.03324  -0.03244   1.90097
   A21        1.87136   0.00139   0.00000  -0.01265  -0.01260   1.85876
    D1        0.61321  -0.00066   0.00000  -0.17997  -0.17948   0.43374
    D2       -2.60890   0.00215   0.00000   0.02150   0.02159  -2.58731
    D3        2.71524  -0.00355   0.00000  -0.20966  -0.20928   2.50596
    D4       -0.50687  -0.00074   0.00000  -0.00819  -0.00821  -0.51509
    D5       -1.47435  -0.00437   0.00000  -0.23414  -0.23440  -1.70875
    D6        1.58672  -0.00157   0.00000  -0.03267  -0.03334   1.55338
    D7       -0.95596  -0.00016   0.00000   0.06113   0.06150  -0.89446
    D8       -3.08699  -0.00293   0.00000   0.00443   0.00368  -3.08331
    D9        1.17476  -0.00101   0.00000   0.03045   0.03009   1.20485
   D10       -3.05377   0.00245   0.00000   0.09392   0.09430  -2.95947
   D11        1.09839  -0.00032   0.00000   0.03722   0.03648   1.13487
   D12       -0.92304   0.00161   0.00000   0.06324   0.06289  -0.86016
   D13        1.12565   0.00306   0.00000   0.11550   0.11660   1.24225
   D14       -1.00538   0.00029   0.00000   0.05880   0.05878  -0.94660
   D15       -3.02681   0.00222   0.00000   0.08482   0.08519  -2.94162
   D16       -3.12078  -0.00078   0.00000  -0.03438  -0.03441   3.12800
   D17       -0.06060   0.00092   0.00000   0.03806   0.03809  -0.02251
   D18        0.01646  -0.00064   0.00000  -0.03046  -0.03049  -0.01403
   D19        3.07663   0.00107   0.00000   0.04199   0.04202   3.11865
   D20       -1.63775  -0.00438   0.00000  -0.17904  -0.17930  -1.81705
   D21        0.47051   0.00029   0.00000  -0.10931  -0.10923   0.36128
   D22        2.54293  -0.00295   0.00000  -0.14469  -0.14446   2.39847
   D23        1.42462  -0.00270   0.00000  -0.10844  -0.10874   1.31588
   D24       -2.75031   0.00196   0.00000  -0.03871  -0.03867  -2.78897
   D25       -0.67788  -0.00127   0.00000  -0.07409  -0.07389  -0.75178
         Item               Value     Threshold  Converged?
 Maximum Force            0.014714     0.000450     NO 
 RMS     Force            0.003587     0.000300     NO 
 Maximum Displacement     0.919788     0.001800     NO 
 RMS     Displacement     0.190321     0.001200     NO 
 Predicted change in Energy=-4.668503D-03
 Lowest energy point so far.  Saving SCF results.
 GradGradGradGradGradGradGradGradGradGradGradGradGradGradGradGradGradGrad

 Leave Link  103 at Wed Oct 16 16:27:59 2019, MaxMem=   280000000 cpu:               3.7 elap:               0.2
 (Enter /home/soft/g16/l202.exe)
                          Input orientation:                          
 ---------------------------------------------------------------------
 Center     Atomic      Atomic             Coordinates (Angstroms)
 Number     Number       Type             X           Y           Z
 ---------------------------------------------------------------------
      1          6           0       -1.074392    0.911267   -0.223414
      2          1           0       -1.097522    0.926304   -1.318520
      3          1           0       -1.736565    1.699402    0.155102
      4          6           0       -1.579567   -0.424192    0.275957
      5          8           0       -1.546332   -1.455139   -0.362084
      6          6           0        2.105672   -0.614687    0.278554
      7          1           0        1.874493   -0.914262    1.299150
      8          1           0        2.877145   -1.187915   -0.228946
      9          6           0        1.477897    0.400587   -0.321095
     10          1           0        1.758603    0.665995   -1.341201
     11          6           0        0.378963    1.231178    0.293483
     12          1           0        0.402744    1.154456    1.388393
     13          1           0        0.553145    2.286382    0.051382
     14          1           0       -2.112274   -0.398890    1.254547
 ---------------------------------------------------------------------
                    Distance matrix (angstroms):
                    1          2          3          4          5
     1  C    0.000000
     2  H    1.095453   0.000000
     3  H    1.096770   1.782587   0.000000
     4  C    1.512621   2.144426   2.132816   0.000000
     5  O    2.416988   2.605277   3.202311   1.212869   0.000000
     6  C    3.562768   3.896890   4.486985   3.690160   3.801830
     7  H    3.787701   4.367236   4.602154   3.635604   3.841131
     8  H    4.474510   4.631962   5.456227   4.549778   4.433541
     9  C    2.604710   2.811408   3.499493   3.222548   3.548430
    10  H    3.055400   2.868053   3.939931   3.866146   4.047280
    11  C    1.575362   2.207150   2.171138   2.564448   3.369395
    12  H    2.199771   3.103261   2.528758   2.767526   3.697709
    13  H    2.148333   2.539911   2.366026   3.456314   4.310190
    14  H    2.231160   3.067007   2.398492   1.114476   2.012324
                    6          7          8          9         10
     6  C    0.000000
     7  H    1.088487   0.000000
     8  H    1.086884   1.848046   0.000000
     9  C    1.335838   2.123984   2.118898   0.000000
    10  H    2.093850   3.079300   2.434179   1.090804   0.000000
    11  C    2.527640   2.801943   3.516512   1.508391   2.212472
    12  H    2.694731   2.540394   3.771624   2.155602   3.086686
    13  H    3.298204   3.680626   4.189308   2.133103   2.453176
    14  H    4.334766   4.020187   5.264752   4.001391   4.780750
                   11         12         13         14
    11  C    0.000000
    12  H    1.097852   0.000000
    13  H    1.096544   1.758260   0.000000
    14  H    3.128421   2.959072   3.970233   0.000000
 Stoichiometry    C5H8O
 Framework group  C1[X(C5H8O)]
 Deg. of freedom    36
 Full point group                 C1      NOp   1
 RotChk:  IX=0 Diff= 7.41D-02
 Largest Abelian subgroup         C1      NOp   1
 Largest concise Abelian subgroup C1      NOp   1
                         Standard orientation:                         
 ---------------------------------------------------------------------
 Center     Atomic      Atomic             Coordinates (Angstroms)
 Number     Number       Type             X           Y           Z
 ---------------------------------------------------------------------
      1          6           0       -0.885510    1.025817   -0.213868
      2          1           0       -0.944200    1.025963   -1.307748
      3          1           0       -1.400053    1.915961    0.167961
      4          6           0       -1.579197   -0.203072    0.330792
      5          8           0       -1.732919   -1.236632   -0.284979
      6          6           0        2.026456   -0.980472    0.220379
      7          1           0        1.786313   -1.222028    1.254200
      8          1           0        2.678561   -1.678155   -0.298577
      9          6           0        1.547854    0.111923   -0.381348
     10          1           0        1.831436    0.311844   -1.415498
     11          6           0        0.617408    1.117792    0.249319
     12          1           0        0.666907    1.056656    1.344349
     13          1           0        0.948882    2.127336   -0.021525
     14          1           0       -2.066550   -0.076458    1.325032
 ---------------------------------------------------------------------
 Rotational constants (GHZ):           5.3842982           2.4317659           1.8631721
 Leave Link  202 at Wed Oct 16 16:27:59 2019, MaxMem=   280000000 cpu:               0.7 elap:               0.0
 (Enter /home/soft/g16/l301.exe)
 Standard basis: 6-31+G(d) (6D, 7F)
 Ernie: Thresh=  0.10000D-02 Tol=  0.10000D-05 Strict=F.
 There are   130 symmetry adapted cartesian basis functions of A   symmetry.
 There are   130 symmetry adapted basis functions of A   symmetry.
   130 basis functions,   224 primitive gaussians,   130 cartesian basis functions
    23 alpha electrons       23 beta electrons
       nuclear repulsion energy       217.9154274704 Hartrees.
 IExCor=  402 DFT=T Ex+Corr=B3LYP ExCW=0 ScaHFX=  0.200000
 ScaDFX=  0.800000  0.720000  1.000000  0.810000 ScalE2=  1.000000  1.000000
 IRadAn=      5 IRanWt=     -1 IRanGd=            0 ICorTp=0 IEmpDi=  4
 NAtoms=   14 NActive=   14 NUniq=   14 SFac= 1.00D+00 NAtFMM=   60 NAOKFM=F Big=F
 Integral buffers will be    131072 words long.
 Raffenetti 2 integral format.
 Two-electron integral symmetry is turned on.
 Leave Link  301 at Wed Oct 16 16:27:59 2019, MaxMem=   280000000 cpu:               1.4 elap:               0.1
 (Enter /home/soft/g16/l302.exe)
 NPDir=0 NMtPBC=     1 NCelOv=     1 NCel=       1 NClECP=     1 NCelD=      1
         NCelK=      1 NCelE2=     1 NClLst=     1 CellRange=     0.0.
 One-electron integrals computed using PRISM.
 One-electron integral symmetry used in STVInt
 NBasis=   130 RedAO= T EigKep=  7.43D-05  NBF=   130
 NBsUse=   130 1.00D-06 EigRej= -1.00D+00 NBFU=   130
 Precomputing XC quadrature grid using
 IXCGrd= 4 IRadAn=           5 IRanWt=          -1 IRanGd=           0 AccXCQ= 0.00D+00.
 Generated NRdTot=       0 NPtTot=           0 NUsed=           0 NTot=          32
 NSgBfM=   130   130   130   130   130 MxSgAt=    14 MxSgA2=    14.
 Leave Link  302 at Wed Oct 16 16:27:59 2019, MaxMem=   280000000 cpu:               3.1 elap:               0.2
 (Enter /home/soft/g16/l303.exe)
 DipDrv:  MaxL=1.
 Leave Link  303 at Wed Oct 16 16:27:59 2019, MaxMem=   280000000 cpu:               0.6 elap:               0.0
 (Enter /home/soft/g16/l401.exe)
 Initial guess from the checkpoint file:  "Pb4.chk"
 B after Tr=    -0.000000    0.000000    0.000000
         Rot=    0.999220    0.004154   -0.012790    0.037124 Ang=   4.53 deg.
 Guess basis will be translated and rotated to current coordinates.
 JPrj=2 DoOrth=T DoCkMO=T.
 Generating alternative initial guess.
 ExpMin= 4.38D-02 ExpMax= 5.48D+03 ExpMxC= 8.25D+02 IAcc=2 IRadAn=         4 AccDes= 0.00D+00
 Harris functional with IExCor=  402 and IRadAn=       4 diagonalized for initial guess.
 HarFok:  IExCor=  402 AccDes= 0.00D+00 IRadAn=         4 IDoV= 1 UseB2=F ITyADJ=14
 ICtDFT=  3500011 ScaDFX=  1.000000  1.000000  1.000000  1.000000
 FoFCou: FMM=F IPFlag=           0 FMFlag=      100000 FMFlg1=           0
         NFxFlg=           0 DoJE=T BraDBF=F KetDBF=T FulRan=T
         wScrn=  0.000000 ICntrl=       500 IOpCl=  0 I1Cent=   200000004 NGrid=           0
         NMat0=    1 NMatS0=      1 NMatT0=    0 NMatD0=    1 NMtDS0=    0 NMtDT0=    0
 Petite list used in FoFCou.
 Harris En= -270.576808183720    
 Leave Link  401 at Wed Oct 16 16:27:59 2019, MaxMem=   280000000 cpu:               5.6 elap:               0.3
 (Enter /home/soft/g16/l502.exe)
 Integral symmetry usage will be decided dynamically.
 Closed shell SCF:
 Using DIIS extrapolation, IDIIS=  1040.
 NGot=   280000000 LenX=   279961518 LenY=   279944177
 Requested convergence on RMS density matrix=1.00D-08 within 128 cycles.
 Requested convergence on MAX density matrix=1.00D-06.
 Requested convergence on             energy=1.00D-06.
 No special actions if energy rises.
 Fock matrices will be formed incrementally for  20 cycles.

 Cycle   1  Pass 1  IDiag  1:
 FoFJK:  IHMeth= 1 ICntrl=       0 DoSepK=F KAlg= 0 I1Cent=           0 FoldK=F
 IRaf= 990000000 NMat=       1 IRICut=       1 DoRegI=T DoRafI=F ISym2E= 0 IDoP0=0 IntGTp=1.
 FoFCou: FMM=F IPFlag=           0 FMFlag=      100000 FMFlg1=           0
         NFxFlg=           0 DoJE=F BraDBF=F KetDBF=F FulRan=T
         wScrn=  0.000000 ICntrl=         0 IOpCl=  0 I1Cent=           0 NGrid=           0
         NMat0=    1 NMatS0=      1 NMatT0=    0 NMatD0=    1 NMtDS0=    0 NMtDT0=    0
 Symmetry not used in FoFCou.
 E= -270.484880343454    
 DIIS: error= 1.23D-02 at cycle   1 NSaved=   1.
 NSaved= 1 IEnMin= 1 EnMin= -270.484880343454     IErMin= 1 ErrMin= 1.23D-02
 ErrMax= 1.23D-02  0.00D+00 EMaxC= 1.00D-01 BMatC= 2.93D-02 BMatP= 2.93D-02
 IDIUse=3 WtCom= 8.77D-01 WtEn= 1.23D-01
 Coeff-Com:  0.100D+01
 Coeff-En:   0.100D+01
 Coeff:      0.100D+01
 Recover alternate guess density for next cycle.
 RMSDP=5.29D-03 MaxDP=6.82D-02              OVMax= 0.00D+00

 Cycle   2  Pass 1  IDiag  1:
 RMSU=  5.29D-03    CP:  9.97D-01
 E= -270.361029247947     Delta-E=        0.123851095507 Rises=F Damp=F
 Switch densities from cycles 1 and 2 for lowest energy.
 DIIS: error= 2.43D-02 at cycle   2 NSaved=   2.
 NSaved= 2 IEnMin= 1 EnMin= -270.484880343454     IErMin= 1 ErrMin= 1.23D-02
 ErrMax= 2.43D-02  0.00D+00 EMaxC= 1.00D+00 BMatC= 1.79D-01 BMatP= 2.93D-02
 IDIUse=1 WtCom= 1.00D+00 WtEn= 0.00D+00
 Coeff-Com:  0.869D+00 0.131D+00
 Coeff:      0.869D+00 0.131D+00
 Gap=     0.213 Goal=   None    Shift=    0.000
 RMSDP=2.85D-03 MaxDP=6.26D-02 DE= 1.24D-01 OVMax= 1.05D-01

 Cycle   3  Pass 1  IDiag  1:
 RMSU=  2.67D-03    CP:  9.92D-01  1.83D-01
 E= -270.535389103577     Delta-E=       -0.174359855630 Rises=F Damp=F
 DIIS: error= 5.58D-03 at cycle   3 NSaved=   3.
 NSaved= 3 IEnMin= 3 EnMin= -270.535389103577     IErMin= 3 ErrMin= 5.58D-03
 ErrMax= 5.58D-03  0.00D+00 EMaxC= 1.00D+00 BMatC= 1.00D-02 BMatP= 2.93D-02
 IDIUse=1 WtCom= 1.00D+00 WtEn= 0.00D+00
 Coeff-Com:  0.455D-01 0.163D+00 0.791D+00
 Coeff:      0.455D-01 0.163D+00 0.791D+00
 Gap=     0.218 Goal=   None    Shift=    0.000
 RMSDP=1.39D-03 MaxDP=3.58D-02 DE=-1.74D-01 OVMax= 3.63D-02

 Cycle   4  Pass 1  IDiag  1:
 RMSU=  1.05D-03    CP:  9.86D-01  3.24D-01  8.14D-01
 E= -270.539086350428     Delta-E=       -0.003697246851 Rises=F Damp=F
 DIIS: error= 5.35D-03 at cycle   4 NSaved=   4.
 NSaved= 4 IEnMin= 4 EnMin= -270.539086350428     IErMin= 4 ErrMin= 5.35D-03
 ErrMax= 5.35D-03  0.00D+00 EMaxC= 1.00D+00 BMatC= 5.99D-03 BMatP= 1.00D-02
 IDIUse=1 WtCom= 1.00D+00 WtEn= 0.00D+00
 Coeff-Com: -0.343D-01 0.853D-01 0.536D+00 0.413D+00
 Coeff:     -0.343D-01 0.853D-01 0.536D+00 0.413D+00
 Gap=     0.216 Goal=   None    Shift=    0.000
 RMSDP=6.10D-04 MaxDP=1.70D-02 DE=-3.70D-03 OVMax= 2.47D-02

 Cycle   5  Pass 1  IDiag  1:
 RMSU=  3.39D-04    CP:  9.89D-01  3.24D-01  8.55D-01  5.34D-01
 E= -270.543795362104     Delta-E=       -0.004709011677 Rises=F Damp=F
 DIIS: error= 6.10D-04 at cycle   5 NSaved=   5.
 NSaved= 5 IEnMin= 5 EnMin= -270.543795362104     IErMin= 5 ErrMin= 6.10D-04
 ErrMax= 6.10D-04  0.00D+00 EMaxC= 1.00D+00 BMatC= 1.21D-04 BMatP= 5.99D-03
 IDIUse=1 WtCom= 1.00D+00 WtEn= 0.00D+00
 Coeff-Com: -0.112D-01 0.115D-01 0.105D+00 0.165D+00 0.729D+00
 Coeff:     -0.112D-01 0.115D-01 0.105D+00 0.165D+00 0.729D+00
 Gap=     0.213 Goal=   None    Shift=    0.000
 RMSDP=1.59D-04 MaxDP=2.34D-03 DE=-4.71D-03 OVMax= 2.63D-03

 Cycle   6  Pass 1  IDiag  1:
 RMSU=  1.19D-04    CP:  9.88D-01  3.20D-01  8.65D-01  5.78D-01  7.41D-01
 E= -270.543899502358     Delta-E=       -0.000104140254 Rises=F Damp=F
 DIIS: error= 1.69D-04 at cycle   6 NSaved=   6.
 NSaved= 6 IEnMin= 6 EnMin= -270.543899502358     IErMin= 6 ErrMin= 1.69D-04
 ErrMax= 1.69D-04  0.00D+00 EMaxC= 1.00D+00 BMatC= 8.43D-06 BMatP= 1.21D-04
 IDIUse=1 WtCom= 1.00D+00 WtEn= 0.00D+00
 Coeff-Com: -0.284D-02 0.109D-02 0.208D-01 0.562D-01 0.328D+00 0.596D+00
 Coeff:     -0.284D-02 0.109D-02 0.208D-01 0.562D-01 0.328D+00 0.596D+00
 Gap=     0.213 Goal=   None    Shift=    0.000
 RMSDP=4.20D-05 MaxDP=7.25D-04 DE=-1.04D-04 OVMax= 1.35D-03

 Cycle   7  Pass 1  IDiag  1:
 RMSU=  2.26D-05    CP:  9.88D-01  3.21D-01  8.63D-01  5.87D-01  7.81D-01
                    CP:  7.44D-01
 E= -270.543906356372     Delta-E=       -0.000006854014 Rises=F Damp=F
 DIIS: error= 8.16D-05 at cycle   7 NSaved=   7.
 NSaved= 7 IEnMin= 7 EnMin= -270.543906356372     IErMin= 7 ErrMin= 8.16D-05
 ErrMax= 8.16D-05  0.00D+00 EMaxC= 1.00D+00 BMatC= 1.69D-06 BMatP= 8.43D-06
 IDIUse=1 WtCom= 1.00D+00 WtEn= 0.00D+00
 Coeff-Com: -0.665D-03-0.490D-03 0.171D-02 0.181D-01 0.128D+00 0.355D+00
 Coeff-Com:  0.498D+00
 Coeff:     -0.665D-03-0.490D-03 0.171D-02 0.181D-01 0.128D+00 0.355D+00
 Coeff:      0.498D+00
 Gap=     0.213 Goal=   None    Shift=    0.000
 RMSDP=1.38D-05 MaxDP=3.40D-04 DE=-6.85D-06 OVMax= 6.66D-04

 Cycle   8  Pass 1  IDiag  1:
 RMSU=  1.01D-05    CP:  9.88D-01  3.21D-01  8.62D-01  5.89D-01  7.85D-01
                    CP:  7.35D-01  6.06D-01
 E= -270.543908065764     Delta-E=       -0.000001709392 Rises=F Damp=F
 DIIS: error= 1.78D-05 at cycle   8 NSaved=   8.
 NSaved= 8 IEnMin= 8 EnMin= -270.543908065764     IErMin= 8 ErrMin= 1.78D-05
 ErrMax= 1.78D-05  0.00D+00 EMaxC= 1.00D+00 BMatC= 1.06D-07 BMatP= 1.69D-06
 IDIUse=1 WtCom= 1.00D+00 WtEn= 0.00D+00
 Coeff-Com: -0.538D-04-0.347D-03-0.175D-02 0.225D-02 0.243D-01 0.101D+00
 Coeff-Com:  0.241D+00 0.633D+00
 Coeff:     -0.538D-04-0.347D-03-0.175D-02 0.225D-02 0.243D-01 0.101D+00
 Coeff:      0.241D+00 0.633D+00
 Gap=     0.213 Goal=   None    Shift=    0.000
 RMSDP=4.51D-06 MaxDP=1.01D-04 DE=-1.71D-06 OVMax= 1.76D-04

 Cycle   9  Pass 1  IDiag  1:
 RMSU=  3.33D-06    CP:  9.88D-01  3.21D-01  8.62D-01  5.90D-01  7.89D-01
                    CP:  7.47D-01  6.59D-01  8.38D-01
 E= -270.543908172649     Delta-E=       -0.000000106885 Rises=F Damp=F
 DIIS: error= 7.44D-06 at cycle   9 NSaved=   9.
 NSaved= 9 IEnMin= 9 EnMin= -270.543908172649     IErMin= 9 ErrMin= 7.44D-06
 ErrMax= 7.44D-06  0.00D+00 EMaxC= 1.00D+00 BMatC= 1.58D-08 BMatP= 1.06D-07
 IDIUse=1 WtCom= 1.00D+00 WtEn= 0.00D+00
 Coeff-Com:  0.720D-04-0.873D-04-0.118D-02-0.176D-02-0.828D-02-0.736D-02
 Coeff-Com:  0.384D-01 0.322D+00 0.658D+00
 Coeff:      0.720D-04-0.873D-04-0.118D-02-0.176D-02-0.828D-02-0.736D-02
 Coeff:      0.384D-01 0.322D+00 0.658D+00
 Gap=     0.213 Goal=   None    Shift=    0.000
 RMSDP=1.72D-06 MaxDP=2.65D-05 DE=-1.07D-07 OVMax= 4.72D-05

 Cycle  10  Pass 1  IDiag  1:
 RMSU=  1.27D-06    CP:  9.88D-01  3.21D-01  8.62D-01  5.90D-01  7.89D-01
                    CP:  7.54D-01  6.79D-01  8.38D-01  8.37D-01
 E= -270.543908190050     Delta-E=       -0.000000017400 Rises=F Damp=F
 DIIS: error= 1.05D-06 at cycle  10 NSaved=  10.
 NSaved=10 IEnMin=10 EnMin= -270.543908190050     IErMin=10 ErrMin= 1.05D-06
 ErrMax= 1.05D-06  0.00D+00 EMaxC= 1.00D+00 BMatC= 2.82D-10 BMatP= 1.58D-08
 IDIUse=1 WtCom= 1.00D+00 WtEn= 0.00D+00
 Coeff-Com:  0.213D-04 0.231D-05-0.177D-03-0.503D-03-0.327D-02-0.740D-02
 Coeff-Com: -0.718D-02 0.411D-01 0.160D+00 0.818D+00
 Coeff:      0.213D-04 0.231D-05-0.177D-03-0.503D-03-0.327D-02-0.740D-02
 Coeff:     -0.718D-02 0.411D-01 0.160D+00 0.818D+00
 Gap=     0.213 Goal=   None    Shift=    0.000
 RMSDP=4.55D-07 MaxDP=6.89D-06 DE=-1.74D-08 OVMax= 1.49D-05

 Cycle  11  Pass 1  IDiag  1:
 RMSU=  2.35D-07    CP:  9.88D-01  3.21D-01  8.62D-01  5.90D-01  7.89D-01
                    CP:  7.53D-01  6.78D-01  8.66D-01  8.66D-01  9.17D-01
 E= -270.543908190527     Delta-E=       -0.000000000478 Rises=F Damp=F
 DIIS: error= 2.36D-07 at cycle  11 NSaved=  11.
 NSaved=11 IEnMin=11 EnMin= -270.543908190527     IErMin=11 ErrMin= 2.36D-07
 ErrMax= 2.36D-07  0.00D+00 EMaxC= 1.00D+00 BMatC= 7.56D-12 BMatP= 2.82D-10
 IDIUse=1 WtCom= 1.00D+00 WtEn= 0.00D+00
 Coeff-Com: -0.437D-06 0.224D-05 0.292D-04 0.117D-04-0.408D-04-0.414D-03
 Coeff-Com: -0.184D-02-0.894D-02-0.126D-01 0.660D-01 0.958D+00
 Coeff:     -0.437D-06 0.224D-05 0.292D-04 0.117D-04-0.408D-04-0.414D-03
 Coeff:     -0.184D-02-0.894D-02-0.126D-01 0.660D-01 0.958D+00
 Gap=     0.213 Goal=   None    Shift=    0.000
 RMSDP=1.02D-07 MaxDP=1.85D-06 DE=-4.78D-10 OVMax= 4.65D-06

 Cycle  12  Pass 1  IDiag  1:
 RMSU=  5.38D-08    CP:  9.88D-01  3.21D-01  8.62D-01  5.90D-01  7.89D-01
                    CP:  7.53D-01  6.78D-01  8.65D-01  8.76D-01  9.68D-01
                    CP:  1.04D+00
 E= -270.543908190554     Delta-E=       -0.000000000027 Rises=F Damp=F
 DIIS: error= 7.60D-08 at cycle  12 NSaved=  12.
 NSaved=12 IEnMin=12 EnMin= -270.543908190554     IErMin=12 ErrMin= 7.60D-08
 ErrMax= 7.60D-08  0.00D+00 EMaxC= 1.00D+00 BMatC= 1.58D-12 BMatP= 7.56D-12
 IDIUse=1 WtCom= 1.00D+00 WtEn= 0.00D+00
 Coeff-Com: -0.169D-05 0.674D-06 0.232D-04 0.406D-04 0.224D-03 0.415D-03
 Coeff-Com: -0.564D-04-0.596D-02-0.156D-01-0.328D-01 0.343D+00 0.711D+00
 Coeff:     -0.169D-05 0.674D-06 0.232D-04 0.406D-04 0.224D-03 0.415D-03
 Coeff:     -0.564D-04-0.596D-02-0.156D-01-0.328D-01 0.343D+00 0.711D+00
 Gap=     0.213 Goal=   None    Shift=    0.000
 RMSDP=2.17D-08 MaxDP=3.68D-07 DE=-2.69D-11 OVMax= 1.07D-06

 Cycle  13  Pass 1  IDiag  1:
 RMSU=  1.25D-08    CP:  9.88D-01  3.21D-01  8.62D-01  5.90D-01  7.89D-01
                    CP:  7.53D-01  6.79D-01  8.65D-01  8.77D-01  9.74D-01
                    CP:  1.10D+00  1.00D+00
 E= -270.543908190553     Delta-E=        0.000000000001 Rises=F Damp=F
 DIIS: error= 3.19D-08 at cycle  13 NSaved=  13.
 NSaved=13 IEnMin=12 EnMin= -270.543908190554     IErMin=13 ErrMin= 3.19D-08
 ErrMax= 3.19D-08  0.00D+00 EMaxC= 1.00D+00 BMatC= 2.58D-13 BMatP= 1.58D-12
 IDIUse=1 WtCom= 1.00D+00 WtEn= 0.00D+00
 Coeff-Com: -0.694D-06 0.658D-07 0.660D-05 0.164D-04 0.104D-03 0.240D-03
 Coeff-Com:  0.216D-03-0.150D-02-0.539D-02-0.242D-01 0.286D-01 0.311D+00
 Coeff-Com:  0.691D+00
 Coeff:     -0.694D-06 0.658D-07 0.660D-05 0.164D-04 0.104D-03 0.240D-03
 Coeff:      0.216D-03-0.150D-02-0.539D-02-0.242D-01 0.286D-01 0.311D+00
 Coeff:      0.691D+00
 Gap=     0.213 Goal=   None    Shift=    0.000
 RMSDP=7.24D-09 MaxDP=1.17D-07 DE= 1.14D-12 OVMax= 3.27D-07

 SCF Done:  E(RB3LYP) =  -270.543908191     A.U. after   13 cycles
            NFock= 13  Conv=0.72D-08     -V/T= 2.0101
 KE= 2.678506448206D+02 PE=-1.064224093260D+03 EE= 3.079141127790D+02
 Leave Link  502 at Wed Oct 16 16:28:03 2019, MaxMem=   280000000 cpu:              91.8 elap:               3.9
 (Enter /home/soft/g16/l701.exe)
 ... and contract with generalized density number  0.
 Compute integral first derivatives.
 Leave Link  701 at Wed Oct 16 16:28:03 2019, MaxMem=   280000000 cpu:               3.7 elap:               0.2
 (Enter /home/soft/g16/l702.exe)
 L702 exits ... SP integral derivatives will be done elsewhere.
 Leave Link  702 at Wed Oct 16 16:28:03 2019, MaxMem=   280000000 cpu:               0.6 elap:               0.0
 (Enter /home/soft/g16/l703.exe)
 Integral derivatives from FoFJK, PRISM(SPDF).
 Compute integral first derivatives, UseDBF=F ICtDFT=           0.
 Calling FoFJK, ICntrl=      2127 FMM=F ISym2X=0 I1Cent= 0 IOpClX= 0 NMat=1 NMatS=1 NMatT=0.
 FoFJK:  IHMeth= 1 ICntrl=    2127 DoSepK=F KAlg= 0 I1Cent=           0 FoldK=F
 IRaf=         0 NMat=       1 IRICut=       1 DoRegI=T DoRafI=F ISym2E= 0 IDoP0=0 IntGTp=1.
 FoFCou: FMM=F IPFlag=           0 FMFlag=      100000 FMFlg1=         800
         NFxFlg=           0 DoJE=F BraDBF=F KetDBF=F FulRan=T
         wScrn=  0.000000 ICntrl=      2127 IOpCl=  0 I1Cent=           0 NGrid=           0
         NMat0=    1 NMatS0=      1 NMatT0=    0 NMatD0=    1 NMtDS0=    0 NMtDT0=    0
 Symmetry not used in FoFCou.
 Leave Link  703 at Wed Oct 16 16:28:04 2019, MaxMem=   280000000 cpu:              16.7 elap:               0.7
 (Enter /home/soft/g16/l716.exe)
 Dipole        = 2.79139188D-01 1.06885520D+00 3.71916743D-01
 ***** Axes restored to original set *****
 -------------------------------------------------------------------
 Center     Atomic                   Forces (Hartrees/Bohr)
 Number     Number              X              Y              Z
 -------------------------------------------------------------------
      1        6           0.011086877   -0.000750183    0.003745340
      2        1           0.000754322   -0.001389692    0.000118991
      3        1          -0.001188198   -0.000056065    0.000018190
      4        6          -0.012851820    0.004670514   -0.006901980
      5        8           0.003742995   -0.001939126    0.001083694
      6        6           0.000956509    0.000457027    0.000717592
      7        1          -0.000666002   -0.000177949    0.000178769
      8        1           0.000318590    0.000451278   -0.000022027
      9        6          -0.003386675   -0.000587285    0.000073918
     10        1          -0.001178463   -0.000997266   -0.000815599
     11        6          -0.004054287    0.001682019   -0.002132069
     12        1          -0.000394077   -0.001347296   -0.000051854
     13        1           0.000994427    0.001237469    0.001072000
     14        1           0.005865803   -0.001253447    0.002915033
 -------------------------------------------------------------------
 Cartesian Forces:  Max     0.012851820 RMS     0.003402572
 Leave Link  716 at Wed Oct 16 16:28:04 2019, MaxMem=   280000000 cpu:               0.6 elap:               0.0
 (Enter /home/soft/g16/l103.exe)

 GradGradGradGradGradGradGradGradGradGradGradGradGradGradGradGradGradGrad
 Berny optimization.
 Using GEDIIS/GDIIS optimizer.
 FormGI is forming the generalized inverse of G from B-inverse, IUseBI=4.
 GSVD:  received Info=                   1 from GESDD.
 Internal  Forces:  Max     0.007011381 RMS     0.001756756
 Search for a local minimum.
 Step number   2 out of a maximum of   69
 All quantities printed in internal units (Hartrees-Bohrs-Radians)
 RMS Force = .17568D-02 SwitMx=.10000D-02 MixMth= 1
 Mixed Optimization -- RFO/linear search
 Update second derivatives using D2CorX and points    1    2
 DE= -2.00D-03 DEPred=-4.67D-03 R= 4.29D-01
 Trust test= 4.29D-01 RLast= 5.30D-01 DXMaxT set to 3.00D-01
 ITU=  0  0
 Use linear search instead of GDIIS.
     Eigenvalues ---    0.00240   0.00480   0.00650   0.01281   0.01774
     Eigenvalues ---    0.02969   0.02976   0.03950   0.04540   0.05436
     Eigenvalues ---    0.05597   0.09215   0.09669   0.12737   0.13063
     Eigenvalues ---    0.15983   0.16000   0.16000   0.16001   0.19199
     Eigenvalues ---    0.22000   0.22021   0.22729   0.27388   0.31407
     Eigenvalues ---    0.31786   0.32066   0.34042   0.34124   0.34162
     Eigenvalues ---    0.34242   0.34579   0.34986   0.35606   0.58732
     Eigenvalues ---    0.99789
 RFO step:  Lambda=-3.81141821D-03 EMin= 2.39549905D-03
 Quartic linear search produced a step of -0.29411.
 Iteration  1 RMS(Cart)=  0.06632902 RMS(Int)=  0.01823925
 Iteration  2 RMS(Cart)=  0.01839456 RMS(Int)=  0.00446616
 Iteration  3 RMS(Cart)=  0.00061528 RMS(Int)=  0.00440951
 Iteration  4 RMS(Cart)=  0.00000337 RMS(Int)=  0.00440951
 Iteration  5 RMS(Cart)=  0.00000004 RMS(Int)=  0.00440951
 ITry= 1 IFail=0 DXMaxC= 2.32D-01 DCOld= 1.00D+10 DXMaxT= 3.00D-01 DXLimC= 3.00D+00 Rises=F
 Variable       Old X    -DE/DX   Delta X   Delta X   Delta X     New X
                                 (Linear)    (Quad)   (Total)
    R1        2.07011  -0.00015   0.00069  -0.00252  -0.00183   2.06828
    R2        2.07259   0.00068  -0.00064   0.00342   0.00277   2.07537
    R3        2.85844  -0.00118  -0.00168   0.00290   0.00122   2.85966
    R4        2.97700  -0.00701  -0.00192  -0.01192  -0.01383   2.96317
    R5        2.29199   0.00118  -0.00205   0.00746   0.00541   2.29740
    R6        2.10605  -0.00027   0.00035  -0.00168  -0.00134   2.10472
    R7        2.05694   0.00036   0.00003   0.00060   0.00063   2.05757
    R8        2.05391  -0.00000  -0.00222   0.00716   0.00494   2.05885
    R9        2.52437   0.00012  -0.00162   0.00539   0.00377   2.52814
   R10        2.06132   0.00022   0.00069  -0.00181  -0.00112   2.06020
   R11        2.85045  -0.00247  -0.00026  -0.00438  -0.00464   2.84581
   R12        2.07464   0.00003  -0.00163   0.00533   0.00370   2.07834
   R13        2.07217   0.00111  -0.00019   0.00278   0.00260   2.07476
    A1        1.89906   0.00039   0.00307  -0.00501  -0.00201   1.89704
    A2        1.91251  -0.00094  -0.00145  -0.00503  -0.00657   1.90593
    A3        1.92272   0.00015  -0.00167   0.00407   0.00249   1.92520
    A4        1.89532  -0.00023   0.00969  -0.03089  -0.02120   1.87413
    A5        1.87321   0.00023   0.01141  -0.03208  -0.02057   1.85264
    A6        1.95959   0.00044  -0.02066   0.06607   0.04546   2.00505
    A7        2.17442   0.00034  -0.00449   0.02420   0.00056   2.17498
    A8        2.01471   0.00045   0.00237   0.00712  -0.00980   2.00491
    A9        2.08784  -0.00008   0.00312   0.00261  -0.01415   2.07370
   A10        2.03019   0.00039  -0.00009   0.00192   0.00183   2.03202
   A11        2.12970  -0.00030   0.00002  -0.00133  -0.00130   2.12840
   A12        2.12329  -0.00009   0.00007  -0.00059  -0.00053   2.12276
   A13        2.07577   0.00052   0.00116  -0.00297  -0.00175   2.07402
   A14        2.18706  -0.00088  -0.00409   0.00999   0.00596   2.19302
   A15        2.02032   0.00036   0.00216  -0.00663  -0.00441   2.01591
   A16        2.01154  -0.00493  -0.01793   0.04067   0.02287   2.03442
   A17        1.91031   0.00131  -0.00571   0.01476   0.00934   1.91964
   A18        1.84369   0.00201   0.01206  -0.02598  -0.01405   1.82964
   A19        1.93059   0.00096  -0.00009  -0.00620  -0.00598   1.92461
   A20        1.90097   0.00162   0.00954  -0.01980  -0.01041   1.89056
   A21        1.85876  -0.00064   0.00371  -0.00842  -0.00473   1.85403
    D1        0.43374   0.00265   0.05279   0.07708   0.12829   0.56203
    D2       -2.58731  -0.00421  -0.00635  -0.25051  -0.25550  -2.84281
    D3        2.50596   0.00243   0.06155   0.04990   0.11006   2.61602
    D4       -0.51509  -0.00443   0.00242  -0.27770  -0.27373  -0.78882
    D5       -1.70875   0.00283   0.06894   0.03011   0.09761  -1.61115
    D6        1.55338  -0.00403   0.00981  -0.29748  -0.28618   1.26720
    D7       -0.89446  -0.00030  -0.01809  -0.00408  -0.02229  -0.91675
    D8       -3.08331   0.00111  -0.00108  -0.03924  -0.04032  -3.12363
    D9        1.20485   0.00021  -0.00885  -0.02303  -0.03190   1.17295
   D10       -2.95947  -0.00098  -0.02773   0.01845  -0.00936  -2.96882
   D11        1.13487   0.00042  -0.01073  -0.01671  -0.02738   1.10749
   D12       -0.86016  -0.00047  -0.01850  -0.00050  -0.01896  -0.87912
   D13        1.24225  -0.00110  -0.03429   0.03833   0.00399   1.24624
   D14       -0.94660   0.00031  -0.01729   0.00316  -0.01404  -0.96063
   D15       -2.94162  -0.00059  -0.02506   0.01938  -0.00561  -2.94724
   D16        3.12800   0.00045   0.01012  -0.01685  -0.00673   3.12127
   D17       -0.02251   0.00045  -0.01120   0.03799   0.02679   0.00429
   D18       -0.01403   0.00043   0.00897  -0.01382  -0.00485  -0.01888
   D19        3.11865   0.00044  -0.01236   0.04102   0.02867  -3.13586
   D20       -1.81705  -0.00016   0.05273  -0.16025  -0.10744  -1.92450
   D21        0.36128  -0.00145   0.03213  -0.11344  -0.08137   0.27991
   D22        2.39847  -0.00072   0.04249  -0.13895  -0.09648   2.30200
   D23        1.31588  -0.00015   0.03198  -0.10695  -0.07490   1.24099
   D24       -2.78897  -0.00145   0.01137  -0.06013  -0.04882  -2.83779
   D25       -0.75178  -0.00071   0.02173  -0.08564  -0.06393  -0.81571
         Item               Value     Threshold  Converged?
 Maximum Force            0.007011     0.000450     NO 
 RMS     Force            0.001757     0.000300     NO 
 Maximum Displacement     0.231588     0.001800     NO 
 RMS     Displacement     0.073404     0.001200     NO 
 Predicted change in Energy=-2.946568D-03
 Lowest energy point so far.  Saving SCF results.
 GradGradGradGradGradGradGradGradGradGradGradGradGradGradGradGradGradGrad

 Leave Link  103 at Wed Oct 16 16:28:04 2019, MaxMem=   280000000 cpu:               0.7 elap:               0.1
 (Enter /home/soft/g16/l202.exe)
                          Input orientation:                          
 ---------------------------------------------------------------------
 Center     Atomic      Atomic             Coordinates (Angstroms)
 Number     Number       Type             X           Y           Z
 ---------------------------------------------------------------------
      1          6           0       -1.091876    0.923528   -0.234163
      2          1           0       -1.119612    0.981302   -1.326770
      3          1           0       -1.717891    1.726863    0.176786
      4          6           0       -1.694668   -0.391458    0.210172
      5          8           0       -1.628934   -1.429213   -0.419708
      6          6           0        2.151839   -0.596401    0.308715
      7          1           0        1.959585   -0.858424    1.347903
      8          1           0        2.939828   -1.155682   -0.194557
      9          6           0        1.460661    0.361512   -0.319355
     10          1           0        1.708420    0.595584   -1.354917
     11          6           0        0.361827    1.192890    0.288278
     12          1           0        0.387506    1.115462    1.385056
     13          1           0        0.555048    2.247193    0.050511
     14          1           0       -1.989723   -0.432668    1.283356
 ---------------------------------------------------------------------
                    Distance matrix (angstroms):
                    1          2          3          4          5
     1  C    0.000000
     2  H    1.094485   0.000000
     3  H    1.098236   1.781707   0.000000
     4  C    1.513267   2.139474   2.118711   0.000000
     5  O    2.420381   2.625405   3.213181   1.215733   0.000000
     6  C    3.623063   3.983259   4.515504   3.853222   3.939342
     7  H    3.871653   4.474363   4.645326   3.855652   4.040757
     8  H    4.536443   4.725215   5.490110   4.714487   4.582477
     9  C    2.615065   2.838456   3.494786   3.286861   3.572444
    10  H    3.034023   2.854354   3.919887   3.873598   4.014019
    11  C    1.568041   2.201775   2.150066   2.597196   3.367461
    12  H    2.201654   3.105383   2.503283   2.826058   3.714643
    13  H    2.132015   2.510751   2.335154   3.471194   4.301958
    14  H    2.224468   3.093406   2.441713   1.113768   2.005916
                    6          7          8          9         10
     6  C    0.000000
[...]
 ! A19   A(9,11,12)            109.8499         -DE/DX =    0.0                 !
 ! A20   A(9,11,13)            109.5779         -DE/DX =    0.0                 !
 ! A21   A(12,11,13)           106.5028         -DE/DX =    0.0                 !
 ! D1    D(2,1,4,5)            -11.1005         -DE/DX =    0.0                 !
 ! D2    D(2,1,4,14)           170.0088         -DE/DX =    0.0                 !
 ! D3    D(3,1,4,5)            104.5737         -DE/DX =    0.0                 !
 ! D4    D(3,1,4,14)           -74.317          -DE/DX =    0.0                 !
 ! D5    D(11,1,4,5)          -135.8454         -DE/DX =    0.0                 !
 ! D6    D(11,1,4,14)           45.264          -DE/DX =    0.0                 !
 ! D7    D(2,1,11,9)           -56.9473         -DE/DX =    0.0                 !
 ! D8    D(2,1,11,12)          179.9725         -DE/DX =    0.0                 !
 ! D9    D(2,1,11,13)           64.2956         -DE/DX =    0.0                 !
 ! D10   D(3,1,11,9)          -175.4387         -DE/DX =    0.0                 !
 ! D11   D(3,1,11,12)           61.481          -DE/DX =    0.0                 !
 ! D12   D(3,1,11,13)          -54.1959         -DE/DX =    0.0                 !
 ! D13   D(4,1,11,9)            66.1107         -DE/DX =    0.0                 !
 ! D14   D(4,1,11,12)          -56.9695         -DE/DX =    0.0                 !
 ! D15   D(4,1,11,13)         -172.6464         -DE/DX =    0.0                 !
 ! D16   D(7,6,9,10)          -179.7686         -DE/DX =    0.0                 !
 ! D17   D(7,6,9,11)            -0.0992         -DE/DX =    0.0                 !
 ! D18   D(8,6,9,10)             0.3524         -DE/DX =    0.0                 !
 ! D19   D(8,6,9,11)          -179.9782         -DE/DX =    0.0                 !
 ! D20   D(6,9,11,1)          -122.9879         -DE/DX =    0.0                 !
 ! D21   D(6,9,11,12)            0.1075         -DE/DX =    0.0                 !
 ! D22   D(6,9,11,13)          116.7825         -DE/DX =    0.0                 !
 ! D23   D(10,9,11,1)           56.6911         -DE/DX =    0.0                 !
 ! D24   D(10,9,11,12)         179.7865         -DE/DX =    0.0                 !
 ! D25   D(10,9,11,13)         -63.5386         -DE/DX =    0.0                 !
 --------------------------------------------------------------------------------
 GradGradGradGradGradGradGradGradGradGradGradGradGradGradGradGradGradGrad

 Leave Link  103 at Wed Oct 16 16:29:18 2019, MaxMem=   280000000 cpu:               6.4 elap:               0.3
 (Enter /home/soft/g16/l9999.exe)

 ----------------------------------------------------------------------

 Electric dipole moment (input orientation):
 (Debye = 10**-18 statcoulomb cm , SI units = C m)
                  (au)            (Debye)         (10**-30 SI)
   Tot        0.121409D+01      0.308592D+01      0.102935D+02
   x          0.563274D+00      0.143170D+01      0.477563D+01
   y          0.926188D+00      0.235413D+01      0.785255D+01
   z          0.546738D+00      0.138967D+01      0.463544D+01

 Dipole polarizability, Alpha (input orientation).
 (esu units = cm**3 , SI units = C**2 m**2 J**-1)
 Alpha(0;0):
               (au)            (10**-24 esu)      (10**-40 SI)
   iso        0.624085D+02      0.924798D+01      0.102898D+02
   aniso      0.162031D+02      0.240105D+01      0.267153D+01
   xx         0.668123D+02      0.990056D+01      0.110159D+02
   yx        -0.381606D+01     -0.565482D+00     -0.629183D+00
   yy         0.619003D+02      0.917268D+01      0.102060D+02
   zx         0.727738D+01      0.107840D+01      0.119988D+01
   zy        -0.160536D+01     -0.237890D+00     -0.264688D+00
   zz         0.585129D+02      0.867071D+01      0.964747D+01

 ----------------------------------------------------------------------

 Dipole orientation:
     6         -1.92455043          1.92328275          0.21068142
     1         -1.06202383          3.62260671         -0.59940162
     1         -3.74758595          2.48571650          1.04416740
     6         -2.51120321          0.09331275         -1.90518508
     8         -2.42483386          0.60184405         -4.13891415
     6          3.41992240         -2.18863616          1.51447169
     1          2.41652722         -3.80524572          2.29846889
     1          5.32600034         -2.53293082          0.83104472
     6          2.36622987          0.10387453          1.40099557
     1          3.44719036          1.66345838          0.59107949
     6         -0.25613625          0.75102107          2.30168447
     1         -1.17548939         -0.94377128          3.07095218
     1         -0.13886578          2.11799092          3.86121277
     1         -3.09000849         -1.83353275         -1.28748224

 Electric dipole moment (dipole orientation):
 (Debye = 10**-18 statcoulomb cm , SI units = C m)
                  (au)            (Debye)         (10**-30 SI)
   Tot        0.121409D+01      0.308592D+01      0.102935D+02
   x          0.000000D+00      0.000000D+00      0.000000D+00
   y          0.000000D+00      0.000000D+00      0.000000D+00
   z          0.121409D+01      0.308592D+01      0.102935D+02

 Dipole polarizability, Alpha (dipole orientation).
 (esu units = cm**3 , SI units = C**2 m**2 J**-1)
 Alpha(0;0):
               (au)            (10**-24 esu)      (10**-40 SI)
   iso        0.624085D+02      0.924798D+01      0.102898D+02
   aniso      0.162031D+02      0.240105D+01      0.267153D+01
   xx         0.602055D+02      0.892153D+01      0.992654D+01
   yx        -0.814938D+01     -0.120761D+01     -0.134365D+01
   yy         0.655127D+02      0.970798D+01      0.108016D+02
   zx         0.257036D+01      0.380889D+00      0.423796D+00
   zy        -0.261604D+01     -0.387657D+00     -0.431326D+00
   zz         0.615073D+02      0.911444D+01      0.101412D+02

 ----------------------------------------------------------------------
 1\1\GINC-NODE03\Freq\RB3LYP\6-31+G(d)\C5H8O1\ROOT\16-Oct-2019\0\\#P Ge
 om=AllCheck Guess=TCheck SCRF=Check GenChk RB3LYP/6-31+G(d) Freq\\Titl
 e Card Required\\0,1\C,-1.0639233092,0.9429501031,-0.253708509\H,-1.09
 35616272,1.0429552629,-1.344511715\H,-1.7534598681,1.693041434,0.16543
 69435\C,-1.6114423442,-0.4152505996,0.1248449525\O,-2.186592657,-1.167
 015709,-0.6339513596\C,2.1956076461,-0.5237046624,0.4048088928\H,2.144
 6790214,-0.5898420004,1.4905893943\H,2.9312376958,-1.1548276242,-0.087
 025414\C,1.3968639619,0.292912268,-0.2890046665\H,1.483747472,0.320501
 9456,-1.3769840148\C,0.3526757076,1.2001958991,0.3082010001\H,0.346099
 9032,1.0924881809,1.4013999167\H,0.6118757769,2.2477266287,0.099217209
 1\H,-1.4717973792,-0.7016441267,1.1919953701\\Version=ES64L-G16RevA.03
 \State=1-A\HF=-270.5477341\RMSD=4.738e-09\RMSF=2.436e-06\ZeroPoint=0.1
 180665\Thermal=0.1251157\Dipole=0.5632738,0.9261879,0.5467382\DipoleDe
 riv=0.0642159,-0.0982986,-0.0386957,-0.1747647,-0.2551193,0.0198798,0.
 0644026,0.0272295,0.0806357,0.030872,-0.0441005,0.0041604,-0.0362335,0
 .0444141,-0.0033898,-0.0186317,0.0384225,-0.101997,-0.0829781,0.071648
 8,0.0286134,0.0548004,-0.0169744,-0.0363915,0.0764666,-0.0363225,0.049
 9125,0.4561084,0.3921797,0.2203654,0.5847919,0.9400562,0.1348635,0.157
 2379,0.0538718,0.8194218,-0.5781508,-0.2670239,-0.1757655,-0.3731087,-
 0.7277349,-0.2001174,-0.2292072,-0.2301747,-0.6316458,-0.229439,-0.117
 004,-0.0640195,-0.0883563,-0.2001346,0.0150783,-0.0621364,0.0397704,0.
 0977782,0.0952005,0.0496504,0.049986,0.0526441,0.0996365,-0.0135054,0.
 0045266,0.0207124,-0.1047955,0.0222457,0.1155761,0.0372506,0.132383,0.
 0597956,-0.0175211,0.0599588,-0.0411938,0.0216905,-0.019123,-0.2187992
 ,-0.0242977,-0.2998291,-0.019742,-0.0379786,-0.1005419,-0.0211565,0.10
 53133,0.0728598,0.0586737,0.0027875,0.0752646,0.074684,0.0128307,0.029
 6912,0.0111164,-0.1212885,0.1697393,0.0780219,0.017056,0.0814534,0.114
 0783,-0.0066047,0.0131939,0.0743373,0.1201002,-0.0078121,0.0230476,-0.
 0031131,0.023674,0.0548454,0.0544171,0.006501,-0.0216016,-0.1491029,-0
 .0368561,-0.027154,-0.0025107,-0.0010749,-0.1516563,0.0221179,0.036834
 8,0.0223996,0.0716552,0.0431175,-0.0164179,-0.051817,-0.0316441,-0.016
 1487,0.0563212,-0.0382962,0.0625893,-0.2576779\Polar=66.8122758,-3.816
 0604,61.9002798,7.2773754,-1.60536,58.5128514\Quadrupole=-2.1160569,-0
 .1516186,2.2676755,-4.4966382,-2.5279368,-1.6113092\PG=C01 [X(C5H8O1)]
 \NImag=0\\0.44675602,-0.02686353,0.48008043,-0.01902987,0.00691356,0.5
 9764673,-0.05033257,-0.00018072,-0.00448045,0.05286461,-0.00022621,-0.
 05007164,0.02088597,0.00152964,0.05304576,-0.00280544,0.02448520,-0.31
 109423,0.00545590,-0.02616642,0.33676979,-0.13471139,0.10450144,0.0617
 6988,0.00029585,-0.00081359,0.00007543,0.15482295,0.11225134,-0.167542
 34,-0.06615844,-0.00279846,0.00290101,0.00127947,-0.11612025,0.1799884
 3,0.06139156,-0.06192899,-0.08445100,0.01998677,-0.02277899,-0.0109732
 3,-0.06523694,0.07380000,0.08724165,-0.09316457,-0.02336530,0.01305774
 ,0.00036005,-0.00013820,-0.00094610,0.00864571,0.02004608,-0.00692706,
 0.38147316,-0.02207759,-0.15608546,0.04434050,0.00065494,-0.00496709,0
 .00007571,-0.00813684,-0.02203711,0.00418595,0.23939258,0.61521545,0.0
 1672147,0.04622706,-0.11249363,0.01323273,0.03615605,-0.01165850,-0.00
 633359,-0.01685122,0.00324793,0.20538564,0.13354123,0.72559596,0.00652
 256,-0.02825230,-0.01420968,-0.00051126,0.00248561,0.00001878,-0.00324
 947,-0.00465113,0.00060843,-0.21998142,-0.20951672,-0.20595658,0.20895
 873,-0.03505680,-0.03080910,-0.03033632,0.00106094,0.00362056,-0.00106
 425,-0.00077186,-0.00149579,0.00003215,-0.20838233,-0.34423063,-0.2497
 8197,0.25043908,0.36671876,-0.00643722,-0.01202017,0.01559446,-0.00134
 967,-0.00320554,0.00351033,0.00051722,0.00292334,0.00080545,-0.2080093
 8,-0.25300614,-0.36991313,0.24226884,0.29465652,0.38250964,-0.00001015
 ,0.00137410,0.00153655,-0.00020973,-0.00000571,-0.00013139,-0.00091330
 ,-0.00030180,-0.00019501,0.00010310,0.00122910,0.00000551,-0.00020949,
 -0.00071431,-0.00029648,0.47403280,-0.00090034,-0.00102266,-0.00227090
 ,0.00030514,0.00004003,0.00020437,0.00063791,0.00050702,0.00025978,0.0
 0031013,-0.00233361,0.00042619,0.00002674,0.00139003,0.00041904,-0.345
 71780,0.43670129,0.00192717,-0.00153901,-0.00137382,0.00015913,-0.0000
 5465,0.00029228,0.00103600,0.00002736,0.00033907,-0.00054442,-0.000450
 02,0.00062388,0.00023557,0.00028753,-0.00008921,0.03519514,-0.09461485
 ,0.69222858,-0.00052146,0.00058993,0.00018462,-0.00001080,0.00000614,0
 .00005096,-0.00020251,0.00000044,-0.00011168,-0.00003082,0.00028855,-0
 .00042926,0.00010221,-0.00001808,0.00018141,-0.04902238,0.01077926,0.0
 1907836,0.04085906,-0.00034359,0.00065076,0.00012437,-0.00016774,-0.00
 004723,-0.00019224,-0.00021330,-0.00001385,-0.00014292,0.00001340,0.00
 041077,-0.00015646,0.00005120,-0.00017200,-0.00001825,0.01099529,-0.04
 671138,0.01355068,-0.01445769,0.03879156,-0.00011454,0.00008346,0.0003
 8727,0.00021125,-0.00004703,0.00002768,-0.00009781,-0.00001689,-0.0000
 1484,-0.00001908,0.00020863,-0.00056816,0.00000476,-0.00003344,0.00023
 296,0.01630607,0.01623615,-0.33257765,-0.01614669,-0.01980103,0.354995
 84,0.00081772,-0.00087222,-0.00031727,-0.00006208,-0.00000576,0.000002
 81,0.00025215,-0.00002184,0.00011795,0.00017874,0.00021001,0.00007535,
 -0.00016000,-0.00030601,-0.00016329,-0.17502089,0.12145330,0.08910641,
 0.00189211,0.00040022,-0.00076666,0.18059667,0.00129166,-0.00174498,-0
 .00100738,0.00000454,0.00001656,0.00007877,0.00075992,0.00010767,0.000
 24958,-0.00012944,-0.00064694,0.00009622,0.00002559,0.00021376,0.00006
 594,0.12111165,-0.13883612,-0.07378500,-0.00167779,0.00357321,0.001859
 54,-0.13582989,0.14112097,-0.00014673,0.00003817,0.00043132,0.00008273
 ,-0.00000115,0.00000995,-0.00014784,-0.00004965,-0.00003877,-0.0000095
 0,0.00013322,-0.00029159,0.00000488,-0.00004756,0.00008392,0.09260746,
 -0.07685948,-0.12033231,0.01922623,-0.01656577,-0.00927731,-0.09649951
 ,0.07956709,0.11804324,-0.02821728,0.01984943,0.00900412,0.00234254,0.
 00030804,0.00104670,-0.00500362,-0.00100927,-0.00137553,0.00082629,-0.
 00125556,0.00059733,-0.00023324,0.00163627,0.00056172,-0.24044703,0.19
 232618,-0.13493367,0.00536997,-0.00007228,0.00202151,-0.00964595,0.013
 41936,-0.01371929,0.45912602,0.00289685,0.00401367,0.00646730,-0.00034
 268,-0.00015557,-0.00037425,-0.00239104,0.00032332,-0.00105481,-0.0011
 1691,0.00296946,-0.00042061,-0.00026021,-0.00134331,-0.00040422,0.1923
 6335,-0.24180626,0.14560687,0.00239038,0.00355063,0.00022129,0.0105669
 5,-0.00833471,0.01186110,-0.29169392,0.43425398,-0.00684579,0.00861029
 ,0.00795303,-0.00129334,0.00080934,0.00057332,-0.00476217,-0.00059518,
 -0.00044375,0.00094105,0.00204261,-0.00074543,-0.00042855,-0.00106722,
 -0.00038575,-0.13600574,0.14649510,-0.23634073,-0.01981986,0.02053234,
 -0.01555207,0.01047149,-0.01053275,0.01081079,0.07625586,-0.12342706,0
 .68517657,0.00176456,-0.00059762,0.00093151,-0.00045968,0.00007242,-0.
 00065718,0.00029207,0.00002211,-0.00037033,0.00000142,0.00015445,0.000
 29959,-0.00000540,-0.00027391,-0.00028379,0.00548997,0.00262432,-0.020
 92720,0.00356299,0.00773429,-0.00148047,-0.00293760,-0.00431755,-0.000
 43246,-0.05149539,0.00750810,0.02508072,0.04601607,-0.00045003,0.00024
 227,-0.00017912,0.00024967,0.00013801,0.00037991,-0.00012307,-0.000108
 96,0.00013400,0.00007580,0.00007744,0.00014892,0.00009272,0.00000776,-
 0.00004321,0.00038925,0.00330815,0.02193672,0.00779031,0.00426774,0.00
 254434,-0.00432646,-0.00356581,-0.00054378,0.00778889,-0.04824180,0.00
 491030,-0.01644138,0.04181917,-0.00043001,0.00016825,0.00038568,0.0006
 9550,0.00003704,0.00036113,0.00012803,-0.00001433,0.00023984,-0.000062
 77,-0.00039156,-0.00036609,0.00004020,0.00035357,0.00034073,0.00242133
 ,-0.00001192,-0.01519352,-0.00132796,0.00232374,0.00015537,-0.00059726
 ,-0.00030824,0.00128566,0.02274278,0.00771618,-0.32301112,-0.02490612,
 -0.00906017,0.34610458,-0.14853428,-0.00996855,-0.02896400,-0.00054577
 ,0.00011129,-0.00070433,-0.02215901,-0.00514294,-0.01021511,-0.0148804
 1,-0.01250181,-0.00447887,0.00072817,0.00247617,0.00216526,-0.01269789
 ,0.01794711,0.00685680,-0.00264977,-0.00504723,0.00082449,0.00590109,0
 .00673897,-0.00038936,-0.13553303,0.05689477,0.03810494,-0.00041386,0.
 00245555,-0.00025524,0.43463337,-0.02390889,-0.07243050,-0.00241873,0.
 00321295,0.00021567,0.00067844,0.02107472,0.00486501,0.00796530,-0.031
 07957,-0.00294147,-0.01446595,0.00028133,-0.00800846,0.00076244,0.0194
 6637,-0.01164397,-0.00704159,-0.00499134,-0.00365215,-0.00171547,0.007
 60053,0.00721367,0.00199601,0.05714506,-0.12637874,-0.03053277,-0.0002
 4262,0.00293953,0.00141044,0.00458751,0.54074518,-0.02934910,-0.000595
 48,-0.09808737,-0.03083592,-0.00668110,-0.00910174,0.01193431,0.002760
 69,0.00388266,0.00597506,-0.00953802,0.00458262,-0.00008983,0.00420311
 ,0.00178966,-0.01083660,0.00961579,0.01161443,-0.00189478,0.00073580,0
 .00099431,-0.00176129,0.00352778,-0.00158743,0.04027564,-0.03400983,-0
 .11715120,0.02142236,-0.01947891,-0.01091839,-0.02090088,-0.02922785,0
 .57398610,-0.00073834,0.00349302,-0.03213719,-0.00570545,-0.00157059,-
 0.00154188,0.00113440,0.00051771,0.00041638,0.00131878,0.00097224,-0.0
 0193487,-0.00007889,-0.00021999,0.00097243,0.00065247,-0.00103438,0.00
 067223,-0.00002166,0.00032034,-0.00083506,0.00011951,-0.00022198,-0.00
 024154,-0.00107402,-0.00247536,0.02455047,-0.00225709,0.00346315,0.001
 48428,-0.04902999,-0.00016140,0.00205195,0.05615185,-0.00004877,0.0002
 7364,-0.00608723,-0.00110256,0.00031119,-0.00050625,0.00027747,0.00007
 480,0.00042319,-0.00001816,0.00000719,-0.00203001,0.00012586,0.0001657
 0,0.00076547,-0.00112551,0.00062957,-0.00095123,0.00011926,-0.00001258
 ,0.00066230,-0.00030951,0.00009182,0.00014435,0.00112907,0.00146947,-0
 .02213815,0.00335987,-0.00139034,-0.00164661,-0.00047811,-0.05355971,0
 .02849331,-0.00199823,0.05447233,-0.00183511,0.00026938,-0.01129000,-0
 .00212047,-0.00008461,0.00062408,-0.00029592,0.00015917,0.00058292,0.0
 0111680,0.00189031,-0.00085429,-0.00005454,-0.00031260,0.00060053,-0.0
 0143734,0.00099482,0.00151545,0.00068370,-0.00049818,0.00080452,-0.000
 17591,-0.00010500,0.00041668,0.00123423,0.00123252,-0.01526508,0.00169
 049,-0.00146102,0.00029664,0.00336138,0.02654238,-0.29957055,-0.002315
 99,-0.02892046,0.32784264,-0.01343572,-0.03068097,0.00701617,0.0011731
 9,0.00034876,-0.00018795,0.00159885,0.00010816,0.00085779,-0.00502795,
 0.00316945,-0.00451450,-0.00040073,-0.00341978,-0.00026202,-0.00161040
 ,0.00122403,0.00200357,0.00070698,0.00077763,0.00005039,-0.00189853,-0
 .00116436,-0.00032665,0.00418055,0.02551955,-0.00613936,0.00042455,-0.
 00096407,0.00005890,-0.05619621,-0.05546233,0.01383401,-0.00033654,0.0
 0014145,0.00038189,0.07015633,-0.00258112,-0.00504657,0.00116148,-0.00
 002682,0.00002595,-0.00036206,-0.00000939,0.00090644,0.00019609,-0.000
 69194,0.00168941,-0.00103585,0.00001657,-0.00035117,0.00016991,0.00094
 986,-0.00046425,-0.00290625,-0.00071818,-0.00062160,-0.00012430,0.0014
 1493,0.00073569,0.00036450,0.00026159,-0.02018664,0.00489949,0.0002865
 9,0.00056722,-0.00046750,-0.05905466,-0.27733086,0.04895579,-0.0005386
 2,-0.00245928,0.00128458,0.06047619,0.30246681,-0.00717565,-0.01301480
 ,0.00236848,0.00059104,-0.00025927,0.00034655,0.00095067,0.00047517,0.
 00025743,-0.00163463,0.00203110,-0.00103156,-0.00010345,-0.00128852,-0
 .00003387,0.00080537,-0.00051646,-0.00055711,0.00017938,0.00002325,0.0
 0019952,0.00051260,0.00035531,0.00036492,-0.00366601,-0.01366336,0.004
 05509,-0.00027867,0.00064157,0.00024212,0.01491998,0.04638526,-0.06022
 689,0.00804832,0.03152096,-0.00634567,-0.01319813,-0.05207699,0.060111
 81,0.01380490,-0.00902672,0.00563786,0.00080110,-0.00210186,0.00032367
 ,-0.00080268,-0.00290016,0.00105279,-0.05982209,0.00741721,-0.01266993
 ,0.00851824,-0.00644940,-0.02986502,-0.00013707,0.00001842,0.00013492,
 -0.00003393,0.00000946,0.00004183,-0.00003293,-0.00001068,-0.00000842,
 -0.00019581,0.00014018,-0.00010970,0.00001740,-0.00000035,0.00000834,0
 .00137759,0.00247769,0.00017507,-0.00013504,-0.00007212,-0.00023321,0.
 00066563,0.00021500,0.00004919,0.03597469,-0.00398297,-0.00050753,0.02
 856493,-0.00239882,-0.00507321,0.00148360,0.00132789,0.00152434,-0.001
 34035,0.00508384,-0.08712742,0.06814639,-0.01086436,0.01429390,-0.0310
 6511,-0.00001383,0.00024214,-0.00006655,-0.00010121,-0.00001388,-0.000
 07754,0.00002576,0.00005521,-0.00003707,0.00016713,-0.00013350,-0.0000
 0635,0.00011092,-0.00006038,-0.00010888,0.00098193,-0.00003320,0.00123
 893,-0.00054589,-0.00007379,-0.00099130,-0.00007372,0.00006884,-0.0006
 1321,0.01028333,0.07683846,-0.00587074,0.00230308,-0.00597693,-0.00033
 519,0.00139036,0.00031259,0.00046274,0.00226050,-0.00067537,-0.0083233
 3,0.07493647,-0.23612801,-0.02233884,-0.01560100,-0.03504573,0.0000251
 4,-0.00037764,-0.00014933,0.00014557,0.00008468,0.00019259,-0.00000540
 ,-0.00006185,0.00008094,-0.00004541,0.00024887,0.00032633,-0.00008845,
 0.00007045,0.00007738,-0.00032507,-0.00033790,-0.00020621,0.00081048,0
 .00027037,0.00064213,0.00042589,-0.00005890,0.00024920,0.03546262,-0.0
 6512750,0.27630041\\0.00000631,-0.00000294,0.00000140,-0.00000054,0.00
 000079,-0.00000151,-0.00000018,0.,0.00000110,-0.00000312,-0.00000155,-
 0.00000842,0.00000361,0.00000385,0.00000306,0.00000031,-0.00000223,0.0
 0000034,-0.00000041,0.00000026,0.00000058,0.00000044,0.00000071,0.0000
 0081,-0.00000258,0.00000046,-0.00000266,0.00000152,-0.00000035,0.00000
 044,-0.00000587,-0.00000100,-0.00000051,0.00000074,0.00000042,0.000002
 13,-0.00000131,0.00000076,0.00000190,0.00000106,0.00000082,0.00000133\
 \\@


 NEVER LOSE YOUR IGNORANCE, IT CAN'T BE REPLACED.
   -- ANDY CAPP
 Job cpu time:       0 days  0 hours  8 minutes 25.7 seconds.
 Elapsed time:       0 days  0 hours  0 minutes 21.9 seconds.
 File lengths (MBytes):  RWF=    344 Int=      0 D2E=      0 Chk=      8 Scr=      8
 Normal termination of Gaussian 16 at Wed Oct 16 16:29:18 2019.
