 Entering Gaussian System, Link 0=g16
 Input=R.gjf
 Output=R.log
 Initial command:
 /home/soft/g16/l1.exe "/tmp/gaussian/Gau-182981.inp" -scrdir="/tmp/gaussian/"
 Entering Link 1 = /home/soft/g16/l1.exe PID=    182982.
  
 Copyright (c) 1988,1990,1992,1993,1995,1998,2003,2009,2016,
            Gaussian, Inc.  All Rights Reserved.
  
 This is part of the Gaussian(R) 16 program.  It is based on
 the Gaussian(R) 09 system (copyright 2009, Gaussian, Inc.),
 the Gaussian(R) 03 system (copyright 2003, Gaussian, Inc.),
 the Gaussian(R) 98 system (copyright 1998, Gaussian, Inc.),
 the Gaussian(R) 94 system (copyright 1995, Gaussian, Inc.),
 the Gaussian 92(TM) system (copyright 1992, Gaussian, Inc.),
 the Gaussian 90(TM) system (copyright 1990, Gaussian, Inc.),
 the Gaussian 88(TM) system (copyright 1988, Gaussian, Inc.),
 the Gaussian 86(TM) system (copyright 1986, Carnegie Mellon
 University), and the Gaussian 82(TM) system (copyright 1983,
 Carnegie Mellon University). Gaussian is a federally registered
 trademark of Gaussian, Inc.
  
 This software contains proprietary and confidential information,
 including trade secrets, belonging to Gaussian, Inc.
  
 This software is provided under written license and may be
 used, copied, transmitted, or stored only in accord with that
 written license.
  
 The following legend is applicable only to US Government
 contracts under FAR:
  
                    RESTRICTED RIGHTS LEGEND
  
 Use, reproduction and disclosure by the US Government is
 subject to restrictions as set forth in subparagraphs (a)
 and (c) of the Commercial Computer Software - Restricted
 Rights clause in FAR 52.227-19.
  
 Gaussian, Inc.
 340 Quinnipiac St., Bldg. 40, Wallingford CT 06492
  
  
 ---------------------------------------------------------------
 Warning -- This program may not be used in any manner that
 competes with the business of Gaussian, Inc. or will provide
 assistance to any competitor of Gaussian, Inc.  The licensee
 of this program is prohibited from giving any competitor of
 Gaussian, Inc. access to this program.  By using this program,
 the user acknowledges that Gaussian, Inc. is engaged in the
 business of creating and licensing software in the field of
 computational chemistry and represents and warrants to the
 licensee that it is not a competitor of Gaussian, Inc. and that
 it will not use this program in any manner prohibited above.
 ---------------------------------------------------------------
  

 Cite this work as:
 Gaussian 16, Revision A.03,
 M. J. Frisch, G. W. Trucks, H. B. Schlegel, G. E. Scuseria, 
 M. A. Robb, J. R. Cheeseman, G. Scalmani, V. Barone, 
 G. A. Petersson, H. Nakatsuji, X. Li, M. Caricato, A. V. Marenich, 
 J. Bloino, B. G. Janesko, R. Gomperts, B. Mennucci, H. P. Hratchian, 
 J. V. Ortiz, A. F. Izmaylov, J. L. Sonnenberg, D. Williams-Young, 
 F. Ding, F. Lipparini, F. Egidi, J. Goings, B. Peng, A. Petrone, 
 T. Henderson, D. Ranasinghe, V. G. Zakrzewski, J. Gao, N. Rega, 
 G. Zheng, W. Liang, M. Hada, M. Ehara, K. Toyota, R. Fukuda, 
 J. Hasegawa, M. Ishida, T. Nakajima, Y. Honda, O. Kitao, H. Nakai, 
 T. Vreven, K. Throssell, J. A. Montgomery, Jr., J. E. Peralta, 
 F. Ogliaro, M. J. Bearpark, J. J. Heyd, E. N. Brothers, K. N. Kudin, 
 V. N. Staroverov, T. A. Keith, R. Kobayashi, J. Normand, 
 K. Raghavachari, A. P. Rendell, J. C. Burant, S. S. Iyengar, 
 J. Tomasi, M. Cossi, J. M. Millam, M. Klene, C. Adamo, R. Cammi, 
 J. W. Ochterski, R. L. Martin, K. Morokuma, O. Farkas, 
 J. B. Foresman, and D. J. Fox, Gaussian, Inc., Wallingford CT, 2016.
 
 ******************************************
 Gaussian 16:  ES64L-G16RevA.03 25-Dec-2016
                15-Oct-2019 
 ******************************************
 %chk=R.chk
 %nproc=24
 Will use up to   24 processors via shared memory.
 -------------------------
 #p b3lyp/6-31+g* opt freq
 -------------------------
 1/18=20,19=15,26=3,38=1/1,3;
 2/9=110,12=2,17=6,18=5,40=1/2;
 3/5=1,6=6,7=11,11=2,25=1,30=1,71=1,74=-5/1,2,3;
 4//1;
 5/5=2,38=5/2;
 6/7=2,8=2,9=2,10=2,28=1/1;
 7//1,2,3,16;
 1/18=20,19=15,26=3/3(2);
 2/9=110/2;
 99//99;
 2/9=110/2;
 3/5=1,6=6,7=11,11=2,25=1,30=1,71=1,74=-5/1,2,3;
 4/5=5,16=3,69=1/1;
 5/5=2,38=5/2;
 7//1,2,3,16;
 1/18=20,19=15,26=3/3(-5);
 2/9=110/2;
 6/7=2,8=2,9=2,10=2,19=2,28=1/1;
 99/9=1/99;
 Leave Link    1 at Tue Oct 15 00:45:33 2019, MaxMem=           0 cpu:               2.4 elap:               0.1
 (Enter /home/soft/g16/l101.exe)
 -------------------
 Title Card Required
 -------------------
 Symbolic Z-matrix:
 Charge =  0 Multiplicity = 1
 C                    -3.76142  -1.43796   0.61962 
 H                    -3.24086  -2.35902   0.77952 
 H                    -4.81573  -1.38215   0.79339 
 C                    -3.08539  -0.34207   0.19702 
 H                    -3.60595   0.57899   0.03713 
 O                    -1.67634  -0.41665  -0.03522 
 C                    -1.10009  -1.39079   0.83879 
 H                    -0.04577  -1.4466    0.66502 
 H                    -1.27961  -1.10864   1.85519 
 C                    -1.73858  -2.76564   0.56728 
 H                    -1.17259  -3.65942   0.72762 
 C                    -3.0173   -2.8435    0.12527 
 H                    -3.5833   -1.94972  -0.03507 
 H                    -3.46093  -3.79876  -0.06338 
 
 ITRead=  0  0  0  0  0  0  0  0  0  0  0  0  0  0
 MicOpt= -1 -1 -1 -1 -1 -1 -1 -1 -1 -1 -1 -1 -1 -1
 NAtoms=     14 NQM=       14 NQMF=       0 NMMI=      0 NMMIF=      0
                NMic=       0 NMicF=      0.
                    Isotopes and Nuclear Properties:
 (Nuclear quadrupole moments (NQMom) in fm**2, nuclear magnetic moments (NMagM)
  in nuclear magnetons)

  Atom         1           2           3           4           5           6           7           8           9          10
 IAtWgt=          12           1           1          12           1          16          12           1           1          12
 AtmWgt=  12.0000000   1.0078250   1.0078250  12.0000000   1.0078250  15.9949146  12.0000000   1.0078250   1.0078250  12.0000000
 NucSpn=           0           1           1           0           1           0           0           1           1           0
 AtZEff=  -0.0000000  -0.0000000  -0.0000000  -0.0000000  -0.0000000  -0.0000000  -0.0000000  -0.0000000  -0.0000000  -0.0000000
 NQMom=    0.0000000   0.0000000   0.0000000   0.0000000   0.0000000   0.0000000   0.0000000   0.0000000   0.0000000   0.0000000
 NMagM=    0.0000000   2.7928460   2.7928460   0.0000000   2.7928460   0.0000000   0.0000000   2.7928460   2.7928460   0.0000000
 AtZNuc=   6.0000000   1.0000000   1.0000000   6.0000000   1.0000000   8.0000000   6.0000000   1.0000000   1.0000000   6.0000000

  Atom        11          12          13          14
 IAtWgt=           1          12           1           1
 AtmWgt=   1.0078250  12.0000000   1.0078250   1.0078250
 NucSpn=           1           0           1           1
 AtZEff=  -0.0000000  -0.0000000  -0.0000000  -0.0000000
 NQMom=    0.0000000   0.0000000   0.0000000   0.0000000
 NMagM=    2.7928460   0.0000000   2.7928460   2.7928460
 AtZNuc=   1.0000000   6.0000000   1.0000000   1.0000000
 Leave Link  101 at Tue Oct 15 00:45:34 2019, MaxMem=   280000000 cpu:               4.8 elap:               0.3
 (Enter /home/soft/g16/l103.exe)

 GradGradGradGradGradGradGradGradGradGradGradGradGradGradGradGradGradGrad
 Berny optimization.
 Initialization pass.
                           ----------------------------
                           !    Initial Parameters    !
                           ! (Angstroms and Degrees)  !
 --------------------------                            --------------------------
 ! Name  Definition              Value          Derivative Info.                !
 --------------------------------------------------------------------------------
 ! R1    R(1,2)                  1.07           estimate D2E/DX2                !
 ! R2    R(1,3)                  1.07           estimate D2E/DX2                !
 ! R3    R(1,4)                  1.3552         estimate D2E/DX2                !
 ! R4    R(1,12)                 1.6654         estimate D2E/DX2                !
 ! R5    R(1,13)                 0.8499         estimate D2E/DX2                !
 ! R6    R(2,12)                 0.8442         estimate D2E/DX2                !
 ! R7    R(4,5)                  1.07           estimate D2E/DX2                !
 ! R8    R(4,6)                  1.43           estimate D2E/DX2                !
 ! R9    R(6,7)                  1.43           estimate D2E/DX2                !
 ! R10   R(7,8)                  1.07           estimate D2E/DX2                !
 ! R11   R(7,9)                  1.07           estimate D2E/DX2                !
 ! R12   R(7,10)                 1.54           estimate D2E/DX2                !
 ! R13   R(10,11)                1.07           estimate D2E/DX2                !
 ! R14   R(10,12)                1.3552         estimate D2E/DX2                !
 ! R15   R(12,13)                1.07           estimate D2E/DX2                !
 ! R16   R(12,14)                1.07           estimate D2E/DX2                !
 ! A1    A(2,1,3)              120.0            estimate D2E/DX2                !
 ! A2    A(2,1,4)              120.0            estimate D2E/DX2                !
 ! A3    A(2,1,13)              59.6551         estimate D2E/DX2                !
 ! A4    A(3,1,4)              120.0            estimate D2E/DX2                !
 ! A5    A(3,1,12)             122.1726         estimate D2E/DX2                !
 ! A6    A(3,1,13)             111.2862         estimate D2E/DX2                !
 ! A7    A(4,1,12)             111.532          estimate D2E/DX2                !
 ! A8    A(4,1,13)              98.1739         estimate D2E/DX2                !
 ! A9    A(1,4,5)              120.0            estimate D2E/DX2                !
 ! A10   A(1,4,6)              120.0            estimate D2E/DX2                !
 ! A11   A(5,4,6)              120.0            estimate D2E/DX2                !
 ! A12   A(4,6,7)              109.4712         estimate D2E/DX2                !
 ! A13   A(6,7,8)              109.4712         estimate D2E/DX2                !
 ! A14   A(6,7,9)              109.4712         estimate D2E/DX2                !
 ! A15   A(6,7,10)             109.4712         estimate D2E/DX2                !
 ! A16   A(8,7,9)              109.4712         estimate D2E/DX2                !
 ! A17   A(8,7,10)             109.4712         estimate D2E/DX2                !
 ! A18   A(9,7,10)             109.4712         estimate D2E/DX2                !
 ! A19   A(7,10,11)            120.0            estimate D2E/DX2                !
 ! A20   A(7,10,12)            120.0            estimate D2E/DX2                !
 ! A21   A(11,10,12)           120.0            estimate D2E/DX2                !
 ! A22   A(1,12,10)            106.0385         estimate D2E/DX2                !
 ! A23   A(1,12,14)            128.3555         estimate D2E/DX2                !
 ! A24   A(2,12,10)             87.944          estimate D2E/DX2                !
 ! A25   A(2,12,13)             59.7814         estimate D2E/DX2                !
 ! A26   A(2,12,14)            122.6275         estimate D2E/DX2                !
 ! A27   A(10,12,13)           120.0            estimate D2E/DX2                !
 ! A28   A(10,12,14)           120.0            estimate D2E/DX2                !
 ! A29   A(13,12,14)           120.0            estimate D2E/DX2                !
 ! D1    D(2,1,4,5)           -179.9998         estimate D2E/DX2                !
 ! D2    D(2,1,4,6)              0.0002         estimate D2E/DX2                !
 ! D3    D(3,1,4,5)              0.0002         estimate D2E/DX2                !
 ! D4    D(3,1,4,6)           -179.9998         estimate D2E/DX2                !
 ! D5    D(12,1,4,5)           152.7192         estimate D2E/DX2                !
 ! D6    D(12,1,4,6)           -27.2808         estimate D2E/DX2                !
 ! D7    D(13,1,4,5)           120.4258         estimate D2E/DX2                !
 ! D8    D(13,1,4,6)           -59.5742         estimate D2E/DX2                !
 ! D9    D(3,1,12,10)         -153.2849         estimate D2E/DX2                !
 ! D10   D(3,1,12,14)           -0.2956         estimate D2E/DX2                !
 ! D11   D(4,1,12,10)           54.6816         estimate D2E/DX2                !
 ! D12   D(4,1,12,14)         -152.3291         estimate D2E/DX2                !
 ! D13   D(1,4,6,7)            -30.0            estimate D2E/DX2                !
 ! D14   D(5,4,6,7)            150.0            estimate D2E/DX2                !
 ! D15   D(4,6,7,8)           -180.0            estimate D2E/DX2                !
 ! D16   D(4,6,7,9)            -60.0            estimate D2E/DX2                !
 ! D17   D(4,6,7,10)            60.0            estimate D2E/DX2                !
 ! D18   D(6,7,10,11)          150.0            estimate D2E/DX2                !
 ! D19   D(6,7,10,12)          -30.0            estimate D2E/DX2                !
 ! D20   D(8,7,10,11)           30.0            estimate D2E/DX2                !
 ! D21   D(8,7,10,12)         -150.0            estimate D2E/DX2                !
 ! D22   D(9,7,10,11)          -90.0            estimate D2E/DX2                !
 ! D23   D(9,7,10,12)           90.0            estimate D2E/DX2                !
 ! D24   D(7,10,12,1)          -24.2824         estimate D2E/DX2                !
 ! D25   D(7,10,12,2)          -52.9682         estimate D2E/DX2                !
 ! D26   D(7,10,12,13)          -0.0002         estimate D2E/DX2                !
 ! D27   D(7,10,12,14)         179.9999         estimate D2E/DX2                !
 ! D28   D(11,10,12,1)         155.7176         estimate D2E/DX2                !
 ! D29   D(11,10,12,2)         127.0318         estimate D2E/DX2                !
 ! D30   D(11,10,12,13)        179.9998         estimate D2E/DX2                !
 ! D31   D(11,10,12,14)         -0.0001         estimate D2E/DX2                !
 --------------------------------------------------------------------------------
 Trust Radius=3.00D-01 FncErr=1.00D-07 GrdErr=1.00D-06 EigMax=2.50D+02 EigMin=1.00D-04
 Number of steps in this run=     86 maximum allowed number of steps=    100.
 GradGradGradGradGradGradGradGradGradGradGradGradGradGradGradGradGradGrad

 Leave Link  103 at Tue Oct 15 00:45:34 2019, MaxMem=   280000000 cpu:               0.3 elap:               0.0
 (Enter /home/soft/g16/l202.exe)
                          Input orientation:                          
 ---------------------------------------------------------------------
 Center     Atomic      Atomic             Coordinates (Angstroms)
 Number     Number       Type             X           Y           Z
 ---------------------------------------------------------------------
      1          6           0       -3.761415   -1.437957    0.619621
      2          1           0       -3.240855   -2.359017    0.779515
      3          1           0       -4.815735   -1.382154    0.793391
      4          6           0       -3.085386   -0.342074    0.197021
      5          1           0       -3.605945    0.578987    0.037129
      6          8           0       -1.676343   -0.416653   -0.035218
      7          6           0       -1.100093   -1.390794    0.838788
      8          1           0       -0.045774   -1.446598    0.665015
      9          1           0       -1.279608   -1.108639    1.855185
     10          6           0       -1.738582   -2.765644    0.567276
     11          1           0       -1.172589   -3.659425    0.727619
     12          6           0       -3.017304   -2.843503    0.125266
     13          1           0       -3.583298   -1.949722   -0.035073
     14          1           0       -3.460929   -3.798756   -0.063383
 ---------------------------------------------------------------------
                    Distance matrix (angstroms):
                    1          2          3          4          5
     1  C    0.000000
     2  H    1.070000   0.000000
     3  H    1.070000   1.853294   0.000000
     4  C    1.355200   2.105120   2.105120   0.000000
     5  H    2.105120   3.052261   2.425200   1.070000   0.000000
     6  O    2.412344   2.623789   3.387413   1.430000   2.172533
     7  C    2.670748   2.350283   3.715929   2.335180   3.286638
     8  H    3.715928   3.324780   4.772123   3.267757   4.143918
     9  H    2.791852   2.562616   3.702217   2.568651   3.400773
    10  C    2.420196   1.570738   3.381427   2.797261   3.867126
    11  H    3.413004   2.443660   4.296836   3.865895   4.935801
    12  C    1.665427   0.844242   2.411697   2.503384   3.473860
    13  H    0.849855   0.973829   1.589776   1.698917   2.529841
    14  H    2.475915   1.682783   2.899918   3.486760   4.381297
                    6          7          8          9         10
     6  O    0.000000
     7  C    1.430000   0.000000
     8  H    2.051796   1.070000   0.000000
     9  H    2.051796   1.070000   1.747303   0.000000
    10  C    2.425826   1.540000   2.148263   2.148263   0.000000
    11  H    3.369162   2.272510   2.483995   2.790944   1.070000
    12  C    2.777325   2.509019   3.327561   3.003658   1.355200
    13  H    2.446790   2.691159   3.641062   3.096367   2.105120
    14  H    3.824155   3.490808   4.210284   3.959267   2.105120
                   11         12         13         14
    11  H    0.000000
    12  C    2.105120   0.000000
    13  H    3.052261   1.070000   0.000000
    14  H    2.425200   1.070000   1.853294   0.000000
 Stoichiometry    C5H8O
 Framework group  C1[X(C5H8O)]
 Deg. of freedom    36
 Full point group                 C1      NOp   1
 Largest Abelian subgroup         C1      NOp   1
 Largest concise Abelian subgroup C1      NOp   1
                         Standard orientation:                         
 ---------------------------------------------------------------------
 Center     Atomic      Atomic             Coordinates (Angstroms)
 Number     Number       Type             X           Y           Z
 ---------------------------------------------------------------------
      1          6           0       -0.181274    1.314346    0.355017
      2          1           0       -0.985276    0.609116    0.388659
      3          1           0       -0.351125    2.333054    0.634813
      4          6           0        1.052151    0.917314   -0.041964
      5          1           0        1.856154    1.622543   -0.075603
      6          8           0        1.279148   -0.444135   -0.415900
      7          6           0        0.392203   -1.293819    0.316403
      8          1           0        0.562053   -2.312526    0.036604
      9          1           0        0.571216   -1.177319    1.364869
     10          6           0       -1.065069   -0.910359   -0.001270
     11          1           0       -1.833210   -1.654567    0.030576
     12          6           0       -1.374586    0.369656   -0.321158
     13          1           0       -0.606445    1.113864   -0.353001
     14          1           0       -2.387106    0.636086   -0.541880
 ---------------------------------------------------------------------
 Rotational constants (GHZ):           5.3262161           4.9459080           2.8395715
 Leave Link  202 at Tue Oct 15 00:45:34 2019, MaxMem=   280000000 cpu:               0.3 elap:               0.0
 (Enter /home/soft/g16/l301.exe)
 Standard basis: 6-31+G(d) (6D, 7F)
 Ernie: Thresh=  0.10000D-02 Tol=  0.10000D-05 Strict=F.
 There are   130 symmetry adapted cartesian basis functions of A   symmetry.
 There are   130 symmetry adapted basis functions of A   symmetry.
   130 basis functions,   224 primitive gaussians,   130 cartesian basis functions
    23 alpha electrons       23 beta electrons
       nuclear repulsion energy       249.4254454307 Hartrees.
 IExCor=  402 DFT=T Ex+Corr=B3LYP ExCW=0 ScaHFX=  0.200000
 ScaDFX=  0.800000  0.720000  1.000000  0.810000 ScalE2=  1.000000  1.000000
 IRadAn=      5 IRanWt=     -1 IRanGd=            0 ICorTp=0 IEmpDi=  4
 NAtoms=   14 NActive=   14 NUniq=   14 SFac= 1.00D+00 NAtFMM=   60 NAOKFM=F Big=F
 Integral buffers will be    131072 words long.
 Raffenetti 2 integral format.
 Two-electron integral symmetry is turned on.
 Leave Link  301 at Tue Oct 15 00:45:34 2019, MaxMem=   280000000 cpu:               1.9 elap:               0.1
 (Enter /home/soft/g16/l302.exe)
 NPDir=0 NMtPBC=     1 NCelOv=     1 NCel=       1 NClECP=     1 NCelD=      1
         NCelK=      1 NCelE2=     1 NClLst=     1 CellRange=     0.0.
 One-electron integrals computed using PRISM.
 One-electron integral symmetry used in STVInt
 NBasis=   130 RedAO= T EigKep=  5.04D-05  NBF=   130
 NBsUse=   130 1.00D-06 EigRej= -1.00D+00 NBFU=   130
 Precomputing XC quadrature grid using
 IXCGrd= 4 IRadAn=           5 IRanWt=          -1 IRanGd=           0 AccXCQ= 0.00D+00.
 Generated NRdTot=       0 NPtTot=           0 NUsed=           0 NTot=          32
 NSgBfM=   130   130   130   130   130 MxSgAt=    14 MxSgA2=    14.
 Leave Link  302 at Tue Oct 15 00:45:34 2019, MaxMem=   280000000 cpu:               5.1 elap:               0.3
 (Enter /home/soft/g16/l303.exe)
 DipDrv:  MaxL=1.
 Leave Link  303 at Tue Oct 15 00:45:34 2019, MaxMem=   280000000 cpu:               1.5 elap:               0.1
 (Enter /home/soft/g16/l401.exe)
 ExpMin= 4.38D-02 ExpMax= 5.48D+03 ExpMxC= 8.25D+02 IAcc=3 IRadAn=         5 AccDes= 0.00D+00
 Harris functional with IExCor=  402 and IRadAn=       5 diagonalized for initial guess.
 HarFok:  IExCor=  402 AccDes= 0.00D+00 IRadAn=         5 IDoV= 1 UseB2=F ITyADJ=14
 ICtDFT=  3500011 ScaDFX=  1.000000  1.000000  1.000000  1.000000
 FoFCou: FMM=F IPFlag=           0 FMFlag=      100000 FMFlg1=           0
         NFxFlg=           0 DoJE=T BraDBF=F KetDBF=T FulRan=T
         wScrn=  0.000000 ICntrl=       500 IOpCl=  0 I1Cent=   200000004 NGrid=           0
         NMat0=    1 NMatS0=      1 NMatT0=    0 NMatD0=    1 NMtDS0=    0 NMtDT0=    0
 Petite list used in FoFCou.
 Harris En= -269.934478187485    
 JPrj=0 DoOrth=F DoCkMO=F.
 Leave Link  401 at Tue Oct 15 00:45:35 2019, MaxMem=   280000000 cpu:               8.9 elap:               0.5
 (Enter /home/soft/g16/l502.exe)
 Integral symmetry usage will be decided dynamically.
 Closed shell SCF:
 Using DIIS extrapolation, IDIIS=  1040.
 NGot=   280000000 LenX=   279961490 LenY=   279944149
 Requested convergence on RMS density matrix=1.00D-08 within 128 cycles.
 Requested convergence on MAX density matrix=1.00D-06.
 Requested convergence on             energy=1.00D-06.
 No special actions if energy rises.
 Fock matrices will be formed incrementally for  20 cycles.

 Cycle   1  Pass 1  IDiag  1:
 FoFJK:  IHMeth= 1 ICntrl=       0 DoSepK=F KAlg= 0 I1Cent=           0 FoldK=F
 IRaf= 990000000 NMat=       1 IRICut=       1 DoRegI=T DoRafI=F ISym2E= 0 IDoP0=0 IntGTp=1.
 FoFCou: FMM=F IPFlag=           0 FMFlag=      100000 FMFlg1=           0
         NFxFlg=           0 DoJE=F BraDBF=F KetDBF=F FulRan=T
         wScrn=  0.000000 ICntrl=         0 IOpCl=  0 I1Cent=           0 NGrid=           0
         NMat0=    1 NMatS0=      1 NMatT0=    0 NMatD0=    1 NMtDS0=    0 NMtDT0=    0
 Symmetry not used in FoFCou.
 E= -269.579471671101    
 DIIS: error= 2.66D-02 at cycle   1 NSaved=   1.
 NSaved= 1 IEnMin= 1 EnMin= -269.579471671101     IErMin= 1 ErrMin= 2.66D-02
 ErrMax= 2.66D-02  0.00D+00 EMaxC= 1.00D-01 BMatC= 2.54D-01 BMatP= 2.54D-01
 IDIUse=3 WtCom= 7.34D-01 WtEn= 2.66D-01
 Coeff-Com:  0.100D+01
 Coeff-En:   0.100D+01
 Coeff:      0.100D+01
 Gap=     0.126 Goal=   None    Shift=    0.000
 GapD=    0.126 DampG=1.000 DampE=0.500 DampFc=0.5000 IDamp=-1.
 Damping current iteration by 5.00D-01
 RMSDP=1.15D-01 MaxDP=7.91D+00              OVMax= 5.73D-01

 Cycle   2  Pass 1  IDiag  1:
 RMSU=  5.72D-02    CP:  1.24D+00
 E= -269.644278900082     Delta-E=       -0.064807228982 Rises=F Damp=T
 DIIS: error= 1.25D-02 at cycle   2 NSaved=   2.
 NSaved= 2 IEnMin= 2 EnMin= -269.644278900082     IErMin= 2 ErrMin= 1.25D-02
 ErrMax= 1.25D-02  0.00D+00 EMaxC= 1.00D-01 BMatC= 4.63D-02 BMatP= 2.54D-01
 IDIUse=3 WtCom= 8.75D-01 WtEn= 1.25D-01
 Coeff-Com:  0.239D+00 0.761D+00
 Coeff-En:   0.390D+00 0.610D+00
 Coeff:      0.258D+00 0.742D+00
 Gap=     0.126 Goal=   None    Shift=    0.000
 RMSDP=4.55D-02 MaxDP=2.89D+00 DE=-6.48D-02 OVMax= 5.41D-01

 Cycle   3  Pass 1  IDiag  1:
 RMSU=  1.36D-02    CP:  1.07D+00  2.47D-01
 E= -269.807261850332     Delta-E=       -0.162982950250 Rises=F Damp=F
 DIIS: error= 1.63D-02 at cycle   3 NSaved=   3.
 NSaved= 3 IEnMin= 3 EnMin= -269.807261850332     IErMin= 2 ErrMin= 1.25D-02
 ErrMax= 1.63D-02  0.00D+00 EMaxC= 1.00D-01 BMatC= 4.59D-02 BMatP= 4.63D-02
 IDIUse=3 WtCom= 8.37D-01 WtEn= 1.63D-01
 Coeff-Com:  0.980D-01 0.491D+00 0.411D+00
 Coeff-En:   0.000D+00 0.000D+00 0.100D+01
 Coeff:      0.821D-01 0.411D+00 0.507D+00
 Gap=     0.068 Goal=   None    Shift=    0.000
 RMSDP=1.15D-02 MaxDP=1.96D-01 DE=-1.63D-01 OVMax= 4.39D-01

 Cycle   4  Pass 1  IDiag  1:
 RMSU=  9.76D-03    CP:  1.02D+00  2.33D-01  5.68D-01
 E= -269.777881332611     Delta-E=        0.029380517722 Rises=F Damp=F
 DIIS: error= 1.92D-02 at cycle   4 NSaved=   4.
 NSaved= 4 IEnMin= 3 EnMin= -269.807261850332     IErMin= 2 ErrMin= 1.25D-02
 ErrMax= 1.92D-02  0.00D+00 EMaxC= 1.00D-01 BMatC= 7.00D-02 BMatP= 4.59D-02
 IDIUse=2 WtCom= 0.00D+00 WtEn= 1.00D+00
 Coeff-En:   0.000D+00 0.000D+00 0.567D+00 0.433D+00
 Coeff:      0.000D+00 0.000D+00 0.567D+00 0.433D+00
 Gap=     0.073 Goal=   None    Shift=    0.000
 RMSDP=6.70D-03 MaxDP=1.66D-01 DE= 2.94D-02 OVMax= 2.63D-01

 Cycle   5  Pass 1  IDiag  1:
 RMSU=  4.13D-03    CP:  1.01D+00  1.97D-01  7.24D-01  5.54D-01
 E= -269.857909806091     Delta-E=       -0.080028473480 Rises=F Damp=F
 DIIS: error= 5.46D-03 at cycle   5 NSaved=   5.
 NSaved= 5 IEnMin= 5 EnMin= -269.857909806091     IErMin= 5 ErrMin= 5.46D-03
 ErrMax= 5.46D-03  0.00D+00 EMaxC= 1.00D-01 BMatC= 6.57D-03 BMatP= 4.59D-02
 IDIUse=3 WtCom= 9.45D-01 WtEn= 5.46D-02
 Coeff-Com:  0.239D-01 0.558D-02 0.348D+00 0.268D+00 0.354D+00
 Coeff-En:   0.000D+00 0.000D+00 0.356D-01 0.000D+00 0.964D+00
 Coeff:      0.226D-01 0.527D-02 0.331D+00 0.254D+00 0.388D+00
 Gap=     0.075 Goal=   None    Shift=    0.000
 RMSDP=4.19D-03 MaxDP=2.34D-01 DE=-8.00D-02 OVMax= 5.28D-02

 Cycle   6  Pass 1  IDiag  1:
 RMSU=  1.54D-03    CP:  1.04D+00  2.38D-01  8.72D-01  5.94D-01  5.04D-01
 E= -269.864390676965     Delta-E=       -0.006480870875 Rises=F Damp=F
 DIIS: error= 1.08D-03 at cycle   6 NSaved=   6.
 NSaved= 6 IEnMin= 6 EnMin= -269.864390676965     IErMin= 6 ErrMin= 1.08D-03
 ErrMax= 1.08D-03  0.00D+00 EMaxC= 1.00D-01 BMatC= 4.11D-04 BMatP= 6.57D-03
 IDIUse=3 WtCom= 9.89D-01 WtEn= 1.08D-02
 Coeff-Com:  0.791D-02-0.363D-01 0.668D-01 0.434D-01 0.231D+00 0.688D+00
 Coeff-En:   0.000D+00 0.000D+00 0.000D+00 0.000D+00 0.148D-01 0.985D+00
 Coeff:      0.783D-02-0.359D-01 0.661D-01 0.430D-01 0.228D+00 0.691D+00
 Gap=     0.078 Goal=   None    Shift=    0.000
 RMSDP=2.22D-03 MaxDP=1.31D-01 DE=-6.48D-03 OVMax= 2.20D-02

 Cycle   7  Pass 1  IDiag  1:
 RMSU=  7.51D-04    CP:  1.03D+00  2.07D-01  8.45D-01  6.11D-01  7.25D-01
                    CP:  9.13D-01
 E= -269.864856505290     Delta-E=       -0.000465828325 Rises=F Damp=F
 DIIS: error= 2.65D-04 at cycle   7 NSaved=   7.
 NSaved= 7 IEnMin= 7 EnMin= -269.864856505290     IErMin= 7 ErrMin= 2.65D-04
 ErrMax= 2.65D-04  0.00D+00 EMaxC= 1.00D-01 BMatC= 3.39D-05 BMatP= 4.11D-04
 IDIUse=3 WtCom= 9.97D-01 WtEn= 2.65D-03
 Coeff-Com:  0.387D-02-0.151D-01 0.115D-01 0.362D-02 0.583D-01 0.305D+00
 Coeff-Com:  0.633D+00
 Coeff-En:   0.000D+00 0.000D+00 0.000D+00 0.000D+00 0.000D+00 0.000D+00
 Coeff-En:   0.100D+01
 Coeff:      0.385D-02-0.150D-01 0.114D-01 0.361D-02 0.581D-01 0.304D+00
 Coeff:      0.634D+00
 Gap=     0.078 Goal=   None    Shift=    0.000
 RMSDP=2.66D-04 MaxDP=1.05D-02 DE=-4.66D-04 OVMax= 2.68D-03

 Cycle   8  Pass 1  IDiag  1:
 RMSU=  9.66D-05    CP:  1.02D+00  2.05D-01  8.49D-01  6.19D-01  7.56D-01
                    CP:  9.77D-01  1.14D+00
 E= -269.864885096718     Delta-E=       -0.000028591428 Rises=F Damp=F
 DIIS: error= 1.23D-04 at cycle   8 NSaved=   8.
 NSaved= 8 IEnMin= 8 EnMin= -269.864885096718     IErMin= 8 ErrMin= 1.23D-04
 ErrMax= 1.23D-04  0.00D+00 EMaxC= 1.00D-01 BMatC= 6.46D-06 BMatP= 3.39D-05
 IDIUse=3 WtCom= 9.99D-01 WtEn= 1.23D-03
 Coeff-Com:  0.165D-02-0.303D-02-0.308D-02-0.412D-02-0.115D-01 0.632D-01
 Coeff-Com:  0.339D+00 0.618D+00
 Coeff-En:   0.000D+00 0.000D+00 0.000D+00 0.000D+00 0.000D+00 0.000D+00
 Coeff-En:   0.000D+00 0.100D+01
 Coeff:      0.165D-02-0.303D-02-0.307D-02-0.412D-02-0.115D-01 0.632D-01
 Coeff:      0.339D+00 0.618D+00
 Gap=     0.078 Goal=   None    Shift=    0.000
 RMSDP=1.28D-04 MaxDP=5.14D-03 DE=-2.86D-05 OVMax= 1.68D-03

 Cycle   9  Pass 1  IDiag  1:
 RMSU=  5.16D-05    CP:  1.02D+00  2.04D-01  8.49D-01  6.22D-01  7.70D-01
                    CP:  9.98D-01  1.20D+00  1.00D+00
 E= -269.864892154375     Delta-E=       -0.000007057657 Rises=F Damp=F
 DIIS: error= 5.69D-05 at cycle   9 NSaved=   9.
 NSaved= 9 IEnMin= 9 EnMin= -269.864892154375     IErMin= 9 ErrMin= 5.69D-05
 ErrMax= 5.69D-05  0.00D+00 EMaxC= 1.00D-01 BMatC= 8.76D-07 BMatP= 6.46D-06
 IDIUse=1 WtCom= 1.00D+00 WtEn= 0.00D+00
 Coeff-Com:  0.483D-03 0.950D-04-0.167D-02-0.969D-03-0.154D-01-0.535D-02
 Coeff-Com:  0.665D-01 0.246D+00 0.710D+00
 Coeff:      0.483D-03 0.950D-04-0.167D-02-0.969D-03-0.154D-01-0.535D-02
 Coeff:      0.665D-01 0.246D+00 0.710D+00
 Gap=     0.078 Goal=   None    Shift=    0.000
 RMSDP=1.14D-04 MaxDP=4.74D-03 DE=-7.06D-06 OVMax= 1.32D-03

 Cycle  10  Pass 1  IDiag  1:
 RMSU=  2.72D-05    CP:  1.02D+00  2.03D-01  8.48D-01  6.26D-01  7.85D-01
                    CP:  1.01D+00  1.27D+00  1.34D+00  1.01D+00
 E= -269.864893233821     Delta-E=       -0.000001079446 Rises=F Damp=F
 DIIS: error= 4.32D-05 at cycle  10 NSaved=  10.
 NSaved=10 IEnMin=10 EnMin= -269.864893233821     IErMin=10 ErrMin= 4.32D-05
 ErrMax= 4.32D-05  0.00D+00 EMaxC= 1.00D-01 BMatC= 3.75D-07 BMatP= 8.76D-07
 IDIUse=1 WtCom= 1.00D+00 WtEn= 0.00D+00
 Coeff-Com: -0.109D-03 0.320D-03-0.892D-03 0.520D-03-0.894D-02-0.203D-01
 Coeff-Com: -0.567D-01-0.293D-01 0.470D+00 0.646D+00
 Coeff:     -0.109D-03 0.320D-03-0.892D-03 0.520D-03-0.894D-02-0.203D-01
 Coeff:     -0.567D-01-0.293D-01 0.470D+00 0.646D+00
 Gap=     0.078 Goal=   None    Shift=    0.000
 RMSDP=6.20D-05 MaxDP=2.56D-03 DE=-1.08D-06 OVMax= 7.30D-04

 Cycle  11  Pass 1  IDiag  1:
 RMSU=  8.30D-06    CP:  1.02D+00  2.02D-01  8.49D-01  6.28D-01  7.93D-01
                    CP:  1.02D+00  1.30D+00  1.49D+00  1.08D+00  1.35D+00
 E= -269.864893736048     Delta-E=       -0.000000502228 Rises=F Damp=F
 DIIS: error= 1.09D-05 at cycle  11 NSaved=  11.
 NSaved=11 IEnMin=11 EnMin= -269.864893736048     IErMin=11 ErrMin= 1.09D-05
 ErrMax= 1.09D-05  0.00D+00 EMaxC= 1.00D-01 BMatC= 2.62D-08 BMatP= 3.75D-07
 IDIUse=1 WtCom= 1.00D+00 WtEn= 0.00D+00
 Coeff-Com: -0.780D-04 0.910D-04-0.262D-03 0.495D-03-0.198D-02-0.587D-02
 Coeff-Com: -0.254D-01-0.387D-01 0.682D-01 0.166D+00 0.837D+00
 Coeff:     -0.780D-04 0.910D-04-0.262D-03 0.495D-03-0.198D-02-0.587D-02
 Coeff:     -0.254D-01-0.387D-01 0.682D-01 0.166D+00 0.837D+00
 Gap=     0.078 Goal=   None    Shift=    0.000
 RMSDP=1.76D-05 MaxDP=7.64D-04 DE=-5.02D-07 OVMax= 2.52D-04

 Cycle  12  Pass 1  IDiag  1:
 RMSU=  3.23D-06    CP:  1.02D+00  2.02D-01  8.48D-01  6.28D-01  7.95D-01
                    CP:  1.02D+00  1.31D+00  1.51D+00  1.21D+00  1.33D+00
                    CP:  9.22D-01
 E= -269.864893778371     Delta-E=       -0.000000042323 Rises=F Damp=F
 DIIS: error= 3.07D-06 at cycle  12 NSaved=  12.
 NSaved=12 IEnMin=12 EnMin= -269.864893778371     IErMin=12 ErrMin= 3.07D-06
 ErrMax= 3.07D-06  0.00D+00 EMaxC= 1.00D-01 BMatC= 2.75D-09 BMatP= 2.62D-08
 IDIUse=1 WtCom= 1.00D+00 WtEn= 0.00D+00
 Coeff-Com: -0.121D-04 0.463D-05-0.787D-04 0.160D-03 0.461D-04 0.306D-03
 Coeff-Com: -0.610D-03-0.513D-02-0.231D-01-0.167D-01 0.232D+00 0.813D+00
 Coeff:     -0.121D-04 0.463D-05-0.787D-04 0.160D-03 0.461D-04 0.306D-03
 Coeff:     -0.610D-03-0.513D-02-0.231D-01-0.167D-01 0.232D+00 0.813D+00
 Gap=     0.078 Goal=   None    Shift=    0.000
 RMSDP=5.90D-06 MaxDP=2.19D-04 DE=-4.23D-08 OVMax= 5.47D-05

 Cycle  13  Pass 1  IDiag  1:
 RMSU=  6.99D-07    CP:  1.02D+00  2.02D-01  8.48D-01  6.28D-01  7.96D-01
                    CP:  1.02D+00  1.31D+00  1.53D+00  1.18D+00  1.42D+00
                    CP:  1.06D+00  8.38D-01
 E= -269.864893781859     Delta-E=       -0.000000003487 Rises=F Damp=F
 DIIS: error= 1.16D-06 at cycle  13 NSaved=  13.
 NSaved=13 IEnMin=13 EnMin= -269.864893781859     IErMin=13 ErrMin= 1.16D-06
 ErrMax= 1.16D-06  0.00D+00 EMaxC= 1.00D-01 BMatC= 2.28D-10 BMatP= 2.75D-09
 IDIUse=1 WtCom= 1.00D+00 WtEn= 0.00D+00
 Coeff-Com: -0.260D-05 0.253D-05-0.279D-04 0.264D-04 0.111D-03 0.432D-03
 Coeff-Com:  0.146D-02 0.950D-03-0.107D-01-0.159D-01 0.510D-02 0.175D+00
 Coeff-Com:  0.843D+00
 Coeff:     -0.260D-05 0.253D-05-0.279D-04 0.264D-04 0.111D-03 0.432D-03
 Coeff:      0.146D-02 0.950D-03-0.107D-01-0.159D-01 0.510D-02 0.175D+00
 Coeff:      0.843D+00
 Gap=     0.078 Goal=   None    Shift=    0.000
 RMSDP=8.81D-07 MaxDP=2.91D-05 DE=-3.49D-09 OVMax= 1.47D-05

 Cycle  14  Pass 1  IDiag  1:
 RMSU=  1.55D-07    CP:  1.02D+00  2.02D-01  8.48D-01  6.28D-01  7.96D-01
                    CP:  1.02D+00  1.31D+00  1.54D+00  1.18D+00  1.43D+00
                    CP:  1.07D+00  9.11D-01  1.00D+00
 E= -269.864893782126     Delta-E=       -0.000000000268 Rises=F Damp=F
 DIIS: error= 2.68D-07 at cycle  14 NSaved=  14.
 NSaved=14 IEnMin=14 EnMin= -269.864893782126     IErMin=14 ErrMin= 2.68D-07
 ErrMax= 2.68D-07  0.00D+00 EMaxC= 1.00D-01 BMatC= 1.63D-11 BMatP= 2.28D-10
 IDIUse=1 WtCom= 1.00D+00 WtEn= 0.00D+00
 Coeff-Com: -0.715D-06 0.178D-05-0.582D-05 0.226D-06 0.211D-05 0.726D-04
 Coeff-Com:  0.292D-03 0.440D-03-0.155D-03-0.170D-02-0.120D-01-0.243D-01
 Coeff-Com:  0.109D+00 0.928D+00
 Coeff:     -0.715D-06 0.178D-05-0.582D-05 0.226D-06 0.211D-05 0.726D-04
 Coeff:      0.292D-03 0.440D-03-0.155D-03-0.170D-02-0.120D-01-0.243D-01
 Coeff:      0.109D+00 0.928D+00
 Gap=     0.078 Goal=   None    Shift=    0.000
 RMSDP=2.27D-07 MaxDP=6.56D-06 DE=-2.68D-10 OVMax= 2.65D-06

 Cycle  15  Pass 1  IDiag  1:
 RMSU=  3.51D-08    CP:  1.02D+00  2.02D-01  8.48D-01  6.28D-01  7.96D-01
                    CP:  1.02D+00  1.31D+00  1.54D+00  1.18D+00  1.43D+00
                    CP:  1.08D+00  9.10D-01  1.07D+00  1.09D+00
 E= -269.864893782138     Delta-E=       -0.000000000011 Rises=F Damp=F
 DIIS: error= 5.19D-08 at cycle  15 NSaved=  15.
 NSaved=15 IEnMin=15 EnMin= -269.864893782138     IErMin=15 ErrMin= 5.19D-08
 ErrMax= 5.19D-08  0.00D+00 EMaxC= 1.00D-01 BMatC= 4.26D-13 BMatP= 1.63D-11
 IDIUse=1 WtCom= 1.00D+00 WtEn= 0.00D+00
 Coeff-Com: -0.120D-06 0.185D-06-0.129D-05-0.732D-07-0.578D-05 0.109D-05
 Coeff-Com:  0.349D-05 0.347D-04 0.356D-03 0.945D-04-0.183D-02-0.863D-02
 Coeff-Com: -0.133D-01 0.135D+00 0.889D+00
 Coeff:     -0.120D-06 0.185D-06-0.129D-05-0.732D-07-0.578D-05 0.109D-05
 Coeff:      0.349D-05 0.347D-04 0.356D-03 0.945D-04-0.183D-02-0.863D-02
 Coeff:     -0.133D-01 0.135D+00 0.889D+00
 Gap=     0.078 Goal=   None    Shift=    0.000
 RMSDP=4.03D-08 MaxDP=1.32D-06 DE=-1.14D-11 OVMax= 3.52D-07

 Cycle  16  Pass 1  IDiag  1:
 RMSU=  7.01D-09    CP:  1.02D+00  2.02D-01  8.48D-01  6.28D-01  7.96D-01
                    CP:  1.02D+00  1.31D+00  1.54D+00  1.18D+00  1.43D+00
                    CP:  1.08D+00  9.11D-01  1.08D+00  1.14D+00  1.24D+00
 E= -269.864893782142     Delta-E=       -0.000000000004 Rises=F Damp=F
 DIIS: error= 1.31D-08 at cycle  16 NSaved=  16.
 NSaved=16 IEnMin=16 EnMin= -269.864893782142     IErMin=16 ErrMin= 1.31D-08
 ErrMax= 1.31D-08  0.00D+00 EMaxC= 1.00D-01 BMatC= 3.71D-14 BMatP= 4.26D-13
 IDIUse=1 WtCom= 1.00D+00 WtEn= 0.00D+00
 Coeff-Com:  0.893D-08-0.348D-07-0.308D-06 0.611D-07-0.260D-05-0.396D-05
 Coeff-Com: -0.138D-04-0.110D-04 0.136D-03 0.133D-03 0.970D-05-0.122D-02
 Coeff-Com: -0.114D-01-0.199D-01 0.265D+00 0.768D+00
 Coeff:      0.893D-08-0.348D-07-0.308D-06 0.611D-07-0.260D-05-0.396D-05
 Coeff:     -0.138D-04-0.110D-04 0.136D-03 0.133D-03 0.970D-05-0.122D-02
 Coeff:     -0.114D-01-0.199D-01 0.265D+00 0.768D+00
 Gap=     0.078 Goal=   None    Shift=    0.000
 RMSDP=9.76D-09 MaxDP=2.96D-07 DE=-4.32D-12 OVMax= 1.21D-07

 SCF Done:  E(RB3LYP) =  -269.864893782     A.U. after   16 cycles
            NFock= 16  Conv=0.98D-08     -V/T= 2.0007
 KE= 2.696737922968D+02 PE=-1.126551329093D+03 EE= 3.375871975830D+02
 Leave Link  502 at Tue Oct 15 00:45:40 2019, MaxMem=   280000000 cpu:             115.2 elap:               4.9
 (Enter /home/soft/g16/l601.exe)
 Copying SCF densities to generalized density rwf, IOpCl= 0 IROHF=0.

 **********************************************************************

            Population analysis using the SCF density.

 **********************************************************************

 Orbital symmetries:
       Occupied  (A) (A) (A) (A) (A) (A) (A) (A) (A) (A) (A) (A)
                 (A) (A) (A) (A) (A) (A) (A) (A) (A) (A) (A)
       Virtual   (A) (A) (A) (A) (A) (A) (A) (A) (A) (A) (A) (A)
                 (A) (A) (A) (A) (A) (A) (A) (A) (A) (A) (A) (A)
                 (A) (A) (A) (A) (A) (A) (A) (A) (A) (A) (A) (A)
                 (A) (A) (A) (A) (A) (A) (A) (A) (A) (A) (A) (A)
                 (A) (A) (A) (A) (A) (A) (A) (A) (A) (A) (A) (A)
                 (A) (A) (A) (A) (A) (A) (A) (A) (A) (A) (A) (A)
                 (A) (A) (A) (A) (A) (A) (A) (A) (A) (A) (A) (A)
                 (A) (A) (A) (A) (A) (A) (A) (A) (A) (A) (A) (A)
                 (A) (A) (A) (A) (A) (A) (A) (A) (A) (A) (A)
 The electronic state is 1-A.
 Alpha  occ. eigenvalues --  -19.17339 -10.24602 -10.24321 -10.23453 -10.22418
 Alpha  occ. eigenvalues --  -10.17352  -1.10977  -1.03193  -0.79237  -0.69826
 Alpha  occ. eigenvalues --   -0.67982  -0.57826  -0.53824  -0.53289  -0.50982
 Alpha  occ. eigenvalues --   -0.47341  -0.43121  -0.42013  -0.40322  -0.34986
 Alpha  occ. eigenvalues --   -0.31128  -0.25340  -0.11653
 Alpha virt. eigenvalues --   -0.03881  -0.02079  -0.00051   0.02088   0.02700
 Alpha virt. eigenvalues --    0.03457   0.04153   0.06162   0.06496   0.07033
 Alpha virt. eigenvalues --    0.07639   0.09111   0.10244   0.10944   0.12009
 Alpha virt. eigenvalues --    0.12832   0.13402   0.14582   0.15959   0.16661
 Alpha virt. eigenvalues --    0.17220   0.18300   0.19406   0.20645   0.21646
 Alpha virt. eigenvalues --    0.24538   0.25630   0.26748   0.27552   0.29253
 Alpha virt. eigenvalues --    0.31423   0.32407   0.33823   0.35051   0.35869
 Alpha virt. eigenvalues --    0.37581   0.39093   0.42341   0.46049   0.57354
 Alpha virt. eigenvalues --    0.58653   0.62045   0.62354   0.66351   0.67386
 Alpha virt. eigenvalues --    0.71483   0.72199   0.74198   0.77352   0.81462
 Alpha virt. eigenvalues --    0.83842   0.86996   0.92470   0.93560   0.94204
 Alpha virt. eigenvalues --    0.98747   1.00911   1.05626   1.08361   1.10195
 Alpha virt. eigenvalues --    1.10756   1.14592   1.16336   1.21280   1.24701
 Alpha virt. eigenvalues --    1.29027   1.32285   1.37951   1.44091   1.45329
 Alpha virt. eigenvalues --    1.50159   1.52280   1.56746   1.65002   1.68415
 Alpha virt. eigenvalues --    1.74655   1.81179   1.84801   1.87418   1.93090
 Alpha virt. eigenvalues --    1.98671   2.01104   2.07498   2.10651   2.16662
 Alpha virt. eigenvalues --    2.20375   2.24140   2.30732   2.37458   2.38117
 Alpha virt. eigenvalues --    2.43163   2.46622   2.53738   2.60076   2.72147
 Alpha virt. eigenvalues --    2.76736   2.80520   2.85825   2.94507   3.03824
 Alpha virt. eigenvalues --    3.15962   4.21571   4.29963   4.31653   4.37726
 Alpha virt. eigenvalues --    4.46176   4.52583
          Condensed to atoms (all electrons):
               1          2          3          4          5          6
     1  C    9.993673   0.671407   0.228616  -0.569815  -0.096320  -0.298126
     2  H    0.671407   0.757476  -0.024779  -0.063383   0.001080  -0.024011
     3  H    0.228616  -0.024779   0.448538  -0.007774  -0.003221   0.005750
     4  C   -0.569815  -0.063383  -0.007774   6.027380   0.417312   0.255255
     5  H   -0.096320   0.001080  -0.003221   0.417312   0.493452  -0.035952
     6  O   -0.298126  -0.024011   0.005750   0.255255  -0.035952   8.299932
     7  C   -0.010002   0.008651   0.001255  -0.177902   0.011400   0.091773
     8  H   -0.053013  -0.001063   0.000030   0.032453  -0.000136  -0.039848
     9  H    0.043529   0.004667  -0.000109  -0.027531   0.000704  -0.042420
    10  C   -1.327685  -0.340991   0.029192   0.250510  -0.002487  -0.037590
    11  H   -0.024190  -0.001916  -0.000109   0.007551   0.000019   0.005855
    12  C   -1.757122   0.017753   0.057936   0.086319   0.009730   0.089510
    13  H   -0.524535  -0.330666   0.006636  -0.060904   0.000134   0.034351
    14  H    0.159878   0.007161  -0.003726  -0.012991  -0.000097  -0.002402
               7          8          9         10         11         12
     1  C   -0.010002  -0.053013   0.043529  -1.327685  -0.024190  -1.757122
     2  H    0.008651  -0.001063   0.004667  -0.340991  -0.001916   0.017753
     3  H    0.001255   0.000030  -0.000109   0.029192  -0.000109   0.057936
     4  C   -0.177902   0.032453  -0.027531   0.250510   0.007551   0.086319
     5  H    0.011400  -0.000136   0.000704  -0.002487   0.000019   0.009730
     6  O    0.091773  -0.039848  -0.042420  -0.037590   0.005855   0.089510
     7  C    5.712497   0.461014   0.432051  -0.047032   0.004641   0.019358
     8  H    0.461014   0.519821  -0.040396  -0.110495  -0.002536   0.032536
     9  H    0.432051  -0.040396   0.539467  -0.076790   0.003751  -0.054063
    10  C   -0.047032  -0.110495  -0.076790   6.772451   0.367733   0.478905
    11  H    0.004641  -0.002536   0.003751   0.367733   0.490714  -0.043809
    12  C    0.019358   0.032536  -0.054063   0.478905  -0.043809   6.721673
    13  H   -0.024496   0.000844  -0.000398   0.224037   0.002869   0.560984
    14  H   -0.019203  -0.000167   0.000010  -0.100815  -0.006765   0.299140
              13         14
     1  C   -0.524535   0.159878
     2  H   -0.330666   0.007161
     3  H    0.006636  -0.003726
     4  C   -0.060904  -0.012991
     5  H    0.000134  -0.000097
     6  O    0.034351  -0.002402
     7  C   -0.024496  -0.019203
     8  H    0.000844  -0.000167
     9  H   -0.000398   0.000010
    10  C    0.224037  -0.100815
    11  H    0.002869  -0.006765
    12  C    0.560984   0.299140
    13  H    0.843790  -0.043681
    14  H   -0.043681   0.477487
 Mulliken charges:
               1
     1  C   -0.436294
     2  H    0.318615
     3  H    0.261765
     4  C   -0.156479
     5  H    0.204382
     6  O   -0.302076
     7  C   -0.464003
     8  H    0.200956
     9  H    0.217528
    10  C   -0.078943
    11  H    0.196193
    12  C   -0.518850
    13  H    0.311036
    14  H    0.246171
 Sum of Mulliken charges =  -0.00000
 Mulliken charges with hydrogens summed into heavy atoms:
               1
     1  C    0.136506
     4  C    0.047903
     6  O   -0.302076
     7  C   -0.045519
    10  C    0.117250
    12  C    0.045936
 Electronic spatial extent (au):  <R**2>=            484.9682
 Charge=              0.0000 electrons
 Dipole moment (field-independent basis, Debye):
    X=             -2.2109    Y=              1.9196    Z=              1.0345  Tot=              3.1053
 Quadrupole moment (field-independent basis, Debye-Ang):
   XX=            -38.1322   YY=            -32.8736   ZZ=            -42.3338
   XY=             -1.6264   XZ=              1.3099   YZ=             -0.8161
 Traceless Quadrupole moment (field-independent basis, Debye-Ang):
   XX=             -0.3523   YY=              4.9063   ZZ=             -4.5540
   XY=             -1.6264   XZ=              1.3099   YZ=             -0.8161
 Octapole moment (field-independent basis, Debye-Ang**2):
  XXX=             -5.8101  YYY=              3.7270  ZZZ=             -0.5446  XYY=              1.7754
  XXY=              5.6720  XXZ=             -1.6951  XZZ=              1.9029  YZZ=             -0.2000
  YYZ=              1.3324  XYZ=             -1.1238
 Hexadecapole moment (field-independent basis, Debye-Ang**3):
 XXXX=           -290.6656 YYYY=           -270.6265 ZZZZ=            -88.7579 XXXY=             -3.8703
 XXXZ=              3.9882 YYYX=            -11.1233 YYYZ=              6.0928 ZZZX=             -2.3612
 ZZZY=             -2.9017 XXYY=            -95.5081 XXZZ=            -73.1231 YYZZ=            -70.7925
 XXYZ=             -3.9187 YYXZ=             -2.5828 ZZXY=             -9.1679
 N-N= 2.494254454307D+02 E-N=-1.126551329576D+03  KE= 2.696737922968D+02
 No NMR shielding tensors so no spin-rotation constants.
 Leave Link  601 at Tue Oct 15 00:45:40 2019, MaxMem=   280000000 cpu:               3.4 elap:               0.2
 (Enter /home/soft/g16/l701.exe)
 ... and contract with generalized density number  0.
 Compute integral first derivatives.
 Leave Link  701 at Tue Oct 15 00:45:40 2019, MaxMem=   280000000 cpu:               2.8 elap:               0.3
 (Enter /home/soft/g16/l702.exe)
 L702 exits ... SP integral derivatives will be done elsewhere.
 Leave Link  702 at Tue Oct 15 00:45:41 2019, MaxMem=   280000000 cpu:               0.4 elap:               0.0
 (Enter /home/soft/g16/l703.exe)
 Integral derivatives from FoFJK, PRISM(SPDF).
 Compute integral first derivatives, UseDBF=F ICtDFT=           0.
 Calling FoFJK, ICntrl=      2127 FMM=F ISym2X=0 I1Cent= 0 IOpClX= 0 NMat=1 NMatS=1 NMatT=0.
 FoFJK:  IHMeth= 1 ICntrl=    2127 DoSepK=F KAlg= 0 I1Cent=           0 FoldK=F
 IRaf=         0 NMat=       1 IRICut=       1 DoRegI=T DoRafI=F ISym2E= 0 IDoP0=0 IntGTp=1.
 FoFCou: FMM=F IPFlag=           0 FMFlag=      100000 FMFlg1=         800
         NFxFlg=           0 DoJE=F BraDBF=F KetDBF=F FulRan=T
         wScrn=  0.000000 ICntrl=      2127 IOpCl=  0 I1Cent=           0 NGrid=           0
         NMat0=    1 NMatS0=      1 NMatT0=    0 NMatD0=    1 NMtDS0=    0 NMtDT0=    0
 Symmetry not used in FoFCou.
 Leave Link  703 at Tue Oct 15 00:45:42 2019, MaxMem=   280000000 cpu:              19.8 elap:               0.9
 (Enter /home/soft/g16/l716.exe)
 Dipole        =-8.69821282D-01 7.55229521D-01 4.07020459D-01
 ***** Axes restored to original set *****
 -------------------------------------------------------------------
 Center     Atomic                   Forces (Hartrees/Bohr)
 Number     Number              X              Y              Z
 -------------------------------------------------------------------
      1        6          -0.156519436    0.300141248    0.289421756
      2        1          -0.068086719    0.124483934    0.489974025
      3        1          -0.008610616   -0.012018819    0.003648136
      4        6           0.057418292    0.051151324   -0.000176708
      5        1           0.003645246    0.010242188   -0.002089835
      6        8          -0.046055823    0.023677711    0.004326601
      7        6          -0.015429661   -0.050628350   -0.013249308
      8        1           0.017880406    0.001135199   -0.002017986
      9        1          -0.003043202    0.011460801    0.017511705
     10        6           0.100825943    0.012940753   -0.009853758
     11        1           0.004159121   -0.009970271   -0.000586169
     12        6           0.137851594   -0.310225924   -0.305272093
     13        1          -0.000295549   -0.149431496   -0.476825161
     14        1          -0.023739596   -0.002958299    0.005188795
 -------------------------------------------------------------------
 Cartesian Forces:  Max     0.489974025 RMS     0.149646026
 Leave Link  716 at Tue Oct 15 00:45:42 2019, MaxMem=   280000000 cpu:               0.6 elap:               0.1
 (Enter /home/soft/g16/l103.exe)

 GradGradGradGradGradGradGradGradGradGradGradGradGradGradGradGradGradGrad
 Berny optimization.
 FormGI is forming the generalized inverse of G from B-inverse, IUseBI=4.
 Internal  Forces:  Max     0.357716769 RMS     0.070506256
 Search for a local minimum.
 Step number   1 out of a maximum of   86
 All quantities printed in internal units (Hartrees-Bohrs-Radians)
 RMS Force = .70506D-01 SwitMx=.10000D-02 MixMth= 1
 Mixed Optimization -- RFO/linear search
 Second derivative matrix not updated -- first step.
 ITU=  0
     Eigenvalues ---    0.01179   0.01683   0.02310   0.02326   0.02510
     Eigenvalues ---    0.03266   0.03480   0.06030   0.07544   0.10602
     Eigenvalues ---    0.11376   0.11604   0.12968   0.13604   0.14748
     Eigenvalues ---    0.14967   0.16000   0.16000   0.18246   0.19025
     Eigenvalues ---    0.19225   0.24785   0.27537   0.31221   0.37230
     Eigenvalues ---    0.37230   0.37230   0.37230   0.37230   0.37230
     Eigenvalues ---    0.38013   0.38946   0.50413   0.52227   0.60351
     Eigenvalues ---    0.73024
 RFO step:  Lambda=-3.85691025D-01 EMin= 1.17893791D-02
 Linear search not attempted -- first point.
 Maximum step size (   0.300) exceeded in Quadratic search.
    -- Step size scaled by   0.504
 Iteration  1 RMS(Cart)=  0.03155272 RMS(Int)=  0.00108558
 Iteration  2 RMS(Cart)=  0.00068761 RMS(Int)=  0.00065901
 Iteration  3 RMS(Cart)=  0.00000110 RMS(Int)=  0.00065901
 Iteration  4 RMS(Cart)=  0.00000000 RMS(Int)=  0.00065901
 ITry= 1 IFail=0 DXMaxC= 1.44D-01 DCOld= 1.00D+10 DXMaxT= 3.00D-01 DXLimC= 3.00D+00 Rises=F
 Variable       Old X    -DE/DX   Delta X   Delta X   Delta X     New X
                                 (Linear)    (Quad)   (Total)
    R1        2.02201   0.02911   0.00000   0.04821   0.05033   2.07233
    R2        2.02201   0.00845   0.00000   0.00562   0.00562   2.02763
    R3        2.56096   0.06113   0.00000   0.03338   0.03357   2.59453
    R4        3.14720   0.22737   0.00000   0.10557   0.10219   3.24939
    R5        1.60599   0.34614   0.00000   0.16032   0.16136   1.76735
    R6        1.59539   0.35772   0.00000   0.16422   0.16555   1.76093
    R7        2.02201   0.00736   0.00000   0.00489   0.00489   2.02690
    R8        2.70231  -0.01881   0.00000  -0.01529  -0.01542   2.68689
    R9        2.70231   0.02681   0.00000   0.01688   0.01665   2.71896
   R10        2.02201   0.01789   0.00000   0.01190   0.01190   2.03391
   R11        2.02201   0.02017   0.00000   0.01342   0.01342   2.03542
   R12        2.91018  -0.00637   0.00000  -0.00858  -0.00883   2.90135
   R13        2.02201   0.01044   0.00000   0.00695   0.00695   2.02895
   R14        2.56096   0.07819   0.00000   0.04284   0.04290   2.60386
   R15        2.02201   0.03253   0.00000   0.04907   0.05075   2.07275
   R16        2.02201   0.01157   0.00000   0.00770   0.00770   2.02970
    A1        2.09440  -0.03109   0.00000  -0.01982  -0.02095   2.07344
    A2        2.09440   0.01566   0.00000   0.01185   0.01171   2.10611
    A3        1.04118   0.10268   0.00000   0.08121   0.08018   1.12136
    A4        2.09440   0.01544   0.00000   0.00797   0.00756   2.10195
    A5        2.13231   0.01539   0.00000   0.00568   0.00593   2.13824
    A6        1.94231  -0.00963   0.00000  -0.00881  -0.00847   1.93384
    A7        1.94660  -0.03837   0.00000  -0.01233  -0.01238   1.93422
    A8        1.71346  -0.01744   0.00000  -0.01687  -0.01635   1.69710
    A9        2.09440   0.00644   0.00000   0.00866   0.00863   2.10302
   A10        2.09440   0.00363   0.00000  -0.00206  -0.00200   2.09240
   A11        2.09440  -0.01008   0.00000  -0.00661  -0.00664   2.08776
   A12        1.91063   0.03020   0.00000   0.02344   0.02311   1.93374
   A13        1.91063   0.00280   0.00000  -0.00013  -0.00012   1.91051
   A14        1.91063  -0.02163   0.00000  -0.01517  -0.01506   1.89557
   A15        1.91063   0.02276   0.00000   0.01722   0.01692   1.92755
   A16        1.91063   0.00003   0.00000  -0.00097  -0.00101   1.90962
   A17        1.91063  -0.01396   0.00000  -0.00389  -0.00364   1.90700
   A18        1.91063   0.00999   0.00000   0.00293   0.00284   1.91348
   A19        2.09440   0.00358   0.00000   0.00578   0.00584   2.10023
   A20        2.09440  -0.00235   0.00000  -0.00712  -0.00724   2.08716
   A21        2.09440  -0.00123   0.00000   0.00134   0.00139   2.09578
   A22        1.85072  -0.02741   0.00000  -0.00257  -0.00245   1.84827
   A23        2.24023   0.01506   0.00000   0.00167   0.00155   2.24177
   A24        1.53491  -0.00095   0.00000  -0.00084  -0.00042   1.53449
   A25        1.04338   0.10008   0.00000   0.08071   0.07950   1.12288
   A26        2.14025  -0.02354   0.00000  -0.02318  -0.02259   2.11766
   A27        2.09440   0.03470   0.00000   0.02188   0.02139   2.11579
   A28        2.09440   0.00825   0.00000   0.00344   0.00314   2.09754
   A29        2.09440  -0.04294   0.00000  -0.02532  -0.02618   2.06821
    D1       -3.14159   0.08166   0.00000   0.05665   0.05650  -3.08509
    D2        0.00000   0.08116   0.00000   0.06042   0.06038   0.06038
    D3        0.00000  -0.00783   0.00000  -0.00644  -0.00655  -0.00655
    D4       -3.14159  -0.00833   0.00000  -0.00267  -0.00268   3.13892
    D5        2.66545  -0.01967   0.00000  -0.00260  -0.00309   2.66236
    D6       -0.47614  -0.02017   0.00000   0.00117   0.00078  -0.47536
    D7        2.10183  -0.02531   0.00000  -0.02624  -0.02574   2.07608
    D8       -1.03977  -0.02581   0.00000  -0.02248  -0.02187  -1.06164
    D9       -2.67533  -0.00503   0.00000  -0.00657  -0.00653  -2.68186
   D10       -0.00516  -0.01446   0.00000  -0.00014  -0.00082  -0.00598
   D11        0.95437   0.00757   0.00000  -0.01107  -0.01044   0.94394
   D12       -2.65864  -0.00186   0.00000  -0.00464  -0.00472  -2.66337
   D13       -0.52360   0.02705   0.00000   0.01545   0.01511  -0.50849
   D14        2.61799   0.02655   0.00000   0.01921   0.01895   2.63694
   D15       -3.14159   0.02166   0.00000   0.01120   0.01090  -3.13069
   D16       -1.04720   0.01017   0.00000   0.00064   0.00050  -1.04670
   D17        1.04720   0.02310   0.00000   0.00549   0.00497   1.05216
   D18        2.61799   0.01586   0.00000   0.01341   0.01343   2.63142
   D19       -0.52360   0.01421   0.00000   0.00846   0.00839  -0.51521
   D20        0.52360   0.00704   0.00000   0.00540   0.00538   0.52898
   D21       -2.61799   0.00538   0.00000   0.00045   0.00035  -2.61764
   D22       -1.57080   0.00943   0.00000   0.00718   0.00712  -1.56368
   D23        1.57080   0.00777   0.00000   0.00222   0.00208   1.57288
   D24       -0.42381  -0.00730   0.00000   0.00723   0.00655  -0.41726
   D25       -0.92447  -0.02832   0.00000  -0.02565  -0.02482  -0.94929
   D26       -0.00000   0.07947   0.00000   0.06415   0.06431   0.06430
   D27        3.14159  -0.00219   0.00000   0.00185   0.00176  -3.13984
   D28        2.71778  -0.00896   0.00000   0.00228   0.00152   2.71931
   D29        2.21712  -0.02997   0.00000  -0.03060  -0.02985   2.18728
   D30        3.14159   0.07782   0.00000   0.05919   0.05928  -3.08231
   D31       -0.00000  -0.00384   0.00000  -0.00311  -0.00327  -0.00327
         Item               Value     Threshold  Converged?
 Maximum Force            0.357717     0.000450     NO 
 RMS     Force            0.070506     0.000300     NO 
 Maximum Displacement     0.143633     0.001800     NO 
 RMS     Displacement     0.031487     0.001200     NO 
 Predicted change in Energy=-1.659623D-01
 Lowest energy point so far.  Saving SCF results.
 GradGradGradGradGradGradGradGradGradGradGradGradGradGradGradGradGradGrad

 Leave Link  103 at Tue Oct 15 00:45:42 2019, MaxMem=   280000000 cpu:               2.2 elap:               0.1
 (Enter /home/soft/g16/l202.exe)
                          Input orientation:                          
 ---------------------------------------------------------------------
 Center     Atomic      Atomic             Coordinates (Angstroms)
 Number     Number       Type             X           Y           Z
 ---------------------------------------------------------------------
      1          6           0       -3.785675   -1.419175    0.627949
      2          1           0       -3.264869   -2.357030    0.855523
      3          1           0       -4.842912   -1.359835    0.801165
      4          6           0       -3.088251   -0.316980    0.199234
      5          1           0       -3.593169    0.613531    0.027030
      6          8           0       -1.686911   -0.407832   -0.023526
      7          6           0       -1.096271   -1.399132    0.835917
      8          1           0       -0.035723   -1.442357    0.657629
      9          1           0       -1.275973   -1.117329    1.859848
     10          6           0       -1.712096   -2.779199    0.564979
     11          1           0       -1.136420   -3.671019    0.726325
     12          6           0       -3.012547   -2.868032    0.118266
     13          1           0       -3.599614   -1.968921   -0.105426
     14          1           0       -3.453425   -3.828640   -0.072762
 ---------------------------------------------------------------------
                    Distance matrix (angstroms):
                    1          2          3          4          5
     1  C    0.000000
     2  H    1.096632   0.000000
     3  H    1.072975   1.867504   0.000000
     4  C    1.372964   2.150282   2.128075   0.000000
     5  H    2.128393   3.101357   2.460755   1.072589   0.000000
     6  O    2.419100   2.657452   3.398053   1.421840   2.163229
     7  C    2.697507   2.370816   3.747008   2.354656   3.307509
     8  H    3.750141   3.362019   4.810039   3.285502   4.156892
     9  H    2.811991   2.549753   3.728629   2.585063   3.424106
    10  C    2.480597   1.635159   3.445633   2.844309   3.916433
    11  H    3.478367   2.504707   4.368668   3.916255   4.988187
    12  C    1.719503   0.931846   2.468045   2.553460   3.530826
    13  H    0.935242   1.089085   1.654897   1.755910   2.585855
    14  H    2.531187   1.750115   2.964696   3.541058   4.445489
                    6          7          8          9         10
     6  O    0.000000
     7  C    1.438810   0.000000
     8  H    2.064131   1.076297   0.000000
     9  H    2.054107   1.077099   1.757610   0.000000
    10  C    2.443431   1.535328   2.146149   2.151442   0.000000
    11  H    3.393185   2.274883   2.486602   2.797443   1.073675
    12  C    2.798214   2.518890   3.344390   3.018901   1.377904
    13  H    2.470251   2.734504   3.682505   3.160194   2.160722
    14  H    3.850315   3.504908   4.231844   3.978378   2.130791
                   11         12         13         14
    11  H    0.000000
    12  C    2.129408   0.000000
    13  H    3.107455   1.096853   0.000000
    14  H    2.455992   1.074073   1.865742   0.000000
 Stoichiometry    C5H8O
 Framework group  C1[X(C5H8O)]
 Deg. of freedom    36
 Full point group                 C1      NOp   1
 RotChk:  IX=0 Diff= 6.14D-01
 Largest Abelian subgroup         C1      NOp   1
 Largest concise Abelian subgroup C1      NOp   1
                         Standard orientation:                         
 ---------------------------------------------------------------------
 Center     Atomic      Atomic             Coordinates (Angstroms)
 Number     Number       Type             X           Y           Z
 ---------------------------------------------------------------------
      1          6           0        0.417486    1.285442    0.361936
      2          1           0       -0.632145    0.986305    0.468675
      3          1           0        0.701665    2.282222    0.639327
      4          6           0        1.365226    0.380925   -0.048756
      5          1           0        2.398869    0.662231   -0.102594
      6          8           0        0.976093   -0.937904   -0.410551
      7          6           0       -0.200962   -1.339754    0.312796
      8          1           0       -0.469814   -2.343180    0.031247
      9          1           0        0.016729   -1.309946    1.367246
     10          6           0       -1.370621   -0.395473    0.000608
     11          1           0       -2.382028   -0.753667    0.039766
     12          6           0       -1.115582    0.918866   -0.325100
     13          1           0       -0.088613    1.291074   -0.424519
     14          1           0       -1.926693    1.588168   -0.543654
 ---------------------------------------------------------------------
 Rotational constants (GHZ):           5.2176177           4.8415057           2.7788881
 Leave Link  202 at Tue Oct 15 00:45:42 2019, MaxMem=   280000000 cpu:               0.6 elap:               0.0
 (Enter /home/soft/g16/l301.exe)
 Standard basis: 6-31+G(d) (6D, 7F)
 Ernie: Thresh=  0.10000D-02 Tol=  0.10000D-05 Strict=F.
 There are   130 symmetry adapted cartesian basis functions of A   symmetry.
 There are   130 symmetry adapted basis functions of A   symmetry.
   130 basis functions,   224 primitive gaussians,   130 cartesian basis functions
    23 alpha electrons       23 beta electrons
       nuclear repulsion energy       246.2715809852 Hartrees.
 IExCor=  402 DFT=T Ex+Corr=B3LYP ExCW=0 ScaHFX=  0.200000
 ScaDFX=  0.800000  0.720000  1.000000  0.810000 ScalE2=  1.000000  1.000000
 IRadAn=      5 IRanWt=     -1 IRanGd=            0 ICorTp=0 IEmpDi=  4
 NAtoms=   14 NActive=   14 NUniq=   14 SFac= 1.00D+00 NAtFMM=   60 NAOKFM=F Big=F
 Integral buffers will be    131072 words long.
 Raffenetti 2 integral format.
 Two-electron integral symmetry is turned on.
 Leave Link  301 at Tue Oct 15 00:45:42 2019, MaxMem=   280000000 cpu:               1.4 elap:               0.1
 (Enter /home/soft/g16/l302.exe)
 NPDir=0 NMtPBC=     1 NCelOv=     1 NCel=       1 NClECP=     1 NCelD=      1
         NCelK=      1 NCelE2=     1 NClLst=     1 CellRange=     0.0.
 One-electron integrals computed using PRISM.
 One-electron integral symmetry used in STVInt
 NBasis=   130 RedAO= T EigKep=  5.41D-05  NBF=   130
 NBsUse=   130 1.00D-06 EigRej= -1.00D+00 NBFU=   130
 Precomputing XC quadrature grid using
 IXCGrd= 4 IRadAn=           5 IRanWt=          -1 IRanGd=           0 AccXCQ= 0.00D+00.
 Generated NRdTot=       0 NPtTot=           0 NUsed=           0 NTot=          32
 NSgBfM=   130   130   130   130   130 MxSgAt=    14 MxSgA2=    14.
 Leave Link  302 at Tue Oct 15 00:45:42 2019, MaxMem=   280000000 cpu:               3.6 elap:               0.2
 (Enter /home/soft/g16/l303.exe)
 DipDrv:  MaxL=1.
 Leave Link  303 at Tue Oct 15 00:45:42 2019, MaxMem=   280000000 cpu:               0.6 elap:               0.0
 (Enter /home/soft/g16/l401.exe)
 Initial guess from the checkpoint file:  "R.chk"
 B after Tr=    -0.000000   -0.000000   -0.000000
         Rot=    0.976223    0.000729   -0.001592    0.216760 Ang=  25.04 deg.
 Guess basis will be translated and rotated to current coordinates.
 JPrj=2 DoOrth=T DoCkMO=T.
 Generating alternative initial guess.
 ExpMin= 4.38D-02 ExpMax= 5.48D+03 ExpMxC= 8.25D+02 IAcc=2 IRadAn=         4 AccDes= 0.00D+00
 Harris functional with IExCor=  402 and IRadAn=       4 diagonalized for initial guess.
 HarFok:  IExCor=  402 AccDes= 0.00D+00 IRadAn=         4 IDoV= 1 UseB2=F ITyADJ=14
 ICtDFT=  3500011 ScaDFX=  1.000000  1.000000  1.000000  1.000000
 FoFCou: FMM=F IPFlag=           0 FMFlag=      100000 FMFlg1=           0
         NFxFlg=           0 DoJE=T BraDBF=F KetDBF=T FulRan=T
         wScrn=  0.000000 ICntrl=       500 IOpCl=  0 I1Cent=   200000004 NGrid=           0
         NMat0=    1 NMatS0=      1 NMatT0=    0 NMatD0=    1 NMtDS0=    0 NMtDT0=    0
 Petite list used in FoFCou.
 Harris En= -270.071027051396    
 Leave Link  401 at Tue Oct 15 00:45:43 2019, MaxMem=   280000000 cpu:               6.0 elap:               0.3
 (Enter /home/soft/g16/l502.exe)
 Integral symmetry usage will be decided dynamically.
 Closed shell SCF:
 Using DIIS extrapolation, IDIIS=  1040.
 NGot=   280000000 LenX=   279961490 LenY=   279944149
 Requested convergence on RMS density matrix=1.00D-08 within 128 cycles.
 Requested convergence on MAX density matrix=1.00D-06.
 Requested convergence on             energy=1.00D-06.
 No special actions if energy rises.
 Fock matrices will be formed incrementally for  20 cycles.

 Cycle   1  Pass 1  IDiag  1:
 FoFJK:  IHMeth= 1 ICntrl=       0 DoSepK=F KAlg= 0 I1Cent=           0 FoldK=F
 IRaf= 990000000 NMat=       1 IRICut=       1 DoRegI=T DoRafI=F ISym2E= 0 IDoP0=0 IntGTp=1.
 FoFCou: FMM=F IPFlag=           0 FMFlag=      100000 FMFlg1=           0
         NFxFlg=           0 DoJE=F BraDBF=F KetDBF=F FulRan=T
         wScrn=  0.000000 ICntrl=         0 IOpCl=  0 I1Cent=           0 NGrid=           0
         NMat0=    1 NMatS0=      1 NMatT0=    0 NMatD0=    1 NMtDS0=    0 NMtDT0=    0
 Symmetry not used in FoFCou.
 E= -270.019734032991    
 DIIS: error= 3.65D-03 at cycle   1 NSaved=   1.
 NSaved= 1 IEnMin= 1 EnMin= -270.019734032991     IErMin= 1 ErrMin= 3.65D-03
 ErrMax= 3.65D-03  0.00D+00 EMaxC= 1.00D-01 BMatC= 4.99D-03 BMatP= 4.99D-03
 IDIUse=3 WtCom= 9.64D-01 WtEn= 3.65D-02
 Coeff-Com:  0.100D+01
 Coeff-En:   0.100D+01
 Coeff:      0.100D+01
 Gap=     0.439 Goal=   None    Shift=    0.000
 GapD=    0.439 DampG=2.000 DampE=1.000 DampFc=2.0000 IDamp=-1.
 RMSDP=3.15D-03 MaxDP=1.20D-01              OVMax= 2.52D-02

 Cycle   2  Pass 1  IDiag  1:
 RMSU=  2.92D-03    CP:  9.67D-01
 E= -270.024128891990     Delta-E=       -0.004394859000 Rises=F Damp=F
 DIIS: error= 2.19D-03 at cycle   2 NSaved=   2.
 NSaved= 2 IEnMin= 2 EnMin= -270.024128891990     IErMin= 2 ErrMin= 2.19D-03
 ErrMax= 2.19D-03  0.00D+00 EMaxC= 1.00D-01 BMatC= 1.87D-03 BMatP= 4.99D-03
 IDIUse=3 WtCom= 9.78D-01 WtEn= 2.19D-02
 Coeff-Com:  0.340D+00 0.660D+00
 Coeff-En:   0.000D+00 0.100D+01
 Coeff:      0.332D+00 0.668D+00
 Gap=     0.085 Goal=   None    Shift=    0.000
 RMSDP=2.04D-03 MaxDP=3.71D-02 DE=-4.39D-03 OVMax= 5.92D-02

 Cycle   3  Pass 1  IDiag  1:
 RMSU=  2.03D-03    CP:  9.63D-01  1.04D+00
 E= -270.023548409809     Delta-E=        0.000580482182 Rises=F Damp=F
 DIIS: error= 3.06D-03 at cycle   3 NSaved=   3.
 NSaved= 3 IEnMin= 2 EnMin= -270.024128891990     IErMin= 2 ErrMin= 2.19D-03
 ErrMax= 3.06D-03  0.00D+00 EMaxC= 1.00D-01 BMatC= 2.55D-03 BMatP= 1.87D-03
 IDIUse=3 WtCom= 1.53D-01 WtEn= 8.47D-01
 Coeff-Com:  0.476D-01 0.531D+00 0.421D+00
 Coeff-En:   0.000D+00 0.547D+00 0.453D+00
 Coeff:      0.729D-02 0.545D+00 0.448D+00
 Gap=     0.087 Goal=   None    Shift=    0.000
 RMSDP=1.31D-03 MaxDP=4.39D-02 DE= 5.80D-04 OVMax= 3.23D-02

 Cycle   4  Pass 1  IDiag  1:
 RMSU=  9.34D-04    CP:  9.50D-01  1.06D+00  6.12D-01
 E= -270.026061300147     Delta-E=       -0.002512890339 Rises=F Damp=F
 DIIS: error= 8.73D-04 at cycle   4 NSaved=   4.
 NSaved= 4 IEnMin= 4 EnMin= -270.026061300147     IErMin= 4 ErrMin= 8.73D-04
 ErrMax= 8.73D-04  0.00D+00 EMaxC= 1.00D-01 BMatC= 1.80D-04 BMatP= 1.87D-03
 IDIUse=3 WtCom= 9.91D-01 WtEn= 8.73D-03
 Coeff-Com: -0.517D-02 0.289D+00 0.272D+00 0.444D+00
 Coeff-En:   0.000D+00 0.000D+00 0.185D-02 0.998D+00
 Coeff:     -0.512D-02 0.287D+00 0.269D+00 0.449D+00
 Gap=     0.086 Goal=   None    Shift=    0.000
 RMSDP=7.88D-04 MaxDP=3.62D-02 DE=-2.51D-03 OVMax= 1.73D-02

 Cycle   5  Pass 1  IDiag  1:
 RMSU=  3.74D-04    CP:  9.59D-01  1.08D+00  6.26D-01  3.54D-01
 E= -270.026178922492     Delta-E=       -0.000117622345 Rises=F Damp=F
 DIIS: error= 5.42D-04 at cycle   5 NSaved=   5.
 NSaved= 5 IEnMin= 5 EnMin= -270.026178922492     IErMin= 5 ErrMin= 5.42D-04
 ErrMax= 5.42D-04  0.00D+00 EMaxC= 1.00D-01 BMatC= 7.78D-05 BMatP= 1.80D-04
 IDIUse=3 WtCom= 9.95D-01 WtEn= 5.42D-03
 Coeff-Com: -0.959D-02 0.162D+00 0.152D+00 0.367D+00 0.328D+00
 Coeff-En:   0.000D+00 0.000D+00 0.000D+00 0.339D+00 0.661D+00
 Coeff:     -0.954D-02 0.161D+00 0.152D+00 0.367D+00 0.330D+00
 Gap=     0.086 Goal=   None    Shift=    0.000
 RMSDP=3.59D-04 MaxDP=1.61D-02 DE=-1.18D-04 OVMax= 1.05D-02

 Cycle   6  Pass 1  IDiag  1:
 RMSU=  3.02D-04    CP:  9.63D-01  1.10D+00  6.27D-01  2.24D-01  8.89D-01
 E= -270.026265994373     Delta-E=       -0.000087071880 Rises=F Damp=F
 DIIS: error= 1.81D-04 at cycle   6 NSaved=   6.
 NSaved= 6 IEnMin= 6 EnMin= -270.026265994373     IErMin= 6 ErrMin= 1.81D-04
 ErrMax= 1.81D-04  0.00D+00 EMaxC= 1.00D-01 BMatC= 1.03D-05 BMatP= 7.78D-05
 IDIUse=3 WtCom= 9.98D-01 WtEn= 1.81D-03
 Coeff-Com: -0.578D-02 0.405D-01 0.264D-01 0.161D+00 0.273D+00 0.506D+00
 Coeff-En:   0.000D+00 0.000D+00 0.000D+00 0.000D+00 0.130D+00 0.870D+00
 Coeff:     -0.577D-02 0.405D-01 0.264D-01 0.160D+00 0.272D+00 0.506D+00
 Gap=     0.087 Goal=   None    Shift=    0.000
 RMSDP=1.10D-04 MaxDP=4.73D-03 DE=-8.71D-05 OVMax= 2.08D-03

 Cycle   7  Pass 1  IDiag  1:
 RMSU=  5.11D-05    CP:  9.61D-01  1.11D+00  6.51D-01  2.55D-01  1.01D+00
                    CP:  9.15D-01
 E= -270.026277220580     Delta-E=       -0.000011226208 Rises=F Damp=F
 DIIS: error= 6.34D-05 at cycle   7 NSaved=   7.
 NSaved= 7 IEnMin= 7 EnMin= -270.026277220580     IErMin= 7 ErrMin= 6.34D-05
 ErrMax= 6.34D-05  0.00D+00 EMaxC= 1.00D-01 BMatC= 7.91D-07 BMatP= 1.03D-05
 IDIUse=1 WtCom= 1.00D+00 WtEn= 0.00D+00
 Coeff-Com:  0.440D-03-0.132D-01-0.289D-01-0.128D-01 0.207D-01-0.488D-02
 Coeff-Com:  0.104D+01
 Coeff:      0.440D-03-0.132D-01-0.289D-01-0.128D-01 0.207D-01-0.488D-02
 Coeff:      0.104D+01
 Gap=     0.087 Goal=   None    Shift=    0.000
 RMSDP=8.05D-05 MaxDP=3.23D-03 DE=-1.12D-05 OVMax= 9.33D-04

 Cycle   8  Pass 1  IDiag  1:
 RMSU=  1.68D-05    CP:  9.62D-01  1.11D+00  6.58D-01  2.23D-01  1.13D+00
                    CP:  1.06D+00  1.29D+00
 E= -270.026278384494     Delta-E=       -0.000001163914 Rises=F Damp=F
 DIIS: error= 1.49D-05 at cycle   8 NSaved=   8.
 NSaved= 8 IEnMin= 8 EnMin= -270.026278384494     IErMin= 8 ErrMin= 1.49D-05
 ErrMax= 1.49D-05  0.00D+00 EMaxC= 1.00D-01 BMatC= 7.32D-08 BMatP= 7.91D-07
 IDIUse=1 WtCom= 1.00D+00 WtEn= 0.00D+00
 Coeff-Com:  0.686D-03-0.872D-02-0.166D-01-0.187D-01-0.944D-02-0.570D-01
 Coeff-Com:  0.434D+00 0.676D+00
 Coeff:      0.686D-03-0.872D-02-0.166D-01-0.187D-01-0.944D-02-0.570D-01
 Coeff:      0.434D+00 0.676D+00
 Gap=     0.087 Goal=   None    Shift=    0.000
 RMSDP=2.72D-05 MaxDP=1.13D-03 DE=-1.16D-06 OVMax= 2.75D-04

 Cycle   9  Pass 1  IDiag  1:
 RMSU=  3.89D-06    CP:  9.62D-01  1.12D+00  6.60D-01  2.12D-01  1.17D+00
                    CP:  1.10D+00  1.44D+00  1.09D+00
 E= -270.026278469437     Delta-E=       -0.000000084943 Rises=F Damp=F
 DIIS: error= 8.18D-06 at cycle   9 NSaved=   9.
 NSaved= 9 IEnMin= 9 EnMin= -270.026278469437     IErMin= 9 ErrMin= 8.18D-06
 ErrMax= 8.18D-06  0.00D+00 EMaxC= 1.00D-01 BMatC= 1.50D-08 BMatP= 7.32D-08
 IDIUse=1 WtCom= 1.00D+00 WtEn= 0.00D+00
 Coeff-Com:  0.307D-03-0.260D-02-0.456D-02-0.948D-02-0.972D-02-0.389D-01
 Coeff-Com:  0.329D-01 0.417D+00 0.615D+00
 Coeff:      0.307D-03-0.260D-02-0.456D-02-0.948D-02-0.972D-02-0.389D-01
 Coeff:      0.329D-01 0.417D+00 0.615D+00
 Gap=     0.087 Goal=   None    Shift=    0.000
 RMSDP=1.13D-05 MaxDP=4.69D-04 DE=-8.49D-08 OVMax= 1.03D-04

 Cycle  10  Pass 1  IDiag  1:
 RMSU=  1.63D-06    CP:  9.62D-01  1.12D+00  6.61D-01  2.07D-01  1.19D+00
                    CP:  1.12D+00  1.48D+00  1.17D+00  1.07D+00
 E= -270.026278486085     Delta-E=       -0.000000016648 Rises=F Damp=F
 DIIS: error= 1.85D-06 at cycle  10 NSaved=  10.
 NSaved=10 IEnMin=10 EnMin= -270.026278486085     IErMin=10 ErrMin= 1.85D-06
 ErrMax= 1.85D-06  0.00D+00 EMaxC= 1.00D-01 BMatC= 9.59D-10 BMatP= 1.50D-08
 IDIUse=1 WtCom= 1.00D+00 WtEn= 0.00D+00
 Coeff-Com:  0.527D-04-0.196D-04-0.293D-03-0.180D-02-0.161D-02-0.111D-01
 Coeff-Com: -0.251D-01 0.131D+00 0.306D+00 0.603D+00
 Coeff:      0.527D-04-0.196D-04-0.293D-03-0.180D-02-0.161D-02-0.111D-01
 Coeff:     -0.251D-01 0.131D+00 0.306D+00 0.603D+00
 Gap=     0.087 Goal=   None    Shift=    0.000
 RMSDP=1.04D-06 MaxDP=3.39D-05 DE=-1.66D-08 OVMax= 1.80D-05

 Cycle  11  Pass 1  IDiag  1:
 RMSU=  4.90D-07    CP:  9.62D-01  1.12D+00  6.61D-01  2.06D-01  1.19D+00
                    CP:  1.12D+00  1.49D+00  1.20D+00  1.11D+00  9.24D-01
 E= -270.026278486961     Delta-E=       -0.000000000876 Rises=F Damp=F
 DIIS: error= 5.72D-07 at cycle  11 NSaved=  11.
 NSaved=11 IEnMin=11 EnMin= -270.026278486961     IErMin=11 ErrMin= 5.72D-07
 ErrMax= 5.72D-07  0.00D+00 EMaxC= 1.00D-01 BMatC= 1.40D-10 BMatP= 9.59D-10
 IDIUse=1 WtCom= 1.00D+00 WtEn= 0.00D+00
 Coeff-Com: -0.128D-04 0.335D-03 0.493D-03 0.210D-03 0.553D-03-0.122D-02
 Coeff-Com: -0.202D-01 0.135D-01 0.791D-01 0.318D+00 0.609D+00
 Coeff:     -0.128D-04 0.335D-03 0.493D-03 0.210D-03 0.553D-03-0.122D-02
 Coeff:     -0.202D-01 0.135D-01 0.791D-01 0.318D+00 0.609D+00
 Gap=     0.087 Goal=   None    Shift=    0.000
 RMSDP=5.71D-07 MaxDP=2.26D-05 DE=-8.76D-10 OVMax= 8.05D-06

 Cycle  12  Pass 1  IDiag  1:
 RMSU=  1.84D-07    CP:  9.62D-01  1.12D+00  6.61D-01  2.06D-01  1.19D+00
                    CP:  1.12D+00  1.49D+00  1.21D+00  1.13D+00  9.43D-01
                    CP:  9.88D-01
 E= -270.026278487108     Delta-E=       -0.000000000147 Rises=F Damp=F
 DIIS: error= 1.73D-07 at cycle  12 NSaved=  12.
 NSaved=12 IEnMin=12 EnMin= -270.026278487108     IErMin=12 ErrMin= 1.73D-07
 ErrMax= 1.73D-07  0.00D+00 EMaxC= 1.00D-01 BMatC= 8.67D-12 BMatP= 1.40D-10
 IDIUse=1 WtCom= 1.00D+00 WtEn= 0.00D+00
 Coeff-Com: -0.670D-05 0.994D-04 0.166D-03 0.151D-03 0.376D-03 0.462D-04
 Coeff-Com: -0.497D-02-0.388D-02 0.444D-02 0.580D-01 0.165D+00 0.781D+00
 Coeff:     -0.670D-05 0.994D-04 0.166D-03 0.151D-03 0.376D-03 0.462D-04
 Coeff:     -0.497D-02-0.388D-02 0.444D-02 0.580D-01 0.165D+00 0.781D+00
 Gap=     0.087 Goal=   None    Shift=    0.000
 RMSDP=2.36D-07 MaxDP=7.05D-06 DE=-1.47D-10 OVMax= 2.63D-06

 Cycle  13  Pass 1  IDiag  1:
 RMSU=  4.21D-08    CP:  9.62D-01  1.12D+00  6.61D-01  2.06D-01  1.19D+00
                    CP:  1.12D+00  1.49D+00  1.21D+00  1.15D+00  9.56D-01
                    CP:  1.05D+00  1.19D+00
 E= -270.026278487121     Delta-E=       -0.000000000013 Rises=F Damp=F
 DIIS: error= 5.85D-08 at cycle  13 NSaved=  13.
 NSaved=13 IEnMin=13 EnMin= -270.026278487121     IErMin=13 ErrMin= 5.85D-08
 ErrMax= 5.85D-08  0.00D+00 EMaxC= 1.00D-01 BMatC= 1.14D-12 BMatP= 8.67D-12
 IDIUse=1 WtCom= 1.00D+00 WtEn= 0.00D+00
 Coeff-Com: -0.170D-05 0.112D-04 0.283D-04 0.338D-04 0.143D-03 0.642D-04
 Coeff-Com: -0.512D-03-0.293D-02-0.528D-02-0.355D-02 0.141D-01 0.325D+00
 Coeff-Com:  0.673D+00
 Coeff:     -0.170D-05 0.112D-04 0.283D-04 0.338D-04 0.143D-03 0.642D-04
 Coeff:     -0.512D-03-0.293D-02-0.528D-02-0.355D-02 0.141D-01 0.325D+00
 Coeff:      0.673D+00
 Gap=     0.087 Goal=   None    Shift=    0.000
 RMSDP=6.46D-08 MaxDP=1.77D-06 DE=-1.27D-11 OVMax= 7.74D-07

 Cycle  14  Pass 1  IDiag  1:
 RMSU=  1.08D-08    CP:  9.62D-01  1.12D+00  6.61D-01  2.06D-01  1.19D+00
                    CP:  1.12D+00  1.50D+00  1.21D+00  1.15D+00  9.60D-01
                    CP:  1.07D+00  1.29D+00  1.17D+00
 E= -270.026278487124     Delta-E=       -0.000000000004 Rises=F Damp=F
 DIIS: error= 2.26D-08 at cycle  14 NSaved=  14.
 NSaved=14 IEnMin=14 EnMin= -270.026278487124     IErMin=14 ErrMin= 2.26D-08
 ErrMax= 2.26D-08  0.00D+00 EMaxC= 1.00D-01 BMatC= 1.65D-13 BMatP= 1.14D-12
 IDIUse=1 WtCom= 1.00D+00 WtEn= 0.00D+00
 Coeff-Com:  0.200D-06-0.888D-05-0.970D-05-0.100D-04 0.291D-04 0.702D-05
 Coeff-Com:  0.464D-03-0.744D-03-0.290D-02-0.945D-02-0.167D-01 0.305D-01
 Coeff-Com:  0.293D+00 0.706D+00
 Coeff:      0.200D-06-0.888D-05-0.970D-05-0.100D-04 0.291D-04 0.702D-05
 Coeff:      0.464D-03-0.744D-03-0.290D-02-0.945D-02-0.167D-01 0.305D-01
 Coeff:      0.293D+00 0.706D+00
 Gap=     0.087 Goal=   None    Shift=    0.000
 RMSDP=1.96D-08 MaxDP=1.11D-06 DE=-3.64D-12 OVMax= 2.15D-07

 Cycle  15  Pass 1  IDiag  1:
 RMSU=  4.79D-09    CP:  9.62D-01  1.12D+00  6.61D-01  2.06D-01  1.19D+00
                    CP:  1.12D+00  1.50D+00  1.21D+00  1.15D+00  9.60D-01
                    CP:  1.08D+00  1.33D+00  1.25D+00  1.21D+00
 E= -270.026278487120     Delta-E=        0.000000000005 Rises=F Damp=F
 DIIS: error= 7.01D-09 at cycle  15 NSaved=  15.
 NSaved=15 IEnMin=14 EnMin= -270.026278487124     IErMin=15 ErrMin= 7.01D-09
 ErrMax= 7.01D-09  0.00D+00 EMaxC= 1.00D-01 BMatC= 1.16D-14 BMatP= 1.65D-13
 IDIUse=1 WtCom= 1.00D+00 WtEn= 0.00D+00
 Coeff-Com:  0.156D-06-0.256D-05-0.376D-05-0.592D-05 0.422D-05-0.101D-04
 Coeff-Com:  0.147D-03 0.736D-04-0.139D-03-0.164D-02-0.383D-02-0.137D-01
 Coeff-Com:  0.241D-01 0.132D+00 0.863D+00
 Coeff:      0.156D-06-0.256D-05-0.376D-05-0.592D-05 0.422D-05-0.101D-04
 Coeff:      0.147D-03 0.736D-04-0.139D-03-0.164D-02-0.383D-02-0.137D-01
 Coeff:      0.241D-01 0.132D+00 0.863D+00
 Gap=     0.087 Goal=   None    Shift=    0.000
 RMSDP=1.15D-08 MaxDP=6.94D-07 DE= 4.55D-12 OVMax= 7.69D-08

 Cycle  16  Pass 1  IDiag  1:
 RMSU=  1.85D-09    CP:  9.62D-01  1.12D+00  6.61D-01  2.06D-01  1.19D+00
                    CP:  1.12D+00  1.50D+00  1.21D+00  1.16D+00  9.59D-01
                    CP:  1.08D+00  1.35D+00  1.32D+00  1.33D+00  1.04D+00
 E= -270.026278487122     Delta-E=       -0.000000000003 Rises=F Damp=F
 DIIS: error= 2.28D-09 at cycle  16 NSaved=  16.
 NSaved=16 IEnMin=14 EnMin= -270.026278487124     IErMin=16 ErrMin= 2.28D-09
 ErrMax= 2.28D-09  0.00D+00 EMaxC= 1.00D-01 BMatC= 9.64D-16 BMatP= 1.16D-14
 IDIUse=1 WtCom= 1.00D+00 WtEn= 0.00D+00
 Large coefficients: NSaved= 16 BigCof=    0.00 CofMax=   10.00 Det=-1.21D-15
 Inversion failed.  Reducing to 15 matrices.
 Coeff-Com:  0.909D-07-0.102D-06-0.774D-06 0.412D-06-0.373D-05 0.588D-05
 Coeff-Com:  0.780D-04 0.195D-03 0.289D-03 0.277D-03-0.744D-02-0.191D-01
 Coeff-Com: -0.341D-01 0.275D+00 0.785D+00
 Coeff:      0.909D-07-0.102D-06-0.774D-06 0.412D-06-0.373D-05 0.588D-05
 Coeff:      0.780D-04 0.195D-03 0.289D-03 0.277D-03-0.744D-02-0.191D-01
 Coeff:     -0.341D-01 0.275D+00 0.785D+00
 Gap=     0.087 Goal=   None    Shift=    0.000
 RMSDP=2.30D-09 MaxDP=1.12D-07 DE=-2.84D-12 OVMax= 2.04D-08

 SCF Done:  E(RB3LYP) =  -270.026278487     A.U. after   16 cycles
            NFock= 16  Conv=0.23D-08     -V/T= 2.0032
 KE= 2.691548101801D+02 PE=-1.120344955517D+03 EE= 3.348922858649D+02
 Leave Link  502 at Tue Oct 15 00:45:47 2019, MaxMem=   280000000 cpu:             114.5 elap:               4.8
 (Enter /home/soft/g16/l701.exe)
 ... and contract with generalized density number  0.
 Compute integral first derivatives.
 Leave Link  701 at Tue Oct 15 00:45:48 2019, MaxMem=   280000000 cpu:               2.3 elap:               0.1
 (Enter /home/soft/g16/l702.exe)
 L702 exits ... SP integral derivatives will be done elsewhere.
 Leave Link  702 at Tue Oct 15 00:45:48 2019, MaxMem=   280000000 cpu:               0.8 elap:               0.1
 (Enter /home/soft/g16/l703.exe)
 Integral derivatives from FoFJK, PRISM(SPDF).
 Compute integral first derivatives, UseDBF=F ICtDFT=           0.
 Calling FoFJK, ICntrl=      2127 FMM=F ISym2X=0 I1Cent= 0 IOpClX= 0 NMat=1 NMatS=1 NMatT=0.
 FoFJK:  IHMeth= 1 ICntrl=    2127 DoSepK=F KAlg= 0 I1Cent=           0 FoldK=F
 IRaf=         0 NMat=       1 IRICut=       1 DoRegI=T DoRafI=F ISym2E= 0 IDoP0=0 IntGTp=1.
 FoFCou: FMM=F IPFlag=           0 FMFlag=      100000 FMFlg1=         800
         NFxFlg=           0 DoJE=F BraDBF=F KetDBF=F FulRan=T
         wScrn=  0.000000 ICntrl=      2127 IOpCl=  0 I1Cent=           0 NGrid=           0
         NMat0=    1 NMatS0=      1 NMatT0=    0 NMatD0=    1 NMtDS0=    0 NMtDT0=    0
 Symmetry not used in FoFCou.
 Leave Link  703 at Tue Oct 15 00:45:48 2019, MaxMem=   280000000 cpu:              15.9 elap:               0.7
 (Enter /home/soft/g16/l716.exe)
 Dipole        =-4.33489551D-01 9.41047866D-01 4.00608580D-01
 ***** Axes restored to original set *****
 -------------------------------------------------------------------
 Center     Atomic                   Forces (Hartrees/Bohr)
 Number     Number              X              Y              Z
[...]
 ! D4    D(3,1,4,6)            178.6699         -DE/DX =    0.0                 !
 ! D5    D(12,1,4,5)           137.2629         -DE/DX =    0.0                 !
 ! D6    D(12,1,4,6)           -43.1221         -DE/DX =    0.0                 !
 ! D7    D(13,1,4,5)           121.6518         -DE/DX =    0.0                 !
 ! D8    D(13,1,4,6)           -58.7332         -DE/DX =    0.0                 !
 ! D9    D(3,1,12,10)         -162.6919         -DE/DX =    0.0                 !
 ! D10   D(3,1,12,14)          -48.9519         -DE/DX =    0.0                 !
 ! D11   D(4,1,12,10)           87.4123         -DE/DX =    0.0                 !
 ! D12   D(4,1,12,14)         -158.8477         -DE/DX =    0.0                 !
 ! D13   D(1,4,6,7)             -6.9804         -DE/DX =    0.0                 !
 ! D14   D(5,4,6,7)            172.6741         -DE/DX =    0.0                 !
 ! D15   D(4,6,7,8)           -153.7799         -DE/DX =    0.0                 !
 ! D16   D(4,6,7,9)            -39.1402         -DE/DX =    0.0                 !
 ! D17   D(4,6,7,10)            86.147          -DE/DX =    0.0                 !
 ! D18   D(6,7,10,11)         -177.9845         -DE/DX =    0.0                 !
 ! D19   D(6,7,10,12)            3.5205         -DE/DX =    0.0                 !
 ! D20   D(8,7,10,11)           64.5438         -DE/DX =    0.0                 !
 ! D21   D(8,7,10,12)         -113.9512         -DE/DX =    0.0                 !
 ! D22   D(9,7,10,11)          -53.2567         -DE/DX =    0.0                 !
 ! D23   D(9,7,10,12)          128.2483         -DE/DX =    0.0                 !
 ! D24   D(7,10,12,1)          -46.5594         -DE/DX =    0.0                 !
 ! D25   D(7,10,12,2)          -62.8586         -DE/DX =    0.0                 !
 ! D26   D(7,10,12,13)          -1.5223         -DE/DX =    0.0                 !
 ! D27   D(7,10,12,14)         178.7978         -DE/DX =    0.0                 !
 ! D28   D(11,10,12,1)         135.0297         -DE/DX =    0.0                 !
 ! D29   D(11,10,12,2)         118.7305         -DE/DX =    0.0                 !
 ! D30   D(11,10,12,13)       -179.9332         -DE/DX =    0.0                 !
 ! D31   D(11,10,12,14)          0.3869         -DE/DX =    0.0                 !
 --------------------------------------------------------------------------------
 GradGradGradGradGradGradGradGradGradGradGradGradGradGradGradGradGradGrad

 Leave Link  103 at Tue Oct 15 00:49:02 2019, MaxMem=   280000000 cpu:               5.0 elap:               0.3
 (Enter /home/soft/g16/l9999.exe)

 ----------------------------------------------------------------------

 Electric dipole moment (input orientation):
 (Debye = 10**-18 statcoulomb cm , SI units = C m)
                  (au)            (Debye)         (10**-30 SI)
   Tot        0.399076D+00      0.101435D+01      0.338351D+01
   x          0.122553D+00      0.311499D+00      0.103905D+01
   y         -0.234978D+00     -0.597256D+00     -0.199223D+01
   z          0.298375D+00      0.758394D+00      0.252973D+01

 Dipole polarizability, Alpha (input orientation).
 (esu units = cm**3 , SI units = C**2 m**2 J**-1)
 Alpha(0;0):
               (au)            (10**-24 esu)      (10**-40 SI)
   iso        0.635984D+02      0.942430D+01      0.104860D+02
   aniso      0.794320D+01      0.117706D+01      0.130966D+01
   xx         0.663216D+02      0.982785D+01      0.109350D+02
   yx        -0.135999D+01     -0.201530D+00     -0.224233D+00
   yy         0.619676D+02      0.918265D+01      0.102171D+02
   zx         0.394755D-01      0.584966D-02      0.650862D-02
   zy         0.368044D+01      0.545386D+00      0.606823D+00
   zz         0.625058D+02      0.926240D+01      0.103058D+02

 ----------------------------------------------------------------------

 Dipole orientation:
     6         -8.11675553         -0.34068756          0.25222148
     1         -8.16137341         -0.81506588          2.24508694
     1         -9.85087721          0.35158806         -0.59253071
     6         -6.07565258         -0.61190288         -1.21685565
     1         -6.11610869         -0.18739112         -3.22564964
     8         -3.70915070         -1.39581390         -0.56818591
     6         -3.13004143         -1.77301227          2.03721111
     1         -1.08030524         -1.48963078          2.17041336
     1         -4.02811624         -0.28286651          3.17437453
     6         -3.79771027         -4.34935781          3.04821609
     1         -3.40325094         -4.58470534          5.05912962
     6         -4.73391838         -6.27275657          1.71421274
     1         -5.14363971         -6.09632898         -0.28963353
     1         -5.12774076         -8.08438713          2.59664046

 Electric dipole moment (dipole orientation):
 (Debye = 10**-18 statcoulomb cm , SI units = C m)
                  (au)            (Debye)         (10**-30 SI)
   Tot        0.399076D+00      0.101435D+01      0.338351D+01
   x          0.000000D+00      0.000000D+00      0.000000D+00
   y          0.000000D+00      0.000000D+00      0.000000D+00
   z          0.399076D+00      0.101435D+01      0.338351D+01

 Dipole polarizability, Alpha (dipole orientation).
 (esu units = cm**3 , SI units = C**2 m**2 J**-1)
 Alpha(0;0):
               (au)            (10**-24 esu)      (10**-40 SI)
   iso        0.635984D+02      0.942430D+01      0.104860D+02
   aniso      0.794320D+01      0.117706D+01      0.130966D+01
   xx         0.653921D+02      0.969012D+01      0.107817D+02
   yx        -0.137816D+01     -0.204222D+00     -0.227228D+00
   yy         0.654544D+02      0.969934D+01      0.107920D+02
   zx         0.283011D+01      0.419379D+00      0.466622D+00
   zy         0.106339D+01      0.157578D+00      0.175330D+00
   zz         0.599485D+02      0.888346D+01      0.988418D+01

 ----------------------------------------------------------------------
 1\1\GINC-NODE13\Freq\RB3LYP\6-31+G(d)\C5H8O1\ROOT\15-Oct-2019\0\\#P Ge
 om=AllCheck Guess=TCheck SCRF=Check GenChk RB3LYP/6-31+G(d) Freq\\Titl
 e Card Required\\0,1\C,-4.0410937537,-0.667500429,1.3126620564\H,-3.76
 55495319,-1.4921175496,1.9605759751\H,-5.008609154,-0.2055688877,1.475
 9450353\C,-3.2728554215,-0.2130613276,0.3152281054\H,-3.5963082551,0.5
 90707555,-0.3407003839\O,-2.0256380648,-0.6181461047,-0.056952048\C,-1
 .3329813106,-1.5582443903,0.7622281466\H,-0.2696763648,-1.3673138713,0
 .5701309588\H,-1.5161959169,-1.3296115499,1.8223896428\C,-1.6439914614
 ,-3.0027015073,0.4679853034\H,-1.1326155449,-3.7075052961,1.1261649147
 \C,-2.4347680805,-3.4542161935,-0.5069669119\H,-2.9558618809,-2.777443
 9832,-1.1782286337\H,-2.5877110588,-4.5192242148,-0.6583108909\\Versio
 n=ES64L-G16RevA.03\State=1-A\HF=-270.5185461\RMSD=8.397e-09\RMSF=1.372
 e-05\ZeroPoint=0.1185863\Thermal=0.1253644\Dipole=0.1225533,-0.2349784
 ,0.2983752\DipoleDeriv=-0.3216566,-0.0597649,0.0538572,-0.2106685,-0.1
 839523,-0.059542,0.2174531,-0.2176642,-0.4364192,0.0569645,0.0701377,-
 0.01458,0.0574972,0.0303032,0.1057063,-0.0074233,0.1069957,0.087401,-0
 .0288969,0.0876557,0.0531259,0.0920961,0.079202,0.0260715,0.032022,0.0
 469885,0.1105094,1.1893078,-0.4423502,-0.5788744,-0.3253542,0.2443817,
 -0.0612253,-0.5106844,-0.0051327,0.3925367,0.0237321,0.0777389,0.01829
 14,0.0662255,0.0095053,0.0981912,-0.0077042,0.1053332,0.0452796,-1.308
 292,0.468625,0.3884682,0.5417572,-0.7140724,-0.0742587,0.0840335,0.141
 8157,-0.466676,0.5187386,-0.2711442,-0.0791669,-0.3042642,0.6044622,0.
 0153203,0.2183525,-0.193553,0.3046716,-0.1379235,0.0052572,0.0022032,-
 0.0261399,-0.033979,-0.0388859,0.0305563,0.0280256,0.0873684,0.0616373
 ,0.0328079,0.0711452,0.0052876,-0.0525066,-0.065012,-0.063937,-0.00289
 55,-0.1095133,-0.1144222,0.0290117,0.221207,0.0363266,0.1494019,0.0444
 117,0.1198325,-0.0030337,-0.0088838,0.0597932,0.0416782,-0.1012907,0.0
 787492,-0.0564173,0.0450774,-0.1058184,0.0583417,0.0103056,-0.1913825,
 -0.0416914,0.0934757,-0.0214514,0.0082356,-0.0674072,0.125787,-0.10300
 79,-0.1737259,0.0754163,0.0232784,-0.0758679,0.034389,0.0188386,0.0756
 703,-0.0804851,0.0507689,0.0641704,0.116984,-0.02124,-0.0519938,-0.024
 4503,-0.1034028,-0.0441176,-0.0519845,-0.0129823,0.0929754\Polar=66.32
 16445,-1.3599928,61.9676136,0.0394755,3.6804439,62.5057965\Quadrupole=
 0.5385245,0.1185912,-0.6571157,-1.4351984,1.8032426,-0.8524524\PG=C01 
 [X(C5H8O1)]\NImag=0\\0.61178195,-0.12106187,0.44142331,-0.22930247,-0.
 28703261,0.53277530,-0.07144730,0.06577933,-0.03743698,0.06828724,0.06
 332394,-0.21369224,0.14492578,-0.07059500,0.22127453,-0.03483981,0.141
 26420,-0.14693296,0.03993038,-0.15735579,0.15112669,-0.28272645,0.1203
 4129,0.04717668,-0.00281515,0.00107232,0.00119075,0.29775435,0.1241752
 8,-0.09619270,-0.00669494,0.01817756,-0.00596308,-0.00494639,-0.128816
 89,0.09569137,0.04342391,-0.00360438,-0.04838699,-0.01623556,0.0062721
 5,0.00478541,-0.05093993,0.00681380,0.04640872,-0.22528111,-0.06187048
 ,0.18249509,0.01060438,0.00552220,-0.00831514,-0.01484051,-0.01268082,
 0.02085172,0.57801929,-0.06369303,-0.14568348,0.14768859,-0.01465059,-
 0.00413351,0.01986424,0.00859826,0.00416425,-0.01390135,-0.08130652,0.
 45916093,0.18670416,0.14557984,-0.32746849,0.01077784,0.00569335,-0.01
 030829,-0.00125268,0.00076790,-0.00201260,-0.20083864,-0.30562234,0.60
 007185,0.00879419,-0.01337620,0.01217465,0.00011392,0.00125959,0.00528
 492,-0.00036417,-0.00181160,-0.00172477,-0.06825711,0.05736486,-0.0426
 9809,0.08747666,0.00403807,-0.00272470,0.00709114,0.00172364,0.0048822
 1,0.00475097,-0.00209364,-0.00211922,-0.00278590,0.06108644,-0.2039316
 1,0.13580676,-0.07636655,0.20987215,-0.00665478,0.01844522,-0.00823628
 ,0.00493990,0.00428853,0.00160676,-0.00146264,-0.00273128,-0.00183736,
 -0.04695202,0.13775714,-0.15996609,0.04268902,-0.14925892,0.15845533,-
 0.04327827,0.01061450,0.02452030,-0.00042987,-0.00142239,-0.00239262,0
 .00190011,0.00019269,0.00520284,-0.25359500,0.06362612,0.07658636,-0.0
 2457697,0.01096275,0.00463984,0.44508266,-0.00112303,0.01563351,-0.005
 13888,-0.00040618,-0.00195574,-0.00329898,0.00161061,0.00508507,0.0064
 9162,0.07602316,-0.09251731,0.00749760,0.03047645,-0.00902761,-0.00863
 363,-0.17072183,0.24115504,0.03507965,-0.01045804,-0.00187915,-0.00244
 531,-0.00234949,-0.00005772,0.00438869,0.00598605,0.00069071,0.0540936
 3,0.01949089,-0.10318825,-0.01886250,0.00510962,0.00786352,-0.03618285
 ,-0.09990803,0.24658124,0.00345765,-0.00010296,-0.00205106,-0.00139803
 ,0.00072118,-0.00037549,0.00084697,0.00042317,-0.00106157,-0.03491122,
 0.02959605,-0.02078781,-0.00203618,0.00052702,0.00268096,-0.10528995,0
 .02892178,-0.01433312,0.56528435,-0.00780784,0.00173836,0.00152402,-0.
 00044748,-0.00065398,-0.00026502,-0.00061199,-0.00040523,0.00121295,0.
 02124255,-0.01652784,0.00361546,0.00107914,0.00359076,0.00030589,0.045
 34058,-0.11537589,0.04854933,0.01402567,0.46084634,0.00674431,-0.00440
 976,-0.00166667,0.00013267,-0.00018237,-0.00135658,0.00095571,0.001610
 02,-0.00034244,-0.01178591,-0.00416051,0.00782761,0.00454097,-0.001227
 40,0.00177652,-0.03511111,0.06150582,-0.13010804,-0.04208736,0.0285771
 8,0.54467418,-0.00019522,0.00019100,0.00016023,0.00014623,-0.00000941,
 0.00005016,-0.00006260,-0.00002807,0.00008523,0.00129947,-0.00042408,-
 0.00370708,-0.00072709,0.00025255,0.00010588,-0.02221165,0.00933858,-0
 .00158684,-0.28389957,-0.04477686,0.04978698,0.31523105,0.00062208,-0.
 00032463,-0.00004272,-0.00014919,0.00001603,-0.00016958,0.00000751,0.0
 0001323,-0.00018713,0.00140294,-0.00074345,0.00358330,0.00080925,-0.00
 042747,-0.00016149,0.03238434,-0.00429697,0.00019618,-0.05679214,-0.05
 466427,0.01059569,0.04503952,0.06845169,0.00017542,0.00024069,0.000453
 01,-0.00020643,-0.00069248,-0.00002294,0.00013637,0.00005987,0.0005702
 8,0.00030107,0.00056123,-0.00359281,-0.00062073,0.00042510,0.00034964,
 -0.02880007,0.00454630,0.00187057,0.05695650,0.00848970,-0.06012506,-0
 .04890071,-0.01392645,0.06265941,-0.00095893,-0.00081615,0.00106705,-0
 .00269877,-0.00061132,-0.00062942,0.00043765,0.00035478,0.00052725,0.0
 0393666,-0.00104537,-0.00416962,0.00015996,0.00014294,0.00039833,-0.00
 157850,0.00252720,-0.02228602,-0.05950572,0.01185939,0.05004385,-0.004
 91381,0.00700205,0.03031775,0.06283157,0.00057021,0.00087733,-0.001877
 79,0.00022762,0.00021483,0.00045353,-0.00005950,-0.00032236,-0.0000371
 9,-0.00410807,0.00179857,0.00260766,-0.00022493,-0.00027354,-0.0002015
 5,0.00366221,-0.00247977,0.03000127,0.01329564,-0.06304590,-0.05928309
 ,-0.00157067,0.00303646,0.00613549,-0.01417977,0.07114906,-0.00049026,
 0.00035390,0.00069332,0.00033451,-0.00057614,0.00067522,-0.00004900,-0
 .00042881,0.00029412,0.00583236,-0.00143271,-0.00018806,-0.00018229,0.
 00017925,0.00012102,-0.00788277,0.00926358,-0.02608519,0.04406335,-0.0
 5248022,-0.27314514,0.00282904,-0.00196214,-0.00493263,-0.04607837,0.0
 5284252,0.30607214,-0.00021710,-0.00053708,0.00102012,-0.00005459,0.00
 071821,0.00055247,-0.00017213,-0.00021803,-0.00020657,0.00385626,0.002
 14572,-0.00151052,-0.00077898,-0.00018181,-0.00025845,0.00226417,0.024
 72853,0.00100755,-0.08906116,-0.02996822,-0.01312482,-0.00583373,-0.03
 286564,-0.01003626,0.00217822,0.00342235,0.00057081,0.42748979,-0.0003
 7002,-0.00102927,0.00011516,0.00043370,0.00035532,-0.00025074,-0.00011
 632,0.00010317,-0.00014817,-0.00141175,-0.00116459,-0.00052310,0.00026
 766,0.00038248,0.00025505,0.00429900,-0.03117616,0.00651396,-0.0231287
 5,-0.19324083,-0.02435351,-0.00662841,-0.00803813,-0.00525812,-0.00481
 786,-0.00737783,-0.00464018,0.04659056,0.57191404,-0.00124442,-0.00079
 138,0.00079687,0.00030199,0.00013766,0.00083957,-0.00011755,-0.0004606
 0,-0.00013919,0.00513797,0.00016121,-0.00209059,-0.00082693,-0.0000496
 1,-0.00006120,-0.00224135,0.02991417,0.00252917,-0.01381115,-0.0301066
 1,-0.09116138,0.00009610,0.00242009,0.00269683,-0.01000061,-0.03266438
 ,-0.00497012,0.34998374,0.03907278,0.57678500,-0.00004609,-0.00006958,
 -0.00000082,-0.00005464,0.00010833,-0.00002956,0.00001403,0.00001578,0
 .00004524,0.00010301,-0.00070838,-0.00000546,0.00008854,-0.00008145,-0
 .00004999,0.00108557,-0.00128611,-0.00037254,0.00457055,-0.00375619,0.
 00287259,-0.00004337,0.00127093,0.00020785,0.00021123,-0.00000583,-0.0
 0017017,-0.10306465,0.08019256,-0.08324842,0.10093453,0.00057858,0.000
 15005,-0.00057993,0.00000169,-0.00011964,-0.00009906,0.00007015,0.0000
 8141,-0.00001763,-0.00280681,0.00016151,0.00120460,0.00038299,-0.00002
 271,0.00000962,0.00056965,-0.00729341,-0.00103373,0.01556086,-0.012821
 17,0.01859118,-0.00101249,0.00041590,0.00014190,0.00042018,0.00068423,
 -0.00087816,0.08211770,-0.17409204,0.10696962,-0.08761477,0.18114001,0
 .00019088,0.00020642,-0.00006608,0.00002642,-0.00003322,-0.00007381,-0
 .00000003,-0.00000791,-0.00003122,-0.00049469,0.00011157,0.00036106,0.
 00011829,0.00001973,0.00001659,-0.00034339,-0.00263345,0.00095867,0.00
 208373,-0.00429907,0.00442620,-0.00017533,0.00011221,0.00014667,0.0003
 7939,0.00103531,0.00038297,-0.08306039,0.10473889,-0.14476465,0.097662
 09,-0.11385585,0.15017724,0.00059052,0.00097189,-0.00003176,-0.0002570
 2,-0.00008900,-0.00049303,0.00002409,0.00018836,-0.00007486,-0.0024278
 1,0.00107776,0.00140102,0.00005023,-0.00002787,-0.00005135,0.00077383,
 -0.00088225,-0.00060998,0.00007922,-0.00828234,-0.00726814,0.00136655,
 0.00055344,0.00045348,0.00022093,0.00066048,0.00121269,-0.23194709,-0.
 08754139,-0.22802026,-0.00494465,-0.00667789,-0.01333726,0.39257660,0.
 00086823,0.00003517,-0.00007648,-0.00006843,-0.00022316,-0.00004145,-0
 .00000885,-0.00011682,-0.00013010,-0.00136643,0.00008916,0.00063656,0.
 00013436,-0.00013069,-0.00008107,0.00092841,0.00230188,-0.00146393,-0.
 02224151,-0.01068143,-0.02639485,-0.00042197,-0.00319262,-0.00070411,-
 0.00087393,-0.00407734,-0.00044070,-0.09105533,-0.16209626,-0.10876535
 ,0.01378351,0.01054493,0.01683936,0.05167928,0.67383359,-0.00022412,-0
 .00033428,0.00002009,0.00001764,0.00000492,-0.00008729,-0.00002196,0.0
 0001936,-0.00004809,-0.00010292,0.00030600,0.00014355,0.00001901,0.000
 03411,-0.00000749,-0.00016736,0.00000393,-0.00077909,-0.00563806,-0.00
 892654,0.00007367,0.00133807,0.00099102,0.00023007,0.00050251,0.000859
 20,0.00115316,-0.22782789,-0.10489722,-0.32864096,-0.01378044,-0.00849
 853,-0.01143678,0.35599398,0.04485269,0.54707049,-0.00039606,-0.000186
 62,0.00019698,0.00004468,0.00002007,0.00008788,-0.00002091,-0.00001638
 ,0.00004713,0.00145070,-0.00042532,-0.00054232,0.00002667,0.00006137,-
 0.00001771,-0.00042235,0.00056127,0.00163456,-0.00448422,0.00166588,0.
 00337096,-0.00042768,-0.00092492,-0.00055026,0.00042288,0.00072807,0.0
 0047274,-0.00453831,0.01294957,-0.01300030,0.00557864,-0.00175558,-0.0
 0762624,-0.10887872,0.08371395,-0.09371817,0.10709613,-0.00028248,-0.0
 0016905,0.00022457,-0.00000904,0.00000887,0.00005549,-0.00000590,0.000
 01186,0.00006006,0.00093410,-0.00102630,-0.00108171,-0.00002880,-0.000
 06808,-0.00000155,-0.00069720,-0.00005722,-0.00025572,-0.00039668,-0.0
 0052371,-0.00047307,0.00017193,0.00006397,0.00011724,0.00018588,0.0001
 0203,0.00027156,-0.00482516,0.01235929,-0.00626199,-0.00185620,-0.0001
 2911,-0.00190285,0.08644966,-0.17231735,0.11193364,-0.09289285,0.17462
 850,0.00021199,0.00049491,-0.00000887,-0.00011210,-0.00008202,-0.00021
 291,0.00000098,0.00005847,0.00007266,-0.00006819,-0.00075650,0.0003285
 5,0.00003974,-0.00004215,-0.00005500,0.00108418,-0.00017776,0.00062882
 ,0.00332220,0.00207322,-0.00308625,0.00040825,0.00069058,0.00034491,-0
 .00033825,-0.00063011,-0.00018257,-0.01281487,0.01533515,-0.01065906,-
 0.00770353,-0.00189258,0.00231039,-0.09315634,0.10843738,-0.15566917,0
 .10667002,-0.11972615,0.16084864,-0.00007779,0.00012293,0.00001199,-0.
 00004106,-0.00001873,-0.00002148,0.00002472,0.00004416,0.00005993,0.00
 004299,-0.00015548,0.00004284,0.00003034,-0.00004344,-0.00000698,0.000
 27622,0.00023183,0.00047510,0.00634731,0.00043771,-0.00907071,0.000271
 43,0.00163984,0.00056602,-0.00074335,-0.00241781,-0.00046264,-0.000120
 69,-0.02071857,-0.00300878,-0.00443270,0.00016573,0.00457652,-0.047226
 67,-0.03507129,-0.01639027,0.00454858,0.01325274,0.00245593,0.04110069
 ,0.00016188,-0.00004165,-0.00012591,-0.00001764,-0.00001044,0.00003860
 ,0.00001295,-0.00003094,-0.00003874,-0.00066051,0.00035366,0.00023409,
 0.00003378,-0.00000196,0.00000804,0.00026118,0.00000457,-0.00037835,-0
 .00040934,0.00176479,-0.00039531,-0.00012163,-0.00030973,-0.00013637,-
 0.00014803,-0.00028575,-0.00007174,-0.00007179,-0.00689918,0.00042438,
 0.00000740,0.00130004,-0.00033115,-0.03808012,-0.33396907,-0.03634830,
 -0.00349851,-0.01288370,-0.00378245,0.04253038,0.35100938,0.00022554,0
 .00004526,-0.00009311,-0.00002498,-0.00005087,0.00001884,-0.00000539,-
 0.00004556,-0.00002400,-0.00015433,-0.00006746,0.00008257,0.00004872,-
 0.00005269,-0.00002596,0.00108800,0.00056769,0.00097475,-0.00896110,0.
 00172969,0.00221339,-0.00048998,-0.00213956,-0.00064795,0.00026617,0.0
 0075912,0.00011178,-0.00429493,-0.02595995,-0.00116027,0.00457317,-0.0
 0006144,-0.00240726,-0.01601818,-0.03266794,-0.05202217,0.00297474,0.0
 1704049,0.00533988,0.02077254,0.04090321,0.04763952\\-0.00002655,0.000
 03214,0.00003357,0.00001299,-0.00003051,0.00000283,0.00000386,0.000006
 36,-0.00000610,0.00001496,-0.00002262,-0.00003172,-0.00000331,0.000002
 08,-0.00000003,-0.00000976,-0.00000805,0.00000847,0.00000539,0.0000030
 1,-0.00001599,0.00000388,-0.00000348,0.00000412,-0.00000471,0.00000114
 ,-0.00000242,0.00002436,0.00000923,0.00001019,0.00000066,0.00000302,0.
 00000023,-0.00000126,-0.00000787,0.00000165,-0.00001224,0.00001607,-0.
 00001071,-0.00000826,-0.00000051,0.00000590\\\@


 COMMON SENSE IS NOT SO COMMON.   -- VOLTAIRE
 Job cpu time:       0 days  0 hours  8 minutes 39.0 seconds.
 Elapsed time:       0 days  0 hours  0 minutes 22.4 seconds.
 File lengths (MBytes):  RWF=    344 Int=      0 D2E=      0 Chk=      8 Scr=      8
 Normal termination of Gaussian 16 at Tue Oct 15 00:49:02 2019.
