 Entering Gaussian System, Link 0=g16
 Input=R2.gjf
 Output=R2.log
 Initial command:
 /home/soft/g16/l1.exe "/tmp/gaussian/Gau-205282.inp" -scrdir="/tmp/gaussian/"
 Entering Link 1 = /home/soft/g16/l1.exe PID=    205284.
  
 Copyright (c) 1988,1990,1992,1993,1995,1998,2003,2009,2016,
            Gaussian, Inc.  All Rights Reserved.
  
 This is part of the Gaussian(R) 16 program.  It is based on
 the Gaussian(R) 09 system (copyright 2009, Gaussian, Inc.),
 the Gaussian(R) 03 system (copyright 2003, Gaussian, Inc.),
 the Gaussian(R) 98 system (copyright 1998, Gaussian, Inc.),
 the Gaussian(R) 94 system (copyright 1995, Gaussian, Inc.),
 the Gaussian 92(TM) system (copyright 1992, Gaussian, Inc.),
 the Gaussian 90(TM) system (copyright 1990, Gaussian, Inc.),
 the Gaussian 88(TM) system (copyright 1988, Gaussian, Inc.),
 the Gaussian 86(TM) system (copyright 1986, Carnegie Mellon
 University), and the Gaussian 82(TM) system (copyright 1983,
 Carnegie Mellon University). Gaussian is a federally registered
 trademark of Gaussian, Inc.
  
 This software contains proprietary and confidential information,
 including trade secrets, belonging to Gaussian, Inc.
  
 This software is provided under written license and may be
 used, copied, transmitted, or stored only in accord with that
 written license.
  
 The following legend is applicable only to US Government
 contracts under FAR:
  
                    RESTRICTED RIGHTS LEGEND
  
 Use, reproduction and disclosure by the US Government is
 subject to restrictions as set forth in subparagraphs (a)
 and (c) of the Commercial Computer Software - Restricted
 Rights clause in FAR 52.227-19.
  
 Gaussian, Inc.
 340 Quinnipiac St., Bldg. 40, Wallingford CT 06492
  
  
 ---------------------------------------------------------------
 Warning -- This program may not be used in any manner that
 competes with the business of Gaussian, Inc. or will provide
 assistance to any competitor of Gaussian, Inc.  The licensee
 of this program is prohibited from giving any competitor of
 Gaussian, Inc. access to this program.  By using this program,
 the user acknowledges that Gaussian, Inc. is engaged in the
 business of creating and licensing software in the field of
 computational chemistry and represents and warrants to the
 licensee that it is not a competitor of Gaussian, Inc. and that
 it will not use this program in any manner prohibited above.
 ---------------------------------------------------------------
  

 Cite this work as:
 Gaussian 16, Revision A.03,
 M. J. Frisch, G. W. Trucks, H. B. Schlegel, G. E. Scuseria, 
 M. A. Robb, J. R. Cheeseman, G. Scalmani, V. Barone, 
 G. A. Petersson, H. Nakatsuji, X. Li, M. Caricato, A. V. Marenich, 
 J. Bloino, B. G. Janesko, R. Gomperts, B. Mennucci, H. P. Hratchian, 
 J. V. Ortiz, A. F. Izmaylov, J. L. Sonnenberg, D. Williams-Young, 
 F. Ding, F. Lipparini, F. Egidi, J. Goings, B. Peng, A. Petrone, 
 T. Henderson, D. Ranasinghe, V. G. Zakrzewski, J. Gao, N. Rega, 
 G. Zheng, W. Liang, M. Hada, M. Ehara, K. Toyota, R. Fukuda, 
 J. Hasegawa, M. Ishida, T. Nakajima, Y. Honda, O. Kitao, H. Nakai, 
 T. Vreven, K. Throssell, J. A. Montgomery, Jr., J. E. Peralta, 
 F. Ogliaro, M. J. Bearpark, J. J. Heyd, E. N. Brothers, K. N. Kudin, 
 V. N. Staroverov, T. A. Keith, R. Kobayashi, J. Normand, 
 K. Raghavachari, A. P. Rendell, J. C. Burant, S. S. Iyengar, 
 J. Tomasi, M. Cossi, J. M. Millam, M. Klene, C. Adamo, R. Cammi, 
 J. W. Ochterski, R. L. Martin, K. Morokuma, O. Farkas, 
 J. B. Foresman, and D. J. Fox, Gaussian, Inc., Wallingford CT, 2016.
 
 ******************************************
 Gaussian 16:  ES64L-G16RevA.03 25-Dec-2016
                15-Oct-2019 
 ******************************************
 %chk=R2.chk
 %nproc=24
 Will use up to   24 processors via shared memory.
 --------------------------------
 #p b3lyp/6-31+g* opt=calcfc freq
 --------------------------------
 1/10=4,18=20,19=15,26=3,38=1/1,3;
 2/9=110,12=2,17=6,18=5,40=1/2;
 3/5=1,6=6,7=11,11=2,25=1,30=1,71=2,74=-5,140=1/1,2,3;
 4//1;
 5/5=2,38=5/2;
 8/6=4,10=90,11=11/1;
 11/6=1,8=1,9=11,15=111,16=1/1,2,10;
 10/6=1,13=1/2;
 6/7=2,8=2,9=2,10=2,28=1/1;
 7/10=1,18=20,25=1/1,2,3,16;
 1/10=4,18=20,19=15,26=3/3(2);
 2/9=110/2;
 99//99;
 2/9=110/2;
 3/5=1,6=6,7=11,11=2,25=1,30=1,71=1,74=-5/1,2,3;
 4/5=5,16=3,69=1/1;
 5/5=2,38=5/2;
 7//1,2,3,16;
 1/18=20,19=15,26=3/3(-5);
 2/9=110/2;
 6/7=2,8=2,9=2,10=2,19=2,28=1/1;
 99/9=1/99;
 Leave Link    1 at Tue Oct 15 01:30:37 2019, MaxMem=           0 cpu:               2.3 elap:               0.1
 (Enter /home/soft/g16/l101.exe)
 -------------------
 Title Card Required
 -------------------
 Symbolic Z-matrix:
 Charge =  0 Multiplicity = 1
 C                    -3.86268  -1.38757  -0.13749 
 H                    -3.45915  -2.21884  -0.67697 
 H                    -4.89591  -1.38091   0.14051 
 C                    -3.06514  -0.34315   0.19368 
 H                    -3.48976   0.53728   0.62894 
 O                    -1.69659  -0.41558  -0.03188 
 C                    -1.12034  -1.38972   0.84213 
 H                    -0.06602  -1.44553   0.66835 
 H                    -1.29986  -1.10757   1.85852 
 C                    -1.75883  -2.76457   0.57061 
 H                    -1.2541   -3.70733   0.53369 
 C                    -3.11317  -2.72145   0.59247 
 H                    -3.61603  -1.79533   0.77778 
 H                    -3.67962  -3.61352   0.42443 
 
 ITRead=  0  0  0  0  0  0  0  0  0  0  0  0  0  0
 MicOpt= -1 -1 -1 -1 -1 -1 -1 -1 -1 -1 -1 -1 -1 -1
 NAtoms=     14 NQM=       14 NQMF=       0 NMMI=      0 NMMIF=      0
                NMic=       0 NMicF=      0.
                    Isotopes and Nuclear Properties:
 (Nuclear quadrupole moments (NQMom) in fm**2, nuclear magnetic moments (NMagM)
  in nuclear magnetons)

  Atom         1           2           3           4           5           6           7           8           9          10
 IAtWgt=          12           1           1          12           1          16          12           1           1          12
 AtmWgt=  12.0000000   1.0078250   1.0078250  12.0000000   1.0078250  15.9949146  12.0000000   1.0078250   1.0078250  12.0000000
 NucSpn=           0           1           1           0           1           0           0           1           1           0
 AtZEff=  -0.0000000  -0.0000000  -0.0000000  -0.0000000  -0.0000000  -0.0000000  -0.0000000  -0.0000000  -0.0000000  -0.0000000
 NQMom=    0.0000000   0.0000000   0.0000000   0.0000000   0.0000000   0.0000000   0.0000000   0.0000000   0.0000000   0.0000000
 NMagM=    0.0000000   2.7928460   2.7928460   0.0000000   2.7928460   0.0000000   0.0000000   2.7928460   2.7928460   0.0000000
 AtZNuc=   6.0000000   1.0000000   1.0000000   6.0000000   1.0000000   8.0000000   6.0000000   1.0000000   1.0000000   6.0000000

  Atom        11          12          13          14
 IAtWgt=           1          12           1           1
 AtmWgt=   1.0078250  12.0000000   1.0078250   1.0078250
 NucSpn=           1           0           1           1
 AtZEff=  -0.0000000  -0.0000000  -0.0000000  -0.0000000
 NQMom=    0.0000000   0.0000000   0.0000000   0.0000000
 NMagM=    2.7928460   0.0000000   2.7928460   2.7928460
 AtZNuc=   1.0000000   6.0000000   1.0000000   1.0000000
 Leave Link  101 at Tue Oct 15 01:30:37 2019, MaxMem=   280000000 cpu:               4.7 elap:               0.2
 (Enter /home/soft/g16/l103.exe)

 GradGradGradGradGradGradGradGradGradGradGradGradGradGradGradGradGradGrad
 Berny optimization.
 Initialization pass.
                           ----------------------------
                           !    Initial Parameters    !
                           ! (Angstroms and Degrees)  !
 --------------------------                            --------------------------
 ! Name  Definition              Value          Derivative Info.                !
 --------------------------------------------------------------------------------
 ! R1    R(1,2)                  1.07           calculate D2E/DX2 analytically  !
 ! R2    R(1,3)                  1.07           calculate D2E/DX2 analytically  !
 ! R3    R(1,4)                  1.3552         calculate D2E/DX2 analytically  !
 ! R4    R(1,12)                 1.6952         calculate D2E/DX2 analytically  !
 ! R5    R(1,13)                 1.0319         calculate D2E/DX2 analytically  !
 ! R6    R(4,5)                  1.07           calculate D2E/DX2 analytically  !
 ! R7    R(4,6)                  1.3889         calculate D2E/DX2 analytically  !
 ! R8    R(6,7)                  1.43           calculate D2E/DX2 analytically  !
 ! R9    R(7,8)                  1.07           calculate D2E/DX2 analytically  !
 ! R10   R(7,9)                  1.07           calculate D2E/DX2 analytically  !
 ! R11   R(7,10)                 1.54           calculate D2E/DX2 analytically  !
 ! R12   R(10,11)                1.07           calculate D2E/DX2 analytically  !
 ! R13   R(10,12)                1.3552         calculate D2E/DX2 analytically  !
 ! R14   R(12,13)                1.07           calculate D2E/DX2 analytically  !
 ! R15   R(12,14)                1.07           calculate D2E/DX2 analytically  !
 ! A1    A(2,1,3)              120.0            calculate D2E/DX2 analytically  !
 ! A2    A(2,1,4)              120.0            calculate D2E/DX2 analytically  !
 ! A3    A(2,1,12)              55.8798         calculate D2E/DX2 analytically  !
 ! A4    A(2,1,13)              92.8693         calculate D2E/DX2 analytically  !
 ! A5    A(3,1,4)              120.0            calculate D2E/DX2 analytically  !
 ! A6    A(3,1,12)             108.66           calculate D2E/DX2 analytically  !
 ! A7    A(3,1,13)              90.1616         calculate D2E/DX2 analytically  !
 ! A8    A(4,1,12)             103.9443         calculate D2E/DX2 analytically  !
 ! A9    A(4,1,13)              86.9688         calculate D2E/DX2 analytically  !
 ! A10   A(1,4,5)              120.0            calculate D2E/DX2 analytically  !
 ! A11   A(1,4,6)              120.0            calculate D2E/DX2 analytically  !
 ! A12   A(5,4,6)              120.0            calculate D2E/DX2 analytically  !
 ! A13   A(4,6,7)              109.4712         calculate D2E/DX2 analytically  !
 ! A14   A(6,7,8)              109.4712         calculate D2E/DX2 analytically  !
 ! A15   A(6,7,9)              109.4712         calculate D2E/DX2 analytically  !
 ! A16   A(6,7,10)             109.4712         calculate D2E/DX2 analytically  !
 ! A17   A(8,7,9)              109.4712         calculate D2E/DX2 analytically  !
 ! A18   A(8,7,10)             109.4712         calculate D2E/DX2 analytically  !
 ! A19   A(9,7,10)             109.4712         calculate D2E/DX2 analytically  !
 ! A20   A(7,10,11)            126.6629         calculate D2E/DX2 analytically  !
 ! A21   A(7,10,12)            112.525          calculate D2E/DX2 analytically  !
 ! A22   A(11,10,12)           120.0            calculate D2E/DX2 analytically  !
 ! A23   A(1,12,10)            117.383          calculate D2E/DX2 analytically  !
 ! A24   A(1,12,14)            110.751          calculate D2E/DX2 analytically  !
 ! A25   A(10,12,13)           120.0            calculate D2E/DX2 analytically  !
 ! A26   A(10,12,14)           120.0            calculate D2E/DX2 analytically  !
 ! A27   A(13,12,14)           120.0            calculate D2E/DX2 analytically  !
 ! D1    D(2,1,4,5)            172.7517         calculate D2E/DX2 analytically  !
 ! D2    D(2,1,4,6)             -7.2483         calculate D2E/DX2 analytically  !
 ! D3    D(3,1,4,5)             -7.2483         calculate D2E/DX2 analytically  !
 ! D4    D(3,1,4,6)            172.7517         calculate D2E/DX2 analytically  !
 ! D5    D(12,1,4,5)          -128.8506         calculate D2E/DX2 analytically  !
 ! D6    D(12,1,4,6)            51.1494         calculate D2E/DX2 analytically  !
 ! D7    D(13,1,4,5)           -95.6833         calculate D2E/DX2 analytically  !
 ! D8    D(13,1,4,6)            84.3167         calculate D2E/DX2 analytically  !
 ! D9    D(2,1,12,10)           78.0862         calculate D2E/DX2 analytically  !
 ! D10   D(2,1,12,14)          -64.8923         calculate D2E/DX2 analytically  !
 ! D11   D(3,1,12,10)         -167.7932         calculate D2E/DX2 analytically  !
 ! D12   D(3,1,12,14)           49.2283         calculate D2E/DX2 analytically  !
 ! D13   D(4,1,12,10)          -38.9187         calculate D2E/DX2 analytically  !
 ! D14   D(4,1,12,14)          178.1028         calculate D2E/DX2 analytically  !
 ! D15   D(1,4,6,7)            -68.0537         calculate D2E/DX2 analytically  !
 ! D16   D(5,4,6,7)            111.9463         calculate D2E/DX2 analytically  !
 ! D17   D(4,6,7,8)           -180.0            calculate D2E/DX2 analytically  !
 ! D18   D(4,6,7,9)            -60.0            calculate D2E/DX2 analytically  !
 ! D19   D(4,6,7,10)            60.0            calculate D2E/DX2 analytically  !
 ! D20   D(6,7,10,11)          138.9291         calculate D2E/DX2 analytically  !
 ! D21   D(6,7,10,12)          -51.4923         calculate D2E/DX2 analytically  !
 ! D22   D(8,7,10,11)           18.9291         calculate D2E/DX2 analytically  !
 ! D23   D(8,7,10,12)         -171.4923         calculate D2E/DX2 analytically  !
 ! D24   D(9,7,10,11)         -101.0709         calculate D2E/DX2 analytically  !
 ! D25   D(9,7,10,12)           68.5077         calculate D2E/DX2 analytically  !
 ! D26   D(7,10,12,1)           40.9565         calculate D2E/DX2 analytically  !
 ! D27   D(7,10,12,13)           0.4027         calculate D2E/DX2 analytically  !
 ! D28   D(7,10,12,14)        -179.5971         calculate D2E/DX2 analytically  !
 ! D29   D(11,10,12,1)        -148.6888         calculate D2E/DX2 analytically  !
 ! D30   D(11,10,12,13)        170.7574         calculate D2E/DX2 analytically  !
 ! D31   D(11,10,12,14)         -9.2424         calculate D2E/DX2 analytically  !
 --------------------------------------------------------------------------------
 Trust Radius=3.00D-01 FncErr=1.00D-07 GrdErr=1.00D-06 EigMax=2.50D+02 EigMin=1.00D-04
 Number of steps in this run=     83 maximum allowed number of steps=    100.
 GradGradGradGradGradGradGradGradGradGradGradGradGradGradGradGradGradGrad

 Leave Link  103 at Tue Oct 15 01:30:37 2019, MaxMem=   280000000 cpu:               0.4 elap:               0.0
 (Enter /home/soft/g16/l202.exe)
                          Input orientation:                          
 ---------------------------------------------------------------------
 Center     Atomic      Atomic             Coordinates (Angstroms)
 Number     Number       Type             X           Y           Z
 ---------------------------------------------------------------------
      1          6           0       -3.862680   -1.387567   -0.137491
      2          1           0       -3.459147   -2.218845   -0.676971
      3          1           0       -4.895913   -1.380914    0.140510
      4          6           0       -3.065137   -0.343145    0.193683
      5          1           0       -3.489756    0.537283    0.628935
      6          8           0       -1.696592   -0.415581   -0.031880
      7          6           0       -1.120342   -1.389722    0.842125
      8          1           0       -0.066023   -1.445526    0.668353
      9          1           0       -1.299857   -1.107567    1.858523
     10          6           0       -1.758830   -2.764573    0.570614
     11          1           0       -1.254104   -3.707328    0.533685
     12          6           0       -3.113168   -2.721449    0.592472
     13          1           0       -3.616029   -1.795333    0.777778
     14          1           0       -3.679625   -3.613518    0.424427
 ---------------------------------------------------------------------
                    Distance matrix (angstroms):
                    1          2          3          4          5
     1  C    0.000000
     2  H    1.070000   0.000000
     3  H    1.070000   1.853294   0.000000
     4  C    1.355200   2.105120   2.105120   0.000000
     5  H    2.105120   3.050012   2.428028   1.070000   0.000000
     6  O    2.376520   2.602787   3.346228   1.388900   2.135431
     7  C    2.912056   2.909485   3.840218   2.301745   3.061523
     8  H    3.881668   3.731113   4.859077   3.230362   3.956644
     9  H    3.260450   3.510869   3.994735   2.544061   3.002178
    10  C    2.612229   2.178385   3.455545   2.777017   3.728506
    11  H    3.554776   2.922924   4.339304   3.835775   4.798326
    12  C    1.695245   1.408473   2.275848   2.411984   3.280623
    13  H    1.031904   1.523242   1.488608   1.659366   2.340769
    14  H    2.303067   1.790754   2.558220   3.335593   4.160172
                    6          7          8          9         10
     6  O    0.000000
     7  C    1.430000   0.000000
     8  H    2.051796   1.070000   0.000000
     9  H    2.051796   1.070000   1.747303   0.000000
    10  C    2.425826   1.540000   2.148263   2.148263   0.000000
    11  H    3.369162   2.341863   2.558401   2.918226   1.070000
    12  C    2.777325   2.409809   3.304365   2.737809   1.355200
    13  H    2.498700   2.529252   3.568877   2.646826   2.105120
    14  H    3.790441   3.416090   4.221115   3.741620   2.105120
                   11         12         13         14
    11  H    0.000000
    12  C    2.105120   0.000000
    13  H    3.048606   1.070000   0.000000
    14  H    2.429792   1.070000   1.853294   0.000000
 Stoichiometry    C5H8O
 Framework group  C1[X(C5H8O)]
 Deg. of freedom    36
 Full point group                 C1      NOp   1
 Largest Abelian subgroup         C1      NOp   1
 Largest concise Abelian subgroup C1      NOp   1
                         Standard orientation:                         
 ---------------------------------------------------------------------
 Center     Atomic      Atomic             Coordinates (Angstroms)
 Number     Number       Type             X           Y           Z
 ---------------------------------------------------------------------
      1          6           0        1.486739   -0.056217   -0.185600
      2          1           0        1.149030    0.654315   -0.910857
      3          1           0        2.437976    0.072708    0.287079
      4          6           0        0.709679   -1.119424    0.134299
      5          1           0        1.092866   -1.890159    0.769938
      6          8           0       -0.584094   -1.208629   -0.362930
      7          6           0       -1.392943   -0.187540    0.227018
      8          1           0       -2.389658   -0.256263   -0.156045
      9          1           0       -1.409524   -0.314911    1.289280
     10          6           0       -0.805624    1.194324   -0.115195
     11          1           0       -1.353739    2.071338   -0.389632
     12          6           0        0.514544    1.284267    0.177438
     13          1           0        1.028967    0.443029    0.592875
     14          1           0        1.042461    2.196519   -0.006949
 ---------------------------------------------------------------------
 Rotational constants (GHZ):           5.2184697           5.0524604           2.7784321
 Leave Link  202 at Tue Oct 15 01:30:37 2019, MaxMem=   280000000 cpu:               1.3 elap:               0.1
 (Enter /home/soft/g16/l301.exe)
 Standard basis: 6-31+G(d) (6D, 7F)
 Ernie: Thresh=  0.10000D-02 Tol=  0.10000D-05 Strict=F.
 There are   130 symmetry adapted cartesian basis functions of A   symmetry.
 There are   130 symmetry adapted basis functions of A   symmetry.
   130 basis functions,   224 primitive gaussians,   130 cartesian basis functions
    23 alpha electrons       23 beta electrons
       nuclear repulsion energy       246.6666518301 Hartrees.
 IExCor=  402 DFT=T Ex+Corr=B3LYP ExCW=0 ScaHFX=  0.200000
 ScaDFX=  0.800000  0.720000  1.000000  0.810000 ScalE2=  1.000000  1.000000
 IRadAn=      5 IRanWt=     -1 IRanGd=            0 ICorTp=0 IEmpDi=  4
 NAtoms=   14 NActive=   14 NUniq=   14 SFac= 1.00D+00 NAtFMM=   60 NAOKFM=F Big=F
 Integral buffers will be    131072 words long.
 Raffenetti 2 integral format.
 Two-electron integral symmetry is turned on.
 Leave Link  301 at Tue Oct 15 01:30:37 2019, MaxMem=   280000000 cpu:               2.3 elap:               0.1
 (Enter /home/soft/g16/l302.exe)
 NPDir=0 NMtPBC=     1 NCelOv=     1 NCel=       1 NClECP=     1 NCelD=      1
         NCelK=      1 NCelE2=     1 NClLst=     1 CellRange=     0.0.
 One-electron integrals computed using PRISM.
 One-electron integral symmetry used in STVInt
 NBasis=   130 RedAO= T EigKep=  5.77D-05  NBF=   130
 NBsUse=   130 1.00D-06 EigRej= -1.00D+00 NBFU=   130
 Precomputing XC quadrature grid using
 IXCGrd= 4 IRadAn=           5 IRanWt=          -1 IRanGd=           0 AccXCQ= 0.00D+00.
 Generated NRdTot=       0 NPtTot=           0 NUsed=           0 NTot=          32
 NSgBfM=   130   130   130   130   130 MxSgAt=    14 MxSgA2=    14.
 Leave Link  302 at Tue Oct 15 01:30:38 2019, MaxMem=   280000000 cpu:               4.8 elap:               0.3
 (Enter /home/soft/g16/l303.exe)
 DipDrv:  MaxL=1.
 Leave Link  303 at Tue Oct 15 01:30:38 2019, MaxMem=   280000000 cpu:               1.5 elap:               0.1
 (Enter /home/soft/g16/l401.exe)
 ExpMin= 4.38D-02 ExpMax= 5.48D+03 ExpMxC= 8.25D+02 IAcc=3 IRadAn=         5 AccDes= 0.00D+00
 Harris functional with IExCor=  402 and IRadAn=       5 diagonalized for initial guess.
 HarFok:  IExCor=  402 AccDes= 0.00D+00 IRadAn=         5 IDoV= 1 UseB2=F ITyADJ=14
 ICtDFT=  3500011 ScaDFX=  1.000000  1.000000  1.000000  1.000000
 FoFCou: FMM=F IPFlag=           0 FMFlag=      100000 FMFlg1=           0
         NFxFlg=           0 DoJE=T BraDBF=F KetDBF=T FulRan=T
         wScrn=  0.000000 ICntrl=       500 IOpCl=  0 I1Cent=   200000004 NGrid=           0
         NMat0=    1 NMatS0=      1 NMatT0=    0 NMatD0=    1 NMtDS0=    0 NMtDT0=    0
 Petite list used in FoFCou.
 Harris En= -270.265644561570    
 JPrj=0 DoOrth=F DoCkMO=F.
 Leave Link  401 at Tue Oct 15 01:30:38 2019, MaxMem=   280000000 cpu:               9.1 elap:               0.4
 (Enter /home/soft/g16/l502.exe)
 Integral symmetry usage will be decided dynamically.
 Closed shell SCF:
 Using DIIS extrapolation, IDIIS=  1040.
 NGot=   280000000 LenX=   279961490 LenY=   279944149
 Requested convergence on RMS density matrix=1.00D-08 within 128 cycles.
 Requested convergence on MAX density matrix=1.00D-06.
 Requested convergence on             energy=1.00D-06.
 No special actions if energy rises.
 Fock matrices will be formed incrementally for  20 cycles.

 Cycle   1  Pass 1  IDiag  1:
 FoFJK:  IHMeth= 1 ICntrl=       0 DoSepK=F KAlg= 0 I1Cent=           0 FoldK=F
 IRaf= 990000000 NMat=       1 IRICut=       1 DoRegI=T DoRafI=F ISym2E= 0 IDoP0=0 IntGTp=1.
 FoFCou: FMM=F IPFlag=           0 FMFlag=      100000 FMFlg1=           0
         NFxFlg=           0 DoJE=F BraDBF=F KetDBF=F FulRan=T
         wScrn=  0.000000 ICntrl=         0 IOpCl=  0 I1Cent=           0 NGrid=           0
         NMat0=    1 NMatS0=      1 NMatT0=    0 NMatD0=    1 NMtDS0=    0 NMtDT0=    0
 Symmetry not used in FoFCou.
 E= -270.059807343415    
 DIIS: error= 2.25D-02 at cycle   1 NSaved=   1.
 NSaved= 1 IEnMin= 1 EnMin= -270.059807343415     IErMin= 1 ErrMin= 2.25D-02
 ErrMax= 2.25D-02  0.00D+00 EMaxC= 1.00D-01 BMatC= 1.50D-01 BMatP= 1.50D-01
 IDIUse=3 WtCom= 7.75D-01 WtEn= 2.25D-01
 Coeff-Com:  0.100D+01
 Coeff-En:   0.100D+01
 Coeff:      0.100D+01
 Gap=     0.118 Goal=   None    Shift=    0.000
 GapD=    0.118 DampG=1.000 DampE=0.500 DampFc=0.5000 IDamp=-1.
 Damping current iteration by 5.00D-01
 RMSDP=4.42D-02 MaxDP=2.37D+00              OVMax= 3.00D-01

 Cycle   2  Pass 1  IDiag  1:
 RMSU=  2.19D-02    CP:  1.09D+00
 E= -270.128531822821     Delta-E=       -0.068724479406 Rises=F Damp=T
 DIIS: error= 5.77D-03 at cycle   2 NSaved=   2.
 NSaved= 2 IEnMin= 2 EnMin= -270.128531822821     IErMin= 2 ErrMin= 5.77D-03
 ErrMax= 5.77D-03  0.00D+00 EMaxC= 1.00D-01 BMatC= 1.03D-02 BMatP= 1.50D-01
 IDIUse=3 WtCom= 9.42D-01 WtEn= 5.77D-02
 Coeff-Com:  0.657D-01 0.934D+00
 Coeff-En:   0.140D+00 0.860D+00
 Coeff:      0.700D-01 0.930D+00
 Gap=     0.135 Goal=   None    Shift=    0.000
 RMSDP=1.54D-02 MaxDP=7.31D-01 DE=-6.87D-02 OVMax= 2.02D-01

 Cycle   3  Pass 1  IDiag  1:
 RMSU=  6.09D-03    CP:  1.01D+00  3.65D-01
 E= -270.219740244685     Delta-E=       -0.091208421865 Rises=F Damp=F
 DIIS: error= 4.09D-03 at cycle   3 NSaved=   3.
 NSaved= 3 IEnMin= 3 EnMin= -270.219740244685     IErMin= 3 ErrMin= 4.09D-03
 ErrMax= 4.09D-03  0.00D+00 EMaxC= 1.00D-01 BMatC= 4.74D-03 BMatP= 1.03D-02
 IDIUse=3 WtCom= 9.59D-01 WtEn= 4.09D-02
 Coeff-Com: -0.290D-01 0.388D+00 0.641D+00
 Coeff-En:   0.000D+00 0.000D+00 0.100D+01
 Coeff:     -0.278D-01 0.372D+00 0.656D+00
 Gap=     0.116 Goal=   None    Shift=    0.000
 RMSDP=2.10D-03 MaxDP=4.20D-02 DE=-9.12D-02 OVMax= 6.60D-02

 Cycle   4  Pass 1  IDiag  1:
 RMSU=  1.61D-03    CP:  1.01D+00  3.97D-01  8.13D-01
 E= -270.222120142283     Delta-E=       -0.002379897597 Rises=F Damp=F
 DIIS: error= 2.87D-03 at cycle   4 NSaved=   4.
 NSaved= 4 IEnMin= 4 EnMin= -270.222120142283     IErMin= 4 ErrMin= 2.87D-03
 ErrMax= 2.87D-03  0.00D+00 EMaxC= 1.00D-01 BMatC= 2.09D-03 BMatP= 4.74D-03
 IDIUse=3 WtCom= 9.71D-01 WtEn= 2.87D-02
 Coeff-Com: -0.250D-01 0.182D+00 0.432D+00 0.410D+00
 Coeff-En:   0.000D+00 0.000D+00 0.339D+00 0.661D+00
 Coeff:     -0.243D-01 0.177D+00 0.430D+00 0.417D+00
 Gap=     0.111 Goal=   None    Shift=    0.000
 RMSDP=1.01D-03 MaxDP=1.69D-02 DE=-2.38D-03 OVMax= 4.63D-02

 Cycle   5  Pass 1  IDiag  1:
 RMSU=  7.75D-04    CP:  1.01D+00  3.96D-01  8.55D-01  6.33D-01
 E= -270.224209808684     Delta-E=       -0.002089666401 Rises=F Damp=F
 DIIS: error= 9.68D-04 at cycle   5 NSaved=   5.
 NSaved= 5 IEnMin= 5 EnMin= -270.224209808684     IErMin= 5 ErrMin= 9.68D-04
 ErrMax= 9.68D-04  0.00D+00 EMaxC= 1.00D-01 BMatC= 2.71D-04 BMatP= 2.09D-03
 IDIUse=3 WtCom= 9.90D-01 WtEn= 9.68D-03
 Coeff-Com: -0.111D-01 0.328D-01 0.132D+00 0.278D+00 0.568D+00
 Coeff-En:   0.000D+00 0.000D+00 0.000D+00 0.152D+00 0.848D+00
 Coeff:     -0.110D-01 0.325D-01 0.131D+00 0.277D+00 0.571D+00
 Gap=     0.112 Goal=   None    Shift=    0.000
 RMSDP=4.57D-04 MaxDP=1.38D-02 DE=-2.09D-03 OVMax= 1.58D-02

 Cycle   6  Pass 1  IDiag  1:
 RMSU=  2.30D-04    CP:  1.01D+00  3.93D-01  8.76D-01  6.72D-01  5.38D-01
 E= -270.224494041794     Delta-E=       -0.000284233110 Rises=F Damp=F
 DIIS: error= 3.67D-04 at cycle   6 NSaved=   6.
 NSaved= 6 IEnMin= 6 EnMin= -270.224494041794     IErMin= 6 ErrMin= 3.67D-04
 ErrMax= 3.67D-04  0.00D+00 EMaxC= 1.00D-01 BMatC= 3.43D-05 BMatP= 2.71D-04
 IDIUse=3 WtCom= 9.96D-01 WtEn= 3.67D-03
 Coeff-Com: -0.556D-02 0.836D-02 0.542D-01 0.149D+00 0.378D+00 0.416D+00
 Coeff-En:   0.000D+00 0.000D+00 0.000D+00 0.000D+00 0.582D-01 0.942D+00
 Coeff:     -0.554D-02 0.832D-02 0.540D-01 0.148D+00 0.377D+00 0.418D+00
 Gap=     0.112 Goal=   None    Shift=    0.000
 RMSDP=8.71D-05 MaxDP=1.81D-03 DE=-2.84D-04 OVMax= 2.38D-03

 Cycle   7  Pass 1  IDiag  1:
 RMSU=  5.62D-05    CP:  1.01D+00  3.92D-01  8.79D-01  6.64D-01  5.86D-01
                    CP:  7.84D-01
 E= -270.224523436442     Delta-E=       -0.000029394647 Rises=F Damp=F
 DIIS: error= 5.69D-05 at cycle   7 NSaved=   7.
 NSaved= 7 IEnMin= 7 EnMin= -270.224523436442     IErMin= 7 ErrMin= 5.69D-05
 ErrMax= 5.69D-05  0.00D+00 EMaxC= 1.00D-01 BMatC= 7.49D-07 BMatP= 3.43D-05
 IDIUse=1 WtCom= 1.00D+00 WtEn= 0.00D+00
 Coeff-Com: -0.192D-02 0.203D-02 0.172D-01 0.506D-01 0.150D+00 0.188D+00
 Coeff-Com:  0.594D+00
 Coeff:     -0.192D-02 0.203D-02 0.172D-01 0.506D-01 0.150D+00 0.188D+00
 Coeff:      0.594D+00
 Gap=     0.112 Goal=   None    Shift=    0.000
 RMSDP=2.94D-05 MaxDP=1.23D-03 DE=-2.94D-05 OVMax= 4.68D-04

 Cycle   8  Pass 1  IDiag  1:
 RMSU=  1.47D-05    CP:  1.01D+00  3.91D-01  8.79D-01  6.64D-01  5.92D-01
                    CP:  8.20D-01  1.03D+00
 E= -270.224523946813     Delta-E=       -0.000000510371 Rises=F Damp=F
 DIIS: error= 2.43D-05 at cycle   8 NSaved=   8.
 NSaved= 8 IEnMin= 8 EnMin= -270.224523946813     IErMin= 8 ErrMin= 2.43D-05
 ErrMax= 2.43D-05  0.00D+00 EMaxC= 1.00D-01 BMatC= 1.97D-07 BMatP= 7.49D-07
 IDIUse=1 WtCom= 1.00D+00 WtEn= 0.00D+00
 Coeff-Com: -0.147D-03-0.307D-03 0.435D-03 0.250D-02 0.248D-01 0.333D-01
 Coeff-Com:  0.355D+00 0.585D+00
 Coeff:     -0.147D-03-0.307D-03 0.435D-03 0.250D-02 0.248D-01 0.333D-01
 Coeff:      0.355D+00 0.585D+00
 Gap=     0.112 Goal=   None    Shift=    0.000
 RMSDP=9.82D-06 MaxDP=2.73D-04 DE=-5.10D-07 OVMax= 2.05D-04

 Cycle   9  Pass 1  IDiag  1:
 RMSU=  5.91D-06    CP:  1.01D+00  3.91D-01  8.80D-01  6.63D-01  5.95D-01
                    CP:  8.24D-01  1.10D+00  8.03D-01
 E= -270.224524134875     Delta-E=       -0.000000188062 Rises=F Damp=F
 DIIS: error= 7.30D-06 at cycle   9 NSaved=   9.
 NSaved= 9 IEnMin= 9 EnMin= -270.224524134875     IErMin= 9 ErrMin= 7.30D-06
 ErrMax= 7.30D-06  0.00D+00 EMaxC= 1.00D-01 BMatC= 1.54D-08 BMatP= 1.97D-07
 IDIUse=1 WtCom= 1.00D+00 WtEn= 0.00D+00
 Coeff-Com:  0.934D-05-0.161D-03-0.480D-03-0.150D-02 0.515D-02 0.448D-02
 Coeff-Com:  0.136D+00 0.300D+00 0.557D+00
 Coeff:      0.934D-05-0.161D-03-0.480D-03-0.150D-02 0.515D-02 0.448D-02
 Coeff:      0.136D+00 0.300D+00 0.557D+00
 Gap=     0.112 Goal=   None    Shift=    0.000
 RMSDP=4.60D-06 MaxDP=1.83D-04 DE=-1.88D-07 OVMax= 7.32D-05

 Cycle  10  Pass 1  IDiag  1:
 RMSU=  1.67D-06    CP:  1.01D+00  3.91D-01  8.80D-01  6.63D-01  5.95D-01
                    CP:  8.32D-01  1.11D+00  8.50D-01  8.36D-01
 E= -270.224524148237     Delta-E=       -0.000000013362 Rises=F Damp=F
 DIIS: error= 3.00D-06 at cycle  10 NSaved=  10.
 NSaved=10 IEnMin=10 EnMin= -270.224524148237     IErMin=10 ErrMin= 3.00D-06
 ErrMax= 3.00D-06  0.00D+00 EMaxC= 1.00D-01 BMatC= 3.27D-09 BMatP= 1.54D-08
 IDIUse=1 WtCom= 1.00D+00 WtEn= 0.00D+00
 Coeff-Com:  0.508D-04-0.895D-04-0.586D-03-0.193D-02-0.208D-02-0.522D-02
 Coeff-Com:  0.155D-01 0.706D-01 0.341D+00 0.583D+00
 Coeff:      0.508D-04-0.895D-04-0.586D-03-0.193D-02-0.208D-02-0.522D-02
 Coeff:      0.155D-01 0.706D-01 0.341D+00 0.583D+00
 Gap=     0.112 Goal=   None    Shift=    0.000
 RMSDP=1.84D-06 MaxDP=6.13D-05 DE=-1.34D-08 OVMax= 1.98D-05

 Cycle  11  Pass 1  IDiag  1:
 RMSU=  5.02D-07    CP:  1.01D+00  3.91D-01  8.80D-01  6.63D-01  5.95D-01
                    CP:  8.34D-01  1.13D+00  8.66D-01  8.92D-01  7.79D-01
 E= -270.224524151287     Delta-E=       -0.000000003050 Rises=F Damp=F
 DIIS: error= 4.95D-07 at cycle  11 NSaved=  11.
 NSaved=11 IEnMin=11 EnMin= -270.224524151287     IErMin=11 ErrMin= 4.95D-07
 ErrMax= 4.95D-07  0.00D+00 EMaxC= 1.00D-01 BMatC= 8.67D-11 BMatP= 3.27D-09
 IDIUse=1 WtCom= 1.00D+00 WtEn= 0.00D+00
 Coeff-Com:  0.860D-05-0.682D-05-0.921D-04-0.386D-03-0.544D-03-0.177D-02
 Coeff-Com: -0.479D-02-0.269D-02 0.523D-01 0.107D+00 0.851D+00
 Coeff:      0.860D-05-0.682D-05-0.921D-04-0.386D-03-0.544D-03-0.177D-02
 Coeff:     -0.479D-02-0.269D-02 0.523D-01 0.107D+00 0.851D+00
 Gap=     0.112 Goal=   None    Shift=    0.000
 RMSDP=2.51D-07 MaxDP=6.59D-06 DE=-3.05D-09 OVMax= 3.82D-06

 Cycle  12  Pass 1  IDiag  1:
 RMSU=  1.55D-07    CP:  1.01D+00  3.91D-01  8.80D-01  6.63D-01  5.95D-01
                    CP:  8.34D-01  1.13D+00  8.61D-01  9.11D-01  8.08D-01
                    CP:  9.14D-01
 E= -270.224524151373     Delta-E=       -0.000000000086 Rises=F Damp=F
 DIIS: error= 1.19D-07 at cycle  12 NSaved=  12.
 NSaved=12 IEnMin=12 EnMin= -270.224524151373     IErMin=12 ErrMin= 1.19D-07
 ErrMax= 1.19D-07  0.00D+00 EMaxC= 1.00D-01 BMatC= 4.92D-12 BMatP= 8.67D-11
 IDIUse=1 WtCom= 1.00D+00 WtEn= 0.00D+00
 Coeff-Com: -0.437D-06 0.240D-05 0.869D-05-0.153D-04 0.140D-04-0.225D-03
 Coeff-Com: -0.202D-02-0.355D-02-0.240D-02-0.490D-02 0.207D+00 0.806D+00
 Coeff:     -0.437D-06 0.240D-05 0.869D-05-0.153D-04 0.140D-04-0.225D-03
 Coeff:     -0.202D-02-0.355D-02-0.240D-02-0.490D-02 0.207D+00 0.806D+00
 Gap=     0.112 Goal=   None    Shift=    0.000
 RMSDP=1.12D-07 MaxDP=3.06D-06 DE=-8.57D-11 OVMax= 8.79D-07

 Cycle  13  Pass 1  IDiag  1:
 RMSU=  4.20D-08    CP:  1.01D+00  3.91D-01  8.80D-01  6.63D-01  5.95D-01
                    CP:  8.34D-01  1.13D+00  8.63D-01  9.13D-01  7.98D-01
                    CP:  1.01D+00  8.51D-01
 E= -270.224524151386     Delta-E=       -0.000000000013 Rises=F Damp=F
 DIIS: error= 3.71D-08 at cycle  13 NSaved=  13.
 NSaved=13 IEnMin=13 EnMin= -270.224524151386     IErMin=13 ErrMin= 3.71D-08
 ErrMax= 3.71D-08  0.00D+00 EMaxC= 1.00D-01 BMatC= 3.36D-13 BMatP= 4.92D-12
 IDIUse=1 WtCom= 1.00D+00 WtEn= 0.00D+00
 Coeff-Com: -0.407D-06 0.771D-06 0.733D-05 0.104D-04 0.323D-04 0.146D-04
 Coeff-Com: -0.361D-03-0.766D-03-0.366D-02-0.695D-02 0.299D-02 0.223D+00
 Coeff-Com:  0.786D+00
 Coeff:     -0.407D-06 0.771D-06 0.733D-05 0.104D-04 0.323D-04 0.146D-04
 Coeff:     -0.361D-03-0.766D-03-0.366D-02-0.695D-02 0.299D-02 0.223D+00
 Coeff:      0.786D+00
 Gap=     0.112 Goal=   None    Shift=    0.000
 RMSDP=3.89D-08 MaxDP=1.95D-06 DE=-1.30D-11 OVMax= 2.85D-07

 Cycle  14  Pass 1  IDiag  1:
 RMSU=  8.71D-09    CP:  1.01D+00  3.91D-01  8.80D-01  6.63D-01  5.95D-01
                    CP:  8.34D-01  1.13D+00  8.62D-01  9.12D-01  8.00D-01
                    CP:  1.01D+00  9.47D-01  9.72D-01
 E= -270.224524151384     Delta-E=        0.000000000002 Rises=F Damp=F
 DIIS: error= 7.53D-09 at cycle  14 NSaved=  14.
 NSaved=14 IEnMin=13 EnMin= -270.224524151386     IErMin=14 ErrMin= 7.53D-09
 ErrMax= 7.53D-09  0.00D+00 EMaxC= 1.00D-01 BMatC= 1.56D-14 BMatP= 3.36D-13
 IDIUse=1 WtCom= 1.00D+00 WtEn= 0.00D+00
 Coeff-Com:  0.868D-08-0.704D-07 0.732D-06 0.106D-05 0.536D-05 0.107D-04
 Coeff-Com:  0.529D-04 0.121D-03-0.429D-03-0.425D-03-0.125D-01-0.140D-01
 Coeff-Com:  0.120D+00 0.907D+00
 Coeff:      0.868D-08-0.704D-07 0.732D-06 0.106D-05 0.536D-05 0.107D-04
 Coeff:      0.529D-04 0.121D-03-0.429D-03-0.425D-03-0.125D-01-0.140D-01
 Coeff:      0.120D+00 0.907D+00
 Gap=     0.112 Goal=   None    Shift=    0.000
 RMSDP=7.88D-09 MaxDP=3.11D-07 DE= 2.16D-12 OVMax= 8.99D-08

 SCF Done:  E(RB3LYP) =  -270.224524151     A.U. after   14 cycles
            NFock= 14  Conv=0.79D-08     -V/T= 2.0047
 KE= 2.689729880804D+02 PE=-1.121776380227D+03 EE= 3.359122161651D+02
 Leave Link  502 at Tue Oct 15 01:30:42 2019, MaxMem=   280000000 cpu:             103.4 elap:               4.4
 (Enter /home/soft/g16/l801.exe)
 DoSCS=F DFT=T ScalE2(SS,OS)=  1.000000  1.000000
 Range of M.O.s used for correlation:     1   130
 NBasis=   130 NAE=    23 NBE=    23 NFC=     0 NFV=     0
 NROrb=    130 NOA=    23 NOB=    23 NVA=   107 NVB=   107

 **** Warning!!: The largest alpha MO coefficient is  0.53823767D+02

 Leave Link  801 at Tue Oct 15 01:30:43 2019, MaxMem=   280000000 cpu:               0.9 elap:               0.1
 (Enter /home/soft/g16/l1101.exe)
 Using compressed storage, NAtomX=    14.
 Will process     15 centers per pass.
 Leave Link 1101 at Tue Oct 15 01:30:43 2019, MaxMem=   280000000 cpu:               3.8 elap:               0.2
 (Enter /home/soft/g16/l1102.exe)
 Symmetrizing basis deriv contribution to polar:
 IMax=3 JMax=2 DiffMx= 0.00D+00
 Leave Link 1102 at Tue Oct 15 01:30:43 2019, MaxMem=   280000000 cpu:               1.1 elap:               0.1
 (Enter /home/soft/g16/l1110.exe)
 Forming Gx(P) for the SCF density, NAtomX=    14.
 Integral derivatives from FoFJK, PRISM(SPDF).
 Do as many integral derivatives as possible in FoFJK.
 G2DrvN: MDV=     279998828.
 G2DrvN: will do    15 centers at a time, making    1 passes.
 Calling FoFCou, ICntrl=  3107 FMM=F I1Cent=   0 AccDes= 0.00D+00.
 FoFJK:  IHMeth= 1 ICntrl=    3107 DoSepK=F KAlg= 0 I1Cent=           0 FoldK=F
 IRaf=         0 NMat=       1 IRICut=       1 DoRegI=T DoRafI=F ISym2E= 0 IDoP0=0 IntGTp=1.
 FoFCou: FMM=F IPFlag=           0 FMFlag=      100000 FMFlg1=           0
         NFxFlg=           0 DoJE=F BraDBF=F KetDBF=F FulRan=T
         wScrn=  0.000000 ICntrl=      3107 IOpCl=  0 I1Cent=           0 NGrid=           0
         NMat0=    1 NMatS0=      1 NMatT0=    0 NMatD0=    1 NMtDS0=    0 NMtDT0=    0
 Symmetry not used in FoFCou.
 End of G2Drv F.D. properties file   721 does not exist.
 End of G2Drv F.D. properties file   722 does not exist.
 End of G2Drv F.D. properties file   788 does not exist.
 Leave Link 1110 at Tue Oct 15 01:30:49 2019, MaxMem=   280000000 cpu:             134.7 elap:               5.7
 (Enter /home/soft/g16/l1002.exe)
 Minotr:  Closed shell wavefunction.
          IDoAtm=11111111111111
          Direct CPHF calculation.
          Differentiating once with respect to nuclear coordinates.
          Requested convergence is 1.0D-08 RMS, and 1.0D-07 maximum.
          Secondary convergence is 1.0D-12 RMS, and 1.0D-12 maximum.
          NewPWx=T KeepS1=F KeepF1=F KeepIn=T MapXYZ=F SortEE=F KeepMc=T.
         4236 words used for storage of precomputed grid.
 Keep R1 ints in memory in canonical form, NReq=59094324.
 FoFCou: FMM=F IPFlag=           0 FMFlag=           0 FMFlg1=           0
         NFxFlg=           0 DoJE=F BraDBF=F KetDBF=F FulRan=T
         wScrn=  0.000000 ICntrl=       600 IOpCl=  0 I1Cent=           0 NGrid=           0
         NMat0=    1 NMatS0=   8515 NMatT0=    0 NMatD0=    1 NMtDS0=    0 NMtDT0=    0
 Symmetry not used in FoFCou.
 Two-electron integral symmetry not used.
          MDV=     280000000 using IRadAn=       1.
          Solving linear equations simultaneously, MaxMat=       0.
          There are    45 degrees of freedom in the 1st order CPHF.  IDoFFX=6 NUNeed=     0.
     39 vectors produced by pass  0 Test12= 5.47D-15 2.22D-09 XBig12= 2.09D-01 1.16D-01.
 AX will form    39 AO Fock derivatives at one time.
     39 vectors produced by pass  1 Test12= 5.47D-15 2.22D-09 XBig12= 2.07D-02 3.84D-02.
     39 vectors produced by pass  2 Test12= 5.47D-15 2.22D-09 XBig12= 1.95D-04 3.65D-03.
     39 vectors produced by pass  3 Test12= 5.47D-15 2.22D-09 XBig12= 5.34D-07 1.28D-04.
     39 vectors produced by pass  4 Test12= 5.47D-15 2.22D-09 XBig12= 6.58D-10 4.77D-06.
     36 vectors produced by pass  5 Test12= 5.47D-15 2.22D-09 XBig12= 6.74D-13 1.50D-07.
      3 vectors produced by pass  6 Test12= 5.47D-15 2.22D-09 XBig12= 5.82D-16 3.06D-09.
 InvSVY:  IOpt=1 It=  1 EMax= 2.22D-15
 Solved reduced A of dimension   234 with    39 vectors.
 End of Minotr F.D. properties file   721 does not exist.
 End of Minotr F.D. properties file   722 does not exist.
 End of Minotr F.D. properties file   788 does not exist.
 Leave Link 1002 at Tue Oct 15 01:30:56 2019, MaxMem=   280000000 cpu:             182.5 elap:               7.7
 (Enter /home/soft/g16/l601.exe)
 Copying SCF densities to generalized density rwf, IOpCl= 0 IROHF=0.

 **********************************************************************

            Population analysis using the SCF density.

 **********************************************************************

 Orbital symmetries:
       Occupied  (A) (A) (A) (A) (A) (A) (A) (A) (A) (A) (A) (A)
                 (A) (A) (A) (A) (A) (A) (A) (A) (A) (A) (A)
       Virtual   (A) (A) (A) (A) (A) (A) (A) (A) (A) (A) (A) (A)
                 (A) (A) (A) (A) (A) (A) (A) (A) (A) (A) (A) (A)
                 (A) (A) (A) (A) (A) (A) (A) (A) (A) (A) (A) (A)
                 (A) (A) (A) (A) (A) (A) (A) (A) (A) (A) (A) (A)
                 (A) (A) (A) (A) (A) (A) (A) (A) (A) (A) (A) (A)
                 (A) (A) (A) (A) (A) (A) (A) (A) (A) (A) (A) (A)
                 (A) (A) (A) (A) (A) (A) (A) (A) (A) (A) (A) (A)
                 (A) (A) (A) (A) (A) (A) (A) (A) (A) (A) (A) (A)
                 (A) (A) (A) (A) (A) (A) (A) (A) (A) (A) (A)
 The electronic state is 1-A.
 Alpha  occ. eigenvalues --  -19.16237 -10.23835 -10.22710 -10.21698 -10.19750
 Alpha  occ. eigenvalues --  -10.18401  -1.04918  -0.94664  -0.77827  -0.67209
 Alpha  occ. eigenvalues --   -0.65587  -0.55255  -0.54237  -0.52432  -0.48549
 Alpha  occ. eigenvalues --   -0.46721  -0.43387  -0.42338  -0.40697  -0.34434
 Alpha  occ. eigenvalues --   -0.26918  -0.25971  -0.15686
 Alpha virt. eigenvalues --   -0.04466   0.00760   0.02116   0.02511   0.03286
 Alpha virt. eigenvalues --    0.04598   0.04895   0.06177   0.07558   0.07969
 Alpha virt. eigenvalues --    0.09156   0.10117   0.10604   0.11564   0.12328
 Alpha virt. eigenvalues --    0.12900   0.13030   0.14523   0.15507   0.16327
 Alpha virt. eigenvalues --    0.17816   0.18485   0.19176   0.21473   0.23374
 Alpha virt. eigenvalues --    0.24050   0.25509   0.26247   0.27662   0.28734
 Alpha virt. eigenvalues --    0.30655   0.31226   0.34063   0.35305   0.35931
 Alpha virt. eigenvalues --    0.36113   0.37734   0.40327   0.42099   0.58342
 Alpha virt. eigenvalues --    0.59885   0.62870   0.67006   0.67326   0.70482
 Alpha virt. eigenvalues --    0.72873   0.73811   0.75361   0.76298   0.82514
 Alpha virt. eigenvalues --    0.83386   0.87807   0.91036   0.93632   0.95317
 Alpha virt. eigenvalues --    0.96327   0.97309   1.02423   1.04864   1.07889
 Alpha virt. eigenvalues --    1.12570   1.15632   1.17214   1.19466   1.25936
 Alpha virt. eigenvalues --    1.29862   1.31408   1.33425   1.39879   1.47578
 Alpha virt. eigenvalues --    1.51264   1.55900   1.60446   1.64025   1.66930
 Alpha virt. eigenvalues --    1.69479   1.78596   1.82819   1.94907   1.97621
 Alpha virt. eigenvalues --    1.99197   2.03112   2.06282   2.10830   2.12560
 Alpha virt. eigenvalues --    2.17777   2.24962   2.27516   2.35429   2.36505
 Alpha virt. eigenvalues --    2.43254   2.45412   2.49161   2.57357   2.67689
 Alpha virt. eigenvalues --    2.70406   2.75931   2.84426   2.84883   2.92948
 Alpha virt. eigenvalues --    3.03864   4.21730   4.28129   4.33661   4.36830
 Alpha virt. eigenvalues --    4.47454   4.53452
          Condensed to atoms (all electrons):
               1          2          3          4          5          6
     1  C    6.279210   0.333777   0.353733   0.148747  -0.131604  -0.120182
     2  H    0.333777   0.529761  -0.017906   0.204071   0.002533  -0.012086
     3  H    0.353733  -0.017906   0.469325  -0.053548  -0.001853   0.006537
     4  C    0.148747   0.204071  -0.053548   7.177710   0.476778   0.196705
     5  H   -0.131604   0.002533  -0.001853   0.476778   0.524124  -0.050792
     6  O   -0.120182  -0.012086   0.006537   0.196705  -0.050792   8.252223
     7  C    0.056936  -0.013398   0.004950  -0.494337   0.002021   0.115060
     8  H    0.004163   0.000073   0.000015   0.018261  -0.000137  -0.044493
     9  H   -0.018251  -0.000333   0.000102  -0.025678   0.001814  -0.045381
    10  C   -0.153668  -0.117188   0.005061   0.138738   0.002289   0.005689
    11  H    0.003578  -0.001686  -0.000051  -0.018005   0.000021   0.007623
    12  C   -0.316496  -0.130604  -0.007212  -1.477195  -0.006485   0.027372
    13  H    0.155446  -0.103995  -0.004713  -0.228619  -0.000031   0.009097
    14  H   -0.010037   0.006118  -0.004517   0.049843  -0.000233  -0.003581
               7          8          9         10         11         12
     1  C    0.056936   0.004163  -0.018251  -0.153668   0.003578  -0.316496
     2  H   -0.013398   0.000073  -0.000333  -0.117188  -0.001686  -0.130604
     3  H    0.004950   0.000015   0.000102   0.005061  -0.000051  -0.007212
     4  C   -0.494337   0.018261  -0.025678   0.138738  -0.018005  -1.477195
     5  H    0.002021  -0.000137   0.001814   0.002289   0.000021  -0.006485
     6  O    0.115060  -0.044493  -0.045381   0.005689   0.007623   0.027372
     7  C    5.634922   0.414323   0.451179   0.120939  -0.025449   0.102587
     8  H    0.414323   0.537733  -0.041647  -0.078373  -0.003465   0.005199
     9  H    0.451179  -0.041647   0.547589  -0.068877   0.003630  -0.014045
    10  C    0.120939  -0.078373  -0.068877   5.587253   0.395182   0.055204
    11  H   -0.025449  -0.003465   0.003630   0.395182   0.507635  -0.053456
    12  C    0.102587   0.005199  -0.014045   0.055204  -0.053456   7.887589
    13  H    0.013585   0.000183   0.002485   0.042029   0.003911   0.228756
    14  H    0.003062  -0.000104  -0.000318  -0.036936  -0.008496   0.292337
              13         14
     1  C    0.155446  -0.010037
     2  H   -0.103995   0.006118
     3  H   -0.004713  -0.004517
     4  C   -0.228619   0.049843
     5  H   -0.000031  -0.000233
     6  O    0.009097  -0.003581
     7  C    0.013585   0.003062
     8  H    0.000183  -0.000104
     9  H    0.002485  -0.000318
    10  C    0.042029  -0.036936
    11  H    0.003911  -0.008496
    12  C    0.228756   0.292337
    13  H    0.546474  -0.023245
    14  H   -0.023245   0.512385
 Mulliken charges:
               1
     1  C   -0.585350
     2  H    0.320863
     3  H    0.250080
     4  C   -0.113471
     5  H    0.181555
     6  O   -0.343791
     7  C   -0.386380
     8  H    0.188271
     9  H    0.207732
    10  C    0.102657
    11  H    0.189027
    12  C   -0.593550
    13  H    0.358637
    14  H    0.223720
 Sum of Mulliken charges =  -0.00000
 Mulliken charges with hydrogens summed into heavy atoms:
               1
     1  C    0.344229
     4  C    0.068084
     6  O   -0.343791
     7  C    0.009623
    10  C    0.291685
    12  C   -0.369831
 APT charges:
               1
     1  C   -0.819657
     2  H    0.341395
     3  H    0.578822
     4  C   -0.556511
     5  H    0.523185
     6  O   -0.395807
     7  C   -0.940298
     8  H    0.535304
     9  H    0.404565
    10  C   -0.401201
    11  H    0.585261
    12  C   -0.801268
    13  H    0.388063
    14  H    0.558146
 Sum of APT charges =  -0.00000
 APT charges with hydrogens summed into heavy atoms:
               1
     1  C    0.488623
     4  C   -0.033326
     6  O   -0.395807
     7  C   -0.000429
    10  C    0.184060
    12  C   -0.243122
 Electronic spatial extent (au):  <R**2>=            488.9777
 Charge=             -0.0000 electrons
 Dipole moment (field-independent basis, Debye):
    X=              1.5915    Y=              2.5069    Z=              1.0478  Tot=              3.1489
 Quadrupole moment (field-independent basis, Debye-Ang):
   XX=            -33.0410   YY=            -40.7688   ZZ=            -39.7523
   XY=              1.1092   XZ=              1.0901   YZ=             -3.6481
 Traceless Quadrupole moment (field-independent basis, Debye-Ang):
   XX=              4.8130   YY=             -2.9148   ZZ=             -1.8983
   XY=              1.1092   XZ=              1.0901   YZ=             -3.6481
 Octapole moment (field-independent basis, Debye-Ang**2):
  XXX=              0.2685  YYY=              4.9131  ZZZ=             -0.6743  XYY=              1.0513
  XXY=              3.2279  XXZ=              2.6095  XZZ=             -0.3282  YZZ=             -2.1842
  YYZ=              0.5752  XYZ=             -0.5993
 Hexadecapole moment (field-independent basis, Debye-Ang**3):
 XXXX=           -288.8771 YYYY=           -294.4822 ZZZZ=            -73.8580 XXXY=             11.3915
 XXXZ=             13.3580 YYYX=              5.7228 YYYZ=            -13.2381 ZZZX=              0.6252
 ZZZY=             -2.4257 XXYY=           -103.0261 XXZZ=            -65.9217 YYZZ=            -67.3629
 XXYZ=             -4.5224 YYXZ=              4.1480 ZZXY=              4.1615
 N-N= 2.466666518301D+02 E-N=-1.121776380278D+03  KE= 2.689729880804D+02
  Exact polarizability:   0.000   0.000   0.000   0.000   0.000   0.000
 Approx polarizability: 123.331 -27.398 151.866   3.111  -2.182  70.558
 No NMR shielding tensors so no spin-rotation constants.
 Leave Link  601 at Tue Oct 15 01:30:57 2019, MaxMem=   280000000 cpu:               4.7 elap:               0.2
 (Enter /home/soft/g16/l701.exe)
 ... and contract with generalized density number  0.
 Compute integral second derivatives.
 Leave Link  701 at Tue Oct 15 01:30:57 2019, MaxMem=   280000000 cpu:               4.9 elap:               0.3
 (Enter /home/soft/g16/l702.exe)
 L702 exits ... SP integral derivatives will be done elsewhere.
 Leave Link  702 at Tue Oct 15 01:30:57 2019, MaxMem=   280000000 cpu:               1.0 elap:               0.1
 (Enter /home/soft/g16/l703.exe)
 Integral derivatives from FoFJK, PRISM(SPDF).
 Compute integral second derivatives, UseDBF=F ICtDFT=           0.
 Calling FoFJK, ICntrl=    100147 FMM=F ISym2X=0 I1Cent= 0 IOpClX= 0 NMat=1 NMatS=1 NMatT=0.
 FoFJK:  IHMeth= 1 ICntrl=  100147 DoSepK=F KAlg= 0 I1Cent=           0 FoldK=F
 IRaf=         0 NMat=       1 IRICut=       1 DoRegI=T DoRafI=F ISym2E= 0 IDoP0=0 IntGTp=1.
 FoFCou: FMM=F IPFlag=           0 FMFlag=      100000 FMFlg1=         800
         NFxFlg=           0 DoJE=F BraDBF=F KetDBF=F FulRan=T
         wScrn=  0.000000 ICntrl=    100147 IOpCl=  0 I1Cent=           0 NGrid=           0
         NMat0=    1 NMatS0=      1 NMatT0=    0 NMatD0=    1 NMtDS0=    0 NMtDT0=    0
 Symmetry not used in FoFCou.
 Leave Link  703 at Tue Oct 15 01:31:05 2019, MaxMem=   280000000 cpu:             186.1 elap:               7.8
 (Enter /home/soft/g16/l716.exe)
 Dipole        = 6.26144689D-01 9.86297263D-01 4.12223146D-01
 Polarizability= 0.00000000D+00 0.00000000D+00 0.00000000D+00
                 0.00000000D+00 0.00000000D+00 0.00000000D+00
 ***** Axes restored to original set *****
 -------------------------------------------------------------------
 Center     Atomic                   Forces (Hartrees/Bohr)
 Number     Number              X              Y              Z
 -------------------------------------------------------------------
      1        6          -0.043677151    0.096909114   -0.124541947
      2        1          -0.019131778    0.004855268   -0.074754596
      3        1          -0.016736832    0.003542116   -0.010696485
      4        6           0.010281483    0.076809932   -0.046149378
      5        1           0.003052927    0.011647451    0.006556470
      6        8          -0.014338638    0.012729080    0.000677645
      7        6           0.004720668   -0.043108494   -0.006574400
      8        1           0.016644805    0.004990776   -0.004412816
      9        1           0.001278256    0.008763502    0.014743581
     10        6           0.000360531    0.034542675    0.031172151
     11        1           0.009690155   -0.005379611   -0.006434550
     12        6           0.052281932   -0.147546456    0.042552207
     13        1           0.007637218   -0.048757418    0.178959836
     14        1          -0.012063575   -0.009997934   -0.001097718
 -------------------------------------------------------------------
 Cartesian Forces:  Max     0.178959836 RMS     0.050657423
 FormGI is forming the generalized inverse of G from B-inverse, IUseBI=4.
 Leave Link  716 at Tue Oct 15 01:31:05 2019, MaxMem=   280000000 cpu:               1.5 elap:               0.1
 (Enter /home/soft/g16/l103.exe)

 GradGradGradGradGradGradGradGradGradGradGradGradGradGradGradGradGradGrad
 Berny optimization.
 Red2BG is reusing G-inverse.
 Internal  Forces:  Max     0.165456101 RMS     0.030214188
 Search for a local minimum.
 Step number   1 out of a maximum of   83
 All quantities printed in internal units (Hartrees-Bohrs-Radians)
 RMS Force = .30214D-01 SwitMx=.10000D-02 MixMth= 1
 Mixed Optimization -- RFO/linear search
 Second derivative matrix not updated -- analytic derivatives used.
 ITU=  0
     Eigenvalues ---   -0.00593   0.00146   0.00579   0.01516   0.01568
     Eigenvalues ---    0.02234   0.02676   0.03063   0.05068   0.05383
     Eigenvalues ---    0.05785   0.06200   0.07448   0.07814   0.08187
     Eigenvalues ---    0.08926   0.10495   0.10986   0.12402   0.15134
     Eigenvalues ---    0.17990   0.20689   0.23311   0.25047   0.28264
     Eigenvalues ---    0.31731   0.33682   0.38044   0.38507   0.39393
     Eigenvalues ---    0.39626   0.39686   0.39764   0.39798   0.52619
     Eigenvalues ---    0.57182
 Eigenvalue     1 is  -5.93D-03 should be greater than     0.000000 Eigenvector:
                          R4        D30       D1        D5        D27
   1                   -0.36377  -0.32322  -0.31133  -0.30883  -0.29928
                          D16       D7        D29       D12       D3
   1                    0.26798  -0.18514  -0.17940  -0.17745  -0.16128
 RFO step:  Lambda=-1.62948148D-01 EMin=-5.92512312D-03
 Linear search not attempted -- first point.
 Maximum step size (   0.300) exceeded in Quadratic search.
    -- Step size scaled by   0.318
 Iteration  1 RMS(Cart)=  0.03915264 RMS(Int)=  0.00327960
 Iteration  2 RMS(Cart)=  0.00387631 RMS(Int)=  0.00114103
 Iteration  3 RMS(Cart)=  0.00000979 RMS(Int)=  0.00114100
 Iteration  4 RMS(Cart)=  0.00000002 RMS(Int)=  0.00114100
 ITry= 1 IFail=0 DXMaxC= 1.16D-01 DCOld= 1.00D+10 DXMaxT= 3.00D-01 DXLimC= 3.00D+00 Rises=F
 Variable       Old X    -DE/DX   Delta X   Delta X   Delta X     New X
                                 (Linear)    (Quad)   (Total)
    R1        2.02201   0.02670   0.00000  -0.02045  -0.02045   2.00155
    R2        2.02201   0.01340   0.00000   0.00780   0.00780   2.02981
    R3        2.56096   0.05832   0.00000  -0.01093  -0.01132   2.54964
    R4        3.20355   0.13979   0.00000   0.23361   0.23154   3.43508
    R5        1.95002   0.16546   0.00000   0.13565   0.13930   2.08932
    R6        2.02201   0.01104   0.00000   0.00860   0.00860   2.03061
    R7        2.62464  -0.00500   0.00000  -0.00632  -0.00631   2.61833
    R8        2.70231   0.03688   0.00000   0.01712   0.01712   2.71943
    R9        2.02201   0.01686   0.00000   0.00803   0.00803   2.03004
   R10        2.02201   0.01610   0.00000   0.01076   0.01076   2.03277
   R11        2.91018   0.00037   0.00000  -0.00640  -0.00601   2.90417
   R12        2.02201   0.00953   0.00000   0.00775   0.00775   2.02976
   R13        2.56096   0.01966   0.00000  -0.01617  -0.01613   2.54483
   R14        2.02201   0.02990   0.00000   0.00026  -0.00014   2.02186
   R15        2.02201   0.01489   0.00000   0.01047   0.01047   2.03248
    A1        2.09440  -0.00628   0.00000  -0.00955  -0.00969   2.08470
    A2        2.09440   0.00808   0.00000   0.01059   0.01079   2.10518
    A3        0.97529   0.03815   0.00000   0.05199   0.05069   1.02598
    A4        1.62088   0.01890   0.00000  -0.03006  -0.02853   1.59234
    A5        2.09440  -0.00180   0.00000  -0.00105  -0.00116   2.09324
    A6        1.89648   0.00466   0.00000  -0.01062  -0.01090   1.88558
    A7        1.57362  -0.00626   0.00000  -0.01598  -0.01559   1.55803
    A8        1.81417   0.00132   0.00000  -0.02405  -0.02308   1.79109
    A9        1.51789   0.03116   0.00000   0.05682   0.05433   1.57222
   A10        2.09440   0.01571   0.00000   0.01040   0.01031   2.10470
   A11        2.09440  -0.01541   0.00000   0.00262   0.00119   2.09559
   A12        2.09440  -0.00030   0.00000  -0.01302  -0.01308   2.08132
   A13        1.91063   0.02084   0.00000   0.01619   0.01563   1.92626
   A14        1.91063  -0.01066   0.00000  -0.01939  -0.01936   1.89127
   A15        1.91063  -0.00199   0.00000  -0.00029  -0.00061   1.91002
   A16        1.91063   0.00950   0.00000   0.01452   0.01487   1.92551
   A17        1.91063  -0.00193   0.00000  -0.00082  -0.00084   1.90979
   A18        1.91063   0.00230   0.00000   0.00846   0.00842   1.91906
   A19        1.91063   0.00277   0.00000  -0.00248  -0.00258   1.90805
   A20        2.21069  -0.01508   0.00000  -0.02341  -0.02350   2.18718
   A21        1.96393   0.02398   0.00000   0.01799   0.01781   1.98174
   A22        2.09440  -0.00747   0.00000   0.00835   0.00845   2.10285
   A23        2.04872  -0.03746   0.00000  -0.05562  -0.05493   1.99379
   A24        1.93297   0.01427   0.00000   0.00210   0.00220   1.93517
   A25        2.09440  -0.00701   0.00000   0.02441   0.02368   2.11808
   A26        2.09440   0.01567   0.00000   0.00658   0.00385   2.09825
   A27        2.09440  -0.00866   0.00000  -0.03099  -0.03321   2.06118
    D1        3.01509  -0.03356   0.00000   0.04277   0.04298   3.05807
    D2       -0.12651  -0.04221   0.00000  -0.01788  -0.01788  -0.14438
    D3       -0.12651   0.01685   0.00000   0.05487   0.05495  -0.07155
    D4        3.01509   0.00819   0.00000  -0.00577  -0.00591   3.00918
    D5       -2.24887   0.01075   0.00000   0.08958   0.08863  -2.16024
    D6        0.89272   0.00209   0.00000   0.02894   0.02777   0.92049
    D7       -1.66999   0.00593   0.00000   0.04038   0.04155  -1.62844
    D8        1.47160  -0.00273   0.00000  -0.02026  -0.01931   1.45229
    D9        1.36286   0.00360   0.00000  -0.01234  -0.01174   1.35112
   D10       -1.13258   0.00632   0.00000   0.04661   0.04580  -1.08678
   D11       -2.92854  -0.00421   0.00000  -0.01414  -0.01335  -2.94189
   D12        0.85920  -0.00149   0.00000   0.04480   0.04419   0.90338
   D13       -0.67926  -0.00279   0.00000  -0.03693  -0.03491  -0.71417
   D14        3.10848  -0.00008   0.00000   0.02201   0.02263   3.13111
   D15       -1.18776   0.00537   0.00000  -0.01566  -0.01575  -1.20351
   D16        1.95383  -0.00328   0.00000  -0.07631  -0.07580   1.87804
   D17       -3.14159   0.00222   0.00000   0.00203   0.00208  -3.13951
   D18       -1.04720  -0.00789   0.00000  -0.01102  -0.01094  -1.05814
   D19        1.04720   0.00011   0.00000  -0.00535  -0.00530   1.04190
   D20        2.42477  -0.01029   0.00000  -0.04548  -0.04501   2.37976
   D21       -0.89871  -0.00148   0.00000  -0.02536  -0.02519  -0.92390
   D22        0.33038  -0.00446   0.00000  -0.03581  -0.03563   0.29475
   D23       -2.99311   0.00435   0.00000  -0.01569  -0.01581  -3.00891
   D24       -1.76402  -0.00521   0.00000  -0.03847  -0.03818  -1.80220
   D25        1.19568   0.00360   0.00000  -0.01835  -0.01836   1.17733
   D26        0.71483   0.00126   0.00000   0.03035   0.02773   0.74256
   D27        0.00703  -0.02513   0.00000   0.07369   0.07713   0.08416
   D28       -3.13456  -0.00494   0.00000  -0.03910  -0.03936   3.10926
   D29       -2.59511   0.00822   0.00000   0.04516   0.04269  -2.55242
   D30        2.98028  -0.01816   0.00000   0.08850   0.09209   3.07236
   D31       -0.16131   0.00203   0.00000  -0.02429  -0.02441  -0.18572
         Item               Value     Threshold  Converged?
 Maximum Force            0.165456     0.000450     NO 
 RMS     Force            0.030214     0.000300     NO 
 Maximum Displacement     0.116283     0.001800     NO 
 RMS     Displacement     0.042390     0.001200     NO 
 Predicted change in Energy=-5.823290D-02
 Lowest energy point so far.  Saving SCF results.
 GradGradGradGradGradGradGradGradGradGradGradGradGradGradGradGradGradGrad

 Leave Link  103 at Tue Oct 15 01:31:05 2019, MaxMem=   280000000 cpu:               3.5 elap:               0.2
 (Enter /home/soft/g16/l202.exe)
                          Input orientation:                          
 ---------------------------------------------------------------------
 Center     Atomic      Atomic             Coordinates (Angstroms)
 Number     Number       Type             X           Y           Z
 ---------------------------------------------------------------------
      1          6           0       -3.875293   -1.347738   -0.176028
      2          1           0       -3.498110   -2.168351   -0.729367
      3          1           0       -4.913679   -1.328311    0.098062
      4          6           0       -3.067510   -0.325099    0.173358
      5          1           0       -3.465679    0.542068    0.667471
      6          8           0       -1.701233   -0.416120   -0.038258
      7          6           0       -1.122279   -1.396272    0.842089
      8          1           0       -0.065674   -1.438911    0.652927
      9          1           0       -1.291323   -1.104262    1.863495
     10          6           0       -1.755202   -2.774903    0.595921
     11          1           0       -1.217705   -3.702783    0.534004
     12          6           0       -3.100594   -2.767304    0.654006
     13          1           0       -3.647336   -1.856148    0.778933
     14          1           0       -3.655584   -3.669653    0.468148
 ---------------------------------------------------------------------
                    Distance matrix (angstroms):
                    1          2          3          4          5
     1  C    0.000000
     2  H    1.059177   0.000000
     3  H    1.074128   1.842320   0.000000
     4  C    1.349212   2.097118   2.102485   0.000000
     5  H    2.109653   3.049357   2.432950   1.074553   0.000000
     6  O    2.369267   2.603212   3.342228   1.385562   2.128250
     7  C    2.935643   2.951297   3.864313   2.319168   3.046174
     8  H    3.899830   3.771530   4.880908   3.237527   3.935038
     9  H    3.300884   3.567230   4.035892   2.572645   2.978037
    10  C    2.669736   2.272009   3.509484   2.811094   3.732713
    11  H    3.621209   3.025035   4.414566   3.867892   4.805201
    12  C    1.817769   1.559001   2.380558   2.489273   3.329476
    13  H    1.105620   1.547484   1.531608   1.745574   2.407668
    14  H    2.419613   1.926849   2.683589   3.408632   4.220709
                    6          7          8          9         10
     6  O    0.000000
     7  C    1.439061   0.000000
     8  H    2.049119   1.074251   0.000000
     9  H    2.063548   1.075693   1.754901   0.000000
    10  C    2.443144   1.536818   2.154676   2.147783   0.000000
    11  H    3.370969   2.328951   2.542918   2.919808   1.074103
    12  C    2.822322   2.414297   3.312909   2.738984   1.346667
    13  H    2.555152   2.567369   3.608083   2.700446   2.111344
    14  H    3.829022   3.424285   4.230580   3.757387   2.104366
                   11         12         13         14
    11  H    0.000000
    12  C    2.105894   0.000000
    13  H    3.061561   1.069924   0.000000
    14  H    2.438993   1.075543   1.839960   0.000000
 Stoichiometry    C5H8O
 Framework group  C1[X(C5H8O)]
 Deg. of freedom    36
 Full point group                 C1      NOp   1
 RotChk:  IX=0 Diff= 3.14D-01
 Largest Abelian subgroup         C1      NOp   1
 Largest concise Abelian subgroup C1      NOp   1
                         Standard orientation:                         
 ---------------------------------------------------------------------
 Center     Atomic      Atomic             Coordinates (Angstroms)
 Number     Number       Type             X           Y           Z
 ---------------------------------------------------------------------
      1          6           0        1.496867    0.230561   -0.203842
      2          1           0        1.050154    0.834189   -0.950794
      3          1           0        2.400520    0.562413    0.272640
      4          6           0        0.948939   -0.952926    0.141854
      5          1           0        1.442534   -1.599873    0.843629
      6          8           0       -0.294476   -1.312981   -0.352172
      7          6           0       -1.320191   -0.479793    0.217568
      8          1           0       -2.267823   -0.786990   -0.184474
      9          1           0       -1.328341   -0.602345    1.286226
     10          6           0       -1.059527    0.995951   -0.123084
     11          1           0       -1.804123    1.699598   -0.445815
     12          6           0        0.178225    1.413197    0.204616
     13          1           0        0.911474    0.734457    0.587233
     14          1           0        0.485534    2.420463   -0.013945
 ---------------------------------------------------------------------
 Rotational constants (GHZ):           5.1108832           4.9278389           2.7193590
 Leave Link  202 at Tue Oct 15 01:31:05 2019, MaxMem=   280000000 cpu:               0.3 elap:               0.0
 (Enter /home/soft/g16/l301.exe)
 Standard basis: 6-31+G(d) (6D, 7F)
 Ernie: Thresh=  0.10000D-02 Tol=  0.10000D-05 Strict=F.
 There are   130 symmetry adapted cartesian basis functions of A   symmetry.
 There are   130 symmetry adapted basis functions of A   symmetry.
   130 basis functions,   224 primitive gaussians,   130 cartesian basis functions
    23 alpha electrons       23 beta electrons
       nuclear repulsion energy       244.2018053421 Hartrees.
 IExCor=  402 DFT=T Ex+Corr=B3LYP ExCW=0 ScaHFX=  0.200000
 ScaDFX=  0.800000  0.720000  1.000000  0.810000 ScalE2=  1.000000  1.000000
 IRadAn=      5 IRanWt=     -1 IRanGd=            0 ICorTp=0 IEmpDi=  4
 NAtoms=   14 NActive=   14 NUniq=   14 SFac= 1.00D+00 NAtFMM=   60 NAOKFM=F Big=F
 Integral buffers will be    131072 words long.
 Raffenetti 2 integral format.
 Two-electron integral symmetry is turned on.
 Leave Link  301 at Tue Oct 15 01:31:05 2019, MaxMem=   280000000 cpu:               1.6 elap:               0.1
 (Enter /home/soft/g16/l302.exe)
 NPDir=0 NMtPBC=     1 NCelOv=     1 NCel=       1 NClECP=     1 NCelD=      1
         NCelK=      1 NCelE2=     1 NClLst=     1 CellRange=     0.0.
 One-electron integrals computed using PRISM.
 One-electron integral symmetry used in STVInt
 NBasis=   130 RedAO= T EigKep=  5.69D-05  NBF=   130
 NBsUse=   130 1.00D-06 EigRej= -1.00D+00 NBFU=   130
 Precomputing XC quadrature grid using
 IXCGrd= 4 IRadAn=           5 IRanWt=          -1 IRanGd=           0 AccXCQ= 0.00D+00.
 Generated NRdTot=       0 NPtTot=           0 NUsed=           0 NTot=          32
 NSgBfM=   130   130   130   130   130 MxSgAt=    14 MxSgA2=    14.
 Leave Link  302 at Tue Oct 15 01:31:05 2019, MaxMem=   280000000 cpu:               3.9 elap:               0.2
 (Enter /home/soft/g16/l303.exe)
 DipDrv:  MaxL=1.
 Leave Link  303 at Tue Oct 15 01:31:05 2019, MaxMem=   280000000 cpu:               0.6 elap:               0.0
 (Enter /home/soft/g16/l401.exe)
 Initial guess from the checkpoint file:  "R2.chk"
 B after Tr=     0.000000   -0.000000    0.000000
         Rot=    0.993860    0.004341    0.002870   -0.110522 Ang=  12.70 deg.
 Guess basis will be translated and rotated to current coordinates.
 JPrj=2 DoOrth=T DoCkMO=T.
 Generating alternative initial guess.
 ExpMin= 4.38D-02 ExpMax= 5.48D+03 ExpMxC= 8.25D+02 IAcc=2 IRadAn=         4 AccDes= 0.00D+00
 Harris functional with IExCor=  402 and IRadAn=       4 diagonalized for initial guess.
 HarFok:  IExCor=  402 AccDes= 0.00D+00 IRadAn=         4 IDoV= 1 UseB2=F ITyADJ=14
 ICtDFT=  3500011 ScaDFX=  1.000000  1.000000  1.000000  1.000000
 FoFCou: FMM=F IPFlag=           0 FMFlag=      100000 FMFlg1=           0
         NFxFlg=           0 DoJE=T BraDBF=F KetDBF=T FulRan=T
         wScrn=  0.000000 ICntrl=       500 IOpCl=  0 I1Cent=   200000004 NGrid=           0
         NMat0=    1 NMatS0=      1 NMatT0=    0 NMatD0=    1 NMtDS0=    0 NMtDT0=    0
 Petite list used in FoFCou.
 Harris En= -270.322702286789    
 Leave Link  401 at Tue Oct 15 01:31:06 2019, MaxMem=   280000000 cpu:               7.7 elap:               0.4
 (Enter /home/soft/g16/l502.exe)
 Integral symmetry usage will be decided dynamically.
 Closed shell SCF:
 Using DIIS extrapolation, IDIIS=  1040.
 NGot=   280000000 LenX=   279961490 LenY=   279944149
 Requested convergence on RMS density matrix=1.00D-08 within 128 cycles.
 Requested convergence on MAX density matrix=1.00D-06.
 Requested convergence on             energy=1.00D-06.
 No special actions if energy rises.
 Fock matrices will be formed incrementally for  20 cycles.

 Cycle   1  Pass 1  IDiag  1:
 FoFJK:  IHMeth= 1 ICntrl=       0 DoSepK=F KAlg= 0 I1Cent=           0 FoldK=F
 IRaf= 990000000 NMat=       1 IRICut=       1 DoRegI=T DoRafI=F ISym2E= 0 IDoP0=0 IntGTp=1.
 FoFCou: FMM=F IPFlag=           0 FMFlag=      100000 FMFlg1=           0
         NFxFlg=           0 DoJE=F BraDBF=F KetDBF=F FulRan=T
         wScrn=  0.000000 ICntrl=         0 IOpCl=  0 I1Cent=           0 NGrid=           0
         NMat0=    1 NMatS0=      1 NMatT0=    0 NMatD0=    1 NMtDS0=    0 NMtDT0=    0
 Symmetry not used in FoFCou.
 E= -270.268772884347    
 DIIS: error= 3.52D-03 at cycle   1 NSaved=   1.
 NSaved= 1 IEnMin= 1 EnMin= -270.268772884347     IErMin= 1 ErrMin= 3.52D-03
 ErrMax= 3.52D-03  0.00D+00 EMaxC= 1.00D-01 BMatC= 6.03D-03 BMatP= 6.03D-03
 IDIUse=3 WtCom= 9.65D-01 WtEn= 3.52D-02
 Coeff-Com:  0.100D+01
 Coeff-En:   0.100D+01
 Coeff:      0.100D+01
 Gap=     0.465 Goal=   None    Shift=    0.000
 GapD=    0.465 DampG=2.000 DampE=1.000 DampFc=2.0000 IDamp=-1.
 RMSDP=3.23D-03 MaxDP=1.39D-01              OVMax= 7.61D-02

 Cycle   2  Pass 1  IDiag  1:
 RMSU=  3.00D-03    CP:  9.61D-01
 E= -270.282242223482     Delta-E=       -0.013469339135 Rises=F Damp=F
 DIIS: error= 6.59D-04 at cycle   2 NSaved=   2.
 NSaved= 2 IEnMin= 2 EnMin= -270.282242223482     IErMin= 2 ErrMin= 6.59D-04
 ErrMax= 6.59D-04  0.00D+00 EMaxC= 1.00D-01 BMatC= 2.31D-04 BMatP= 6.03D-03
 IDIUse=3 WtCom= 9.93D-01 WtEn= 6.59D-03
 Coeff-Com: -0.107D-01 0.101D+01
 Coeff-En:   0.000D+00 0.100D+01
 Coeff:     -0.107D-01 0.101D+01
 Gap=     0.132 Goal=   None    Shift=    0.000
 RMSDP=9.44D-04 MaxDP=3.73D-02 DE=-1.35D-02 OVMax= 2.40D-02

 Cycle   3  Pass 1  IDiag  1:
 RMSU=  7.69D-04    CP:  9.55D-01  1.17D+00
 E= -270.282235796282     Delta-E=        0.000006427200 Rises=F Damp=F
 DIIS: error= 1.01D-03 at cycle   3 NSaved=   3.
 NSaved= 3 IEnMin= 2 EnMin= -270.282242223482     IErMin= 2 ErrMin= 6.59D-04
 ErrMax= 1.01D-03  0.00D+00 EMaxC= 1.00D-01 BMatC= 4.19D-04 BMatP= 2.31D-04
 IDIUse=3 WtCom= 2.39D-01 WtEn= 7.61D-01
 Coeff-Com: -0.409D-01 0.610D+00 0.431D+00
 Coeff-En:   0.000D+00 0.505D+00 0.495D+00
 Coeff:     -0.980D-02 0.530D+00 0.480D+00
 Gap=     0.129 Goal=   None    Shift=    0.000
 RMSDP=4.56D-04 MaxDP=8.45D-03 DE= 6.43D-06 OVMax= 1.80D-02

 Cycle   4  Pass 1  IDiag  1:
 RMSU=  3.48D-04    CP:  9.54D-01  1.19D+00  6.25D-01
 E= -270.282591767386     Delta-E=       -0.000355971104 Rises=F Damp=F
 DIIS: error= 4.35D-04 at cycle   4 NSaved=   4.
 NSaved= 4 IEnMin= 4 EnMin= -270.282591767386     IErMin= 4 ErrMin= 4.35D-04
 ErrMax= 4.35D-04  0.00D+00 EMaxC= 1.00D-01 BMatC= 7.86D-05 BMatP= 2.31D-04
 IDIUse=3 WtCom= 9.96D-01 WtEn= 4.35D-03
 Coeff-Com: -0.239D-01 0.224D+00 0.323D+00 0.477D+00
 Coeff-En:   0.000D+00 0.000D+00 0.190D+00 0.810D+00
 Coeff:     -0.238D-01 0.223D+00 0.323D+00 0.478D+00
 Gap=     0.130 Goal=   None    Shift=    0.000
 RMSDP=1.61D-04 MaxDP=3.64D-03 DE=-3.56D-04 OVMax= 7.66D-03

 Cycle   5  Pass 1  IDiag  1:
 RMSU=  1.14D-04    CP:  9.53D-01  1.20D+00  7.47D-01  8.70D-01
 E= -270.282677272724     Delta-E=       -0.000085505338 Rises=F Damp=F
 DIIS: error= 1.11D-04 at cycle   5 NSaved=   5.
 NSaved= 5 IEnMin= 5 EnMin= -270.282677272724     IErMin= 5 ErrMin= 1.11D-04
 ErrMax= 1.11D-04  0.00D+00 EMaxC= 1.00D-01 BMatC= 5.01D-06 BMatP= 7.86D-05
 IDIUse=3 WtCom= 9.99D-01 WtEn= 1.11D-03
 Coeff-Com: -0.572D-02 0.306D-01 0.118D+00 0.279D+00 0.578D+00
 Coeff-En:   0.000D+00 0.000D+00 0.000D+00 0.000D+00 0.100D+01
 Coeff:     -0.571D-02 0.306D-01 0.118D+00 0.279D+00 0.578D+00
 Gap=     0.130 Goal=   None    Shift=    0.000
 RMSDP=6.31D-05 MaxDP=2.19D-03 DE=-8.55D-05 OVMax= 1.90D-03

 Cycle   6  Pass 1  IDiag  1:
 RMSU=  3.60D-05    CP:  9.53D-01  1.21D+00  7.61D-01  9.96D-01  9.85D-01
 E= -270.282682159137     Delta-E=       -0.000004886413 Rises=F Damp=F
 DIIS: error= 4.96D-05 at cycle   6 NSaved=   6.
 NSaved= 6 IEnMin= 6 EnMin= -270.282682159137     IErMin= 6 ErrMin= 4.96D-05
 ErrMax= 4.96D-05  0.00D+00 EMaxC= 1.00D-01 BMatC= 9.66D-07 BMatP= 5.01D-06
 IDIUse=1 WtCom= 1.00D+00 WtEn= 0.00D+00
 Coeff-Com: -0.727D-03-0.112D-01 0.222D-01 0.883D-01 0.354D+00 0.548D+00
 Coeff:     -0.727D-03-0.112D-01 0.222D-01 0.883D-01 0.354D+00 0.548D+00
 Gap=     0.130 Goal=   None    Shift=    0.000
 RMSDP=1.61D-05 MaxDP=4.04D-04 DE=-4.89D-06 OVMax= 4.84D-04

 Cycle   7  Pass 1  IDiag  1:
 RMSU=  1.05D-05    CP:  9.53D-01  1.21D+00  7.72D-01  9.97D-01  1.00D+00
                    CP:  8.23D-01
 E= -270.282682960373     Delta-E=       -0.000000801236 Rises=F Damp=F
 DIIS: error= 1.72D-05 at cycle   7 NSaved=   7.
 NSaved= 7 IEnMin= 7 EnMin= -270.282682960373     IErMin= 7 ErrMin= 1.72D-05
 ErrMax= 1.72D-05  0.00D+00 EMaxC= 1.00D-01 BMatC= 1.36D-07 BMatP= 9.66D-07
 IDIUse=1 WtCom= 1.00D+00 WtEn= 0.00D+00
 Coeff-Com:  0.796D-03-0.119D-01-0.908D-02-0.771D-03 0.117D+00 0.326D+00
 Coeff-Com:  0.579D+00
 Coeff:      0.796D-03-0.119D-01-0.908D-02-0.771D-03 0.117D+00 0.326D+00
 Coeff:      0.579D+00
 Gap=     0.130 Goal=   None    Shift=    0.000
 RMSDP=1.22D-05 MaxDP=4.81D-04 DE=-8.01D-07 OVMax= 2.35D-04

 Cycle   8  Pass 1  IDiag  1:
 RMSU=  6.35D-06    CP:  9.53D-01  1.21D+00  7.74D-01  1.02D+00  1.05D+00
                    CP:  8.90D-01  6.74D-01
 E= -270.282683094005     Delta-E=       -0.000000133631 Rises=F Damp=F
 DIIS: error= 7.58D-06 at cycle   8 NSaved=   8.
 NSaved= 8 IEnMin= 8 EnMin= -270.282683094005     IErMin= 8 ErrMin= 7.58D-06
 ErrMax= 7.58D-06  0.00D+00 EMaxC= 1.00D-01 BMatC= 1.20D-08 BMatP= 1.36D-07
 IDIUse=1 WtCom= 1.00D+00 WtEn= 0.00D+00
 Coeff-Com:  0.479D-03-0.673D-02-0.812D-02-0.913D-02 0.435D-01 0.157D+00
 Coeff-Com:  0.344D+00 0.479D+00
 Coeff:      0.479D-03-0.673D-02-0.812D-02-0.913D-02 0.435D-01 0.157D+00
 Coeff:      0.344D+00 0.479D+00
 Gap=     0.130 Goal=   None    Shift=    0.000
 RMSDP=2.34D-06 MaxDP=8.81D-05 DE=-1.34D-07 OVMax= 6.73D-05

 Cycle   9  Pass 1  IDiag  1:
 RMSU=  1.45D-06    CP:  9.53D-01  1.21D+00  7.74D-01  1.02D+00  1.06D+00
                    CP:  8.83D-01  7.15D-01  9.43D-01
 E= -270.282683105635     Delta-E=       -0.000000011630 Rises=F Damp=F
 DIIS: error= 1.57D-06 at cycle   9 NSaved=   9.
 NSaved= 9 IEnMin= 9 EnMin= -270.282683105635     IErMin= 9 ErrMin= 1.57D-06
 ErrMax= 1.57D-06  0.00D+00 EMaxC= 1.00D-01 BMatC= 1.00D-09 BMatP= 1.20D-08
 IDIUse=1 WtCom= 1.00D+00 WtEn= 0.00D+00
 Coeff-Com:  0.134D-03-0.143D-02-0.256D-02-0.415D-02 0.550D-02 0.340D-01
 Coeff-Com:  0.869D-01 0.262D+00 0.620D+00
 Coeff:      0.134D-03-0.143D-02-0.256D-02-0.415D-02 0.550D-02 0.340D-01
 Coeff:      0.869D-01 0.262D+00 0.620D+00
 Gap=     0.130 Goal=   None    Shift=    0.000
 RMSDP=9.06D-07 MaxDP=2.18D-05 DE=-1.16D-08 OVMax= 1.75D-05

 Cycle  10  Pass 1  IDiag  1:
 RMSU=  4.44D-07    CP:  9.53D-01  1.21D+00  7.74D-01  1.02D+00  1.06D+00
                    CP:  8.96D-01  7.35D-01  9.30D-01  8.93D-01
 E= -270.282683106680     Delta-E=       -0.000000001045 Rises=F Damp=F
 DIIS: error= 4.53D-07 at cycle  10 NSaved=  10.
 NSaved=10 IEnMin=10 EnMin= -270.282683106680     IErMin=10 ErrMin= 4.53D-07
 ErrMax= 4.53D-07  0.00D+00 EMaxC= 1.00D-01 BMatC= 4.05D-11 BMatP= 1.00D-09
 IDIUse=1 WtCom= 1.00D+00 WtEn= 0.00D+00
 Coeff-Com: -0.533D-05 0.207D-03-0.104D-03-0.553D-03-0.344D-02-0.347D-02
 Coeff-Com: -0.913D-02 0.379D-01 0.167D+00 0.811D+00
 Coeff:     -0.533D-05 0.207D-03-0.104D-03-0.553D-03-0.344D-02-0.347D-02
 Coeff:     -0.913D-02 0.379D-01 0.167D+00 0.811D+00
 Gap=     0.130 Goal=   None    Shift=    0.000
 RMSDP=4.16D-07 MaxDP=1.44D-05 DE=-1.04D-09 OVMax= 5.17D-06

 Cycle  11  Pass 1  IDiag  1:
 RMSU=  1.40D-07    CP:  9.53D-01  1.21D+00  7.74D-01  1.02D+00  1.06D+00
                    CP:  8.97D-01  7.32D-01  9.74D-01  9.00D-01  8.02D-01
 E= -270.282683106729     Delta-E=       -0.000000000050 Rises=F Damp=F
 DIIS: error= 1.05D-07 at cycle  11 NSaved=  11.
 NSaved=11 IEnMin=11 EnMin= -270.282683106729     IErMin=11 ErrMin= 1.05D-07
 ErrMax= 1.05D-07  0.00D+00 EMaxC= 1.00D-01 BMatC= 3.19D-12 BMatP= 4.05D-11
 IDIUse=1 WtCom= 1.00D+00 WtEn= 0.00D+00
 Coeff-Com: -0.829D-05 0.138D-03 0.867D-04 0.702D-04-0.150D-02-0.253D-02
 Coeff-Com: -0.739D-02 0.111D-02 0.201D-01 0.269D+00 0.720D+00
 Coeff:     -0.829D-05 0.138D-03 0.867D-04 0.702D-04-0.150D-02-0.253D-02
 Coeff:     -0.739D-02 0.111D-02 0.201D-01 0.269D+00 0.720D+00
 Gap=     0.130 Goal=   None    Shift=    0.000
 RMSDP=6.20D-08 MaxDP=2.35D-06 DE=-4.96D-11 OVMax= 8.35D-07

 Cycle  12  Pass 1  IDiag  1:
 RMSU=  3.24D-08    CP:  9.53D-01  1.21D+00  7.74D-01  1.02D+00  1.06D+00
                    CP:  8.97D-01  7.33D-01  9.76D-01  9.02D-01  8.59D-01
                    CP:  1.05D+00
 E= -270.282683106730     Delta-E=       -0.000000000001 Rises=F Damp=F
 DIIS: error= 2.99D-08 at cycle  12 NSaved=  12.
 NSaved=12 IEnMin=12 EnMin= -270.282683106730     IErMin=12 ErrMin= 2.99D-08
 ErrMax= 2.99D-08  0.00D+00 EMaxC= 1.00D-01 BMatC= 3.80D-13 BMatP= 3.19D-12
 IDIUse=1 WtCom= 1.00D+00 WtEn= 0.00D+00
 Coeff-Com: -0.309D-05 0.437D-04 0.414D-04 0.839D-04-0.423D-03-0.744D-03
 Coeff-Com: -0.250D-02-0.156D-02-0.282D-02 0.627D-01 0.310D+00 0.635D+00
 Coeff:     -0.309D-05 0.437D-04 0.414D-04 0.839D-04-0.423D-03-0.744D-03
 Coeff:     -0.250D-02-0.156D-02-0.282D-02 0.627D-01 0.310D+00 0.635D+00
 Gap=     0.130 Goal=   None    Shift=    0.000
 RMSDP=1.26D-08 MaxDP=2.19D-07 DE=-6.82D-13 OVMax= 2.41D-07

 Cycle  13  Pass 1  IDiag  1:
 RMSU=  7.39D-09    CP:  9.53D-01  1.21D+00  7.74D-01  1.02D+00  1.06D+00
                    CP:  8.97D-01  7.33D-01  9.75D-01  9.02D-01  8.74D-01
                    CP:  1.08D+00  1.06D+00
 E= -270.282683106727     Delta-E=        0.000000000003 Rises=F Damp=F
 DIIS: error= 1.12D-08 at cycle  13 NSaved=  13.
 NSaved=13 IEnMin=12 EnMin= -270.282683106730     IErMin=13 ErrMin= 1.12D-08
 ErrMax= 1.12D-08  0.00D+00 EMaxC= 1.00D-01 BMatC= 3.74D-14 BMatP= 3.80D-13
 IDIUse=1 WtCom= 1.00D+00 WtEn= 0.00D+00
 Coeff-Com: -0.138D-06-0.844D-06 0.340D-05 0.281D-04 0.612D-05 0.230D-04
 Coeff-Com: -0.627D-04-0.744D-03-0.389D-02-0.110D-01 0.214D-01 0.234D+00
 Coeff-Com:  0.760D+00
 Coeff:     -0.138D-06-0.844D-06 0.340D-05 0.281D-04 0.612D-05 0.230D-04
 Coeff:     -0.627D-04-0.744D-03-0.389D-02-0.110D-01 0.214D-01 0.234D+00
 Coeff:      0.760D+00
 Gap=     0.130 Goal=   None    Shift=    0.000
 RMSDP=1.19D-08 MaxDP=5.90D-07 DE= 3.30D-12 OVMax= 1.05D-07

 Cycle  14  Pass 1  IDiag  1:
 RMSU=  2.04D-09    CP:  9.53D-01  1.21D+00  7.74D-01  1.02D+00  1.06D+00
                    CP:  8.97D-01  7.32D-01  9.76D-01  9.02D-01  8.71D-01
                    CP:  1.12D+00  1.12D+00  8.77D-01
 E= -270.282683106733     Delta-E=       -0.000000000006 Rises=F Damp=F
 DIIS: error= 2.02D-09 at cycle  14 NSaved=  14.
 NSaved=14 IEnMin=14 EnMin= -270.282683106733     IErMin=14 ErrMin= 2.02D-09
 ErrMax= 2.02D-09  0.00D+00 EMaxC= 1.00D-01 BMatC= 1.81D-15 BMatP= 3.74D-14
 IDIUse=1 WtCom= 1.00D+00 WtEn= 0.00D+00
 Coeff-Com:  0.117D-06-0.225D-05-0.184D-05 0.309D-05 0.164D-04 0.441D-04
 Coeff-Com:  0.109D-03-0.387D-04-0.585D-03-0.455D-02-0.949D-02 0.709D-02
 Coeff-Com:  0.130D+00 0.877D+00
 Coeff:      0.117D-06-0.225D-05-0.184D-05 0.309D-05 0.164D-04 0.441D-04
 Coeff:      0.109D-03-0.387D-04-0.585D-03-0.455D-02-0.949D-02 0.709D-02
 Coeff:      0.130D+00 0.877D+00
 Gap=     0.130 Goal=   None    Shift=    0.000
 RMSDP=2.21D-09 MaxDP=1.03D-07 DE=-6.25D-12 OVMax= 2.34D-08

 SCF Done:  E(RB3LYP) =  -270.282683107     A.U. after   14 cycles
            NFock= 14  Conv=0.22D-08     -V/T= 2.0054
 KE= 2.688235771910D+02 PE=-1.117000025457D+03 EE= 3.336919598176D+02
 Leave Link  502 at Tue Oct 15 01:31:10 2019, MaxMem=   280000000 cpu:             102.0 elap:               4.3
 (Enter /home/soft/g16/l701.exe)
 ... and contract with generalized density number  0.
 Compute integral first derivatives.
 Leave Link  701 at Tue Oct 15 01:31:10 2019, MaxMem=   280000000 cpu:               2.8 elap:               0.1
 (Enter /home/soft/g16/l702.exe)
 L702 exits ... SP integral derivatives will be done elsewhere.
 Leave Link  702 at Tue Oct 15 01:31:10 2019, MaxMem=   280000000 cpu:               0.5 elap:               0.0
 (Enter /home/soft/g16/l703.exe)
 Integral derivatives from FoFJK, PRISM(SPDF).
 Compute integral first derivatives, UseDBF=F ICtDFT=           0.
 Calling FoFJK, ICntrl=      2127 FMM=F ISym2X=0 I1Cent= 0 IOpClX= 0 NMat=1 NMatS=1 NMatT=0.
 FoFJK:  IHMeth= 1 ICntrl=    2127 DoSepK=F KAlg= 0 I1Cent=           0 FoldK=F
 IRaf=         0 NMat=       1 IRICut=       1 DoRegI=T DoRafI=F ISym2E= 0 IDoP0=0 IntGTp=1.
 FoFCou: FMM=F IPFlag=           0 FMFlag=      100000 FMFlg1=         800
         NFxFlg=           0 DoJE=F BraDBF=F KetDBF=F FulRan=T
         wScrn=  0.000000 ICntrl=      2127 IOpCl=  0 I1Cent=           0 NGrid=           0
[...]
 ! D4    D(3,1,4,6)           -178.4854         -DE/DX =    0.0                 !
 ! D5    D(12,1,4,5)           -76.8909         -DE/DX =    0.0                 !
 ! D6    D(12,1,4,6)           103.9382         -DE/DX =    0.0                 !
 ! D7    D(13,1,4,5)           -42.5853         -DE/DX =    0.0                 !
 ! D8    D(13,1,4,6)           138.2437         -DE/DX =    0.0                 !
 ! D9    D(2,1,12,10)           11.5902         -DE/DX =    0.0                 !
 ! D10   D(2,1,12,14)          -88.5211         -DE/DX =    0.0                 !
 ! D11   D(3,1,12,10)          168.2195         -DE/DX =    0.0                 !
 ! D12   D(3,1,12,14)           68.1082         -DE/DX =    0.0                 !
 ! D13   D(4,1,12,10)          -79.3072         -DE/DX =    0.0                 !
 ! D14   D(4,1,12,14)         -179.4185         -DE/DX =    0.0                 !
 ! D15   D(1,4,6,7)           -175.1632         -DE/DX =    0.0                 !
 ! D16   D(5,4,6,7)              5.6114         -DE/DX =    0.0                 !
 ! D17   D(4,6,7,8)           -167.2197         -DE/DX =    0.0                 !
 ! D18   D(4,6,7,9)            -51.5731         -DE/DX =    0.0                 !
 ! D19   D(4,6,7,10)            72.808          -DE/DX =    0.0                 !
 ! D20   D(6,7,10,11)           51.564          -DE/DX =    0.0                 !
 ! D21   D(6,7,10,12)         -129.2427         -DE/DX =    0.0                 !
 ! D22   D(8,7,10,11)          -64.4751         -DE/DX =    0.0                 !
 ! D23   D(8,7,10,12)          114.7182         -DE/DX =    0.0                 !
 ! D24   D(9,7,10,11)          175.4685         -DE/DX =    0.0                 !
 ! D25   D(9,7,10,12)           -5.3382         -DE/DX =    0.0                 !
 ! D26   D(7,10,12,1)           68.5499         -DE/DX =    0.0                 !
 ! D27   D(7,10,12,13)           1.2484         -DE/DX =    0.0                 !
 ! D28   D(7,10,12,14)        -178.2316         -DE/DX =    0.0                 !
 ! D29   D(11,10,12,1)        -112.294          -DE/DX =    0.0                 !
 ! D30   D(11,10,12,13)       -179.5955         -DE/DX =    0.0                 !
 ! D31   D(11,10,12,14)          0.9245         -DE/DX =    0.0                 !
 --------------------------------------------------------------------------------
 GradGradGradGradGradGradGradGradGradGradGradGradGradGradGradGradGradGrad

 Leave Link  103 at Tue Oct 15 01:36:06 2019, MaxMem=   280000000 cpu:               2.4 elap:               0.1
 (Enter /home/soft/g16/l9999.exe)

 ----------------------------------------------------------------------

 Electric dipole moment (input orientation):
 (Debye = 10**-18 statcoulomb cm , SI units = C m)
                  (au)            (Debye)         (10**-30 SI)
   Tot        0.746654D+00      0.189780D+01      0.633039D+01
   x          0.485397D-01      0.123376D+00      0.411536D+00
   y         -0.404791D+00     -0.102888D+01     -0.343196D+01
   z          0.625523D+00      0.158992D+01      0.530341D+01

 Dipole polarizability, Alpha (input orientation).
 (esu units = cm**3 , SI units = C**2 m**2 J**-1)
 Alpha(0;0):
               (au)            (10**-24 esu)      (10**-40 SI)
   iso        0.670924D+02      0.994206D+01      0.110620D+02
   aniso      0.350879D+02      0.519949D+01      0.578522D+01
   xx         0.616832D+02      0.914051D+01      0.101702D+02
   yx        -0.603318D+01     -0.894025D+00     -0.994737D+00
   yy         0.674468D+02      0.999459D+01      0.111205D+02
   zx         0.667902D+01      0.989729D+00      0.110122D+01
   zy        -0.173756D+02     -0.257480D+01     -0.286485D+01
   zz         0.721471D+02      0.106911D+02      0.118954D+02

 ----------------------------------------------------------------------

 Dipole orientation:
     6         -7.47152713         -1.31521372         -2.38981110
     1         -6.44269243         -1.80263141         -4.09659497
     1         -9.47271602         -0.90202814         -2.53640619
     6         -6.33277877         -1.20911245         -0.13977512
     1         -7.34822153         -0.73705047          1.58887777
     8         -3.80706742         -1.65427013          0.15078073
     6         -2.88104052         -1.67489295          2.70068556
     1         -0.82361081         -1.61152976          2.48844233
     1         -3.48203940          0.04999028          3.69188443
     6         -3.67313093         -3.99776603          4.13328174
     1         -3.27515252         -5.79132362          3.20136358
     6         -4.76611666         -3.95887595          6.40876833
     1         -5.19453120         -2.19237248          7.37388916
     1         -5.25946296         -5.68922843          7.39941159

 Electric dipole moment (dipole orientation):
 (Debye = 10**-18 statcoulomb cm , SI units = C m)
                  (au)            (Debye)         (10**-30 SI)
   Tot        0.746654D+00      0.189780D+01      0.633039D+01
   x          0.000000D+00      0.000000D+00      0.000000D+00
   y          0.000000D+00      0.000000D+00      0.000000D+00
   z          0.746654D+00      0.189780D+01      0.633039D+01

 Dipole polarizability, Alpha (dipole orientation).
 (esu units = cm**3 , SI units = C**2 m**2 J**-1)
 Alpha(0;0):
               (au)            (10**-24 esu)      (10**-40 SI)
   iso        0.670924D+02      0.994206D+01      0.110620D+02
   aniso      0.350879D+02      0.519949D+01      0.578522D+01
   xx         0.606756D+02      0.899120D+01      0.100041D+02
   yx        -0.962203D+00     -0.142584D+00     -0.158646D+00
   yy         0.529437D+02      0.784545D+01      0.872924D+01
   zx         0.728879D+01      0.108009D+01      0.120176D+01
   zy        -0.491814D+01     -0.728793D+00     -0.810892D+00
   zz         0.876578D+02      0.129895D+02      0.144528D+02

 ----------------------------------------------------------------------
 1\1\GINC-NODE13\Freq\RB3LYP\6-31+G(d)\C5H8O1\ROOT\15-Oct-2019\0\\#P Ge
 om=AllCheck Guess=TCheck SCRF=Check GenChk RB3LYP/6-31+G(d) Freq\\Titl
 e Card Required\\0,1\C,-4.0402303017,0.0251126264,-1.1797581626\H,-3.5
 607091002,0.3085310031,-2.1116520077\H,-5.0976284641,0.2305398175,-1.0
 573656405\C,-3.3605347656,-0.5616733237,-0.190988857\H,-3.8323890666,-
 0.8580560672,0.7457340622\O,-2.0215815645,-0.8172911509,-0.2767763305\
 C,-1.4451645902,-1.5485994022,0.8158956426\H,-0.3655818938,-1.43866174
 08,0.669201453\H,-1.7108643978,-1.0722733132,1.7708466418\C,-1.8376468
 086,-3.000255559,0.8118499787\H,-1.6777913331,-3.5261778098,-0.1295378
 435\C,-2.3360247779,-3.6468700622,1.8693954009\H,-2.5110816534,-3.1428
 089358,2.8187884523\H,-2.5799727026,-4.7053009822,1.8291294905\\Versio
 n=ES64L-G16RevA.03\State=1-A\HF=-270.5188766\RMSD=1.881e-09\RMSF=4.224
 e-06\ZeroPoint=0.118\Thermal=0.1251371\Dipole=0.0485397,-0.4047912,0.6
 255234\DipoleDeriv=-0.2224448,0.1067633,-0.2678909,0.0983325,-0.487128
 5,-0.0116103,-0.3355545,0.0234636,-0.2503684,0.0280112,0.0038207,0.080
 3588,0.0142841,0.1556062,0.0622365,0.0472359,0.0717921,-0.0048528,-0.0
 584504,0.0578614,0.0107115,0.0414379,0.1455495,0.0489252,0.0466238,0.0
 442772,0.0578314,1.2802525,-0.7615895,0.6595532,-0.3269558,0.1621159,-
 0.2645451,0.0542982,-0.1443548,0.2377399,0.0049086,0.0290104,0.0110545
 ,-0.0075995,0.1341304,0.0743825,0.0791187,0.070408,-0.0621958,-1.41423
 37,0.772835,-0.7708615,0.288324,-0.6617491,0.3810751,-0.1381709,0.2600
 628,-0.5980982,0.5298385,-0.267371,0.2602978,-0.2006502,0.7317382,-0.3
 643981,0.3842925,-0.3580756,0.7543698,-0.1177783,0.002875,-0.017491,-0
 .0183608,-0.0367817,0.0738494,0.0372634,0.0577912,0.0351038,0.0371744,
 0.0424137,0.0826691,0.0267662,-0.0506162,-0.0432273,-0.0577234,-0.0342
 577,-0.164329,-0.2130189,0.0856769,-0.112533,0.0761689,0.0020478,0.071
 943,-0.1756216,0.0446388,0.0130488,0.1208244,-0.0490369,0.0630522,-0.0
 181714,0.002338,-0.0598396,0.0519343,-0.0739369,-0.0440273,-0.2527962,
 0.0547757,-0.0811746,0.0830792,-0.015428,0.1248695,-0.0618817,0.108309
 9,0.0123081,0.1313954,-0.0180776,0.0420862,-0.0056147,0.0099312,-0.107
 3331,0.0483911,-0.0524979,-0.0415441,0.1463172,-0.059957,0.0401677,-0.
 0510405,-0.0917536,0.0136724,0.0197942,-0.0176207,0.0550137\Polar=61.6
 832025,-6.0331808,67.4468285,6.679019,-17.3756016,72.1470623\Quadrupol
 e=0.3369744,-0.9138053,0.5768309,-0.4847252,-0.2745075,0.242141\PG=C01
  [X(C5H8O1)]\NImag=0\\0.68863514,-0.15589167,0.23329943,0.02333335,-0.
 25981514,0.67816648,-0.11341921,-0.02878441,0.11451021,0.10909323,-0.0
 2682532,-0.05464559,0.07273007,0.03042537,0.04776512,0.11007972,0.0736
 7996,-0.26433603,-0.12136495,-0.08164423,0.27923151,-0.33443258,0.0607
 6620,0.03502212,-0.00706692,0.00226209,-0.00083421,0.35201105,0.058419
 34,-0.03945103,0.00558781,-0.00801563,0.00260261,-0.00004784,-0.064980
 92,0.03721487,0.04090832,0.00400844,-0.05548423,0.02297368,-0.00590123
 ,0.00125929,-0.03728694,-0.00428527,0.05098987,-0.20160802,0.10074216,
 -0.14806398,0.01117436,-0.00728971,0.01394584,-0.01208717,0.01272759,-
 0.02432498,0.61332781,0.10164100,-0.14630066,0.16943572,0.00527963,0.0
 0236504,0.00678261,-0.00028151,-0.00348733,0.00241324,-0.13701135,0.28
 179868,-0.15010793,0.16945965,-0.35971223,-0.01498810,0.01371478,-0.01
 716546,0.00597838,-0.00494908,0.00537469,0.05503688,-0.27992152,0.7376
 2584,0.01115047,0.00511037,-0.01434722,-0.00073420,0.00342450,-0.00190
 124,0.00041896,-0.00137444,-0.00038133,-0.10070404,-0.02704686,0.09490
 245,0.11797916,-0.00617404,0.00295870,0.01214569,0.00326615,0.00729873
 ,0.00482229,-0.00113066,-0.00457318,-0.00234027,-0.02824260,-0.0649789
 7,0.07436975,0.02557258,0.05316759,0.01155738,0.00658982,-0.01455749,-
 0.00144299,0.00514288,-0.00002008,-0.00101568,-0.00241363,-0.00032206,
 0.09854258,0.07240838,-0.26017754,-0.10884183,-0.08303648,0.27212634,-
 0.04751787,0.01860936,-0.01456202,0.00107551,-0.00171231,0.00032442,0.
 00142337,0.00225440,-0.00098163,-0.28268212,0.03285376,0.05031564,-0.0
 2985611,0.00559583,0.00394647,0.46313747,0.02991103,0.00282517,0.00100
 666,-0.00205077,-0.00460488,-0.00323028,0.00321831,0.00555470,0.005250
 22,0.05068062,-0.05747196,0.02049546,-0.00350804,0.00626992,0.00037332
 ,-0.11429588,0.15380056,-0.03862547,0.00676627,0.01364199,0.00042013,-
 0.00311433,0.00102197,-0.00253747,0.00518313,-0.00257723,0.00913312,0.
 02933329,-0.10138984,0.02757707,-0.00495452,0.00092225,0.04078177,-0.1
 2586485,0.28491808,-0.00144851,-0.00090566,0.00422953,0.00003379,-0.00
 000332,-0.00016949,-0.00013701,0.00069956,-0.00080463,-0.03417851,0.02
 291386,-0.03520713,0.00164399,0.00090282,-0.00258303,-0.09281031,0.019
 27108,-0.01207607,0.58229512,-0.00333804,0.00216784,-0.00177454,-0.000
 19691,-0.00104662,-0.00043238,-0.00004150,0.00269256,0.00081369,0.0136
 5668,-0.01258961,0.00291395,-0.00227992,0.00031346,0.00136242,0.027525
 88,-0.08493544,0.04673383,0.01280232,0.47274325,0.00773465,-0.00195040
 ,0.00224096,-0.00040088,-0.00071808,-0.00028689,0.00109100,0.00071451,
 0.00125629,-0.01674785,-0.00128807,-0.00072548,0.00549828,-0.00056324,
 0.00109169,-0.03694882,0.05706357,-0.15311389,-0.06808883,0.06807211,0
 .51810787,-0.00096679,0.00012891,0.00020018,0.00000233,0.00000593,-0.0
 0005311,-0.00011001,0.00017433,-0.00016818,0.00154426,0.00038106,-0.00
 335863,0.00023080,-0.00010276,0.00001931,-0.01956884,0.00581278,-0.004
 49189,-0.30057003,-0.02597582,0.04076671,0.33086948,0.00108942,-0.0001
 9463,-0.00012187,-0.00002652,0.00002437,0.00004796,0.00011460,-0.00023
 895,0.00015848,0.00123496,-0.00049353,0.00368049,-0.00015144,-0.000110
 23,-0.00013869,0.02424459,-0.00126434,0.00259815,-0.03615045,-0.051239
 93,-0.00109958,0.02637095,0.05956106,-0.00168978,0.00028931,0.00061603
 ,0.00007996,-0.00013181,-0.00004080,-0.00017582,0.00033422,-0.00026888
 ,-0.00027561,0.00123799,-0.00406068,-0.00060436,-0.00001566,0.00011979
 ,-0.03675866,0.00662819,-0.00383682,0.05140592,-0.00259514,-0.05594271
 ,-0.03782727,-0.00963994,0.06265164,-0.00039173,0.00010742,-0.00008310
 ,-0.00015829,-0.00042335,-0.00004044,0.00006377,0.00040040,0.00018876,
 0.00352636,-0.00121878,-0.00311803,-0.00017504,0.00000022,0.00037885,0
 .00138308,-0.00241405,-0.01777352,-0.07296374,0.03053864,0.06079583,-0
 .00594999,0.01473085,0.02689503,0.07058789,0.00028134,-0.00045402,0.00
 053761,0.00009388,0.00022470,0.00006020,-0.00001780,-0.00026530,-0.000
 14399,-0.00317491,0.00171047,0.00045880,-0.00023905,0.00010918,-0.0004
 5952,-0.00029738,0.00637405,0.02302713,0.03079532,-0.10363658,-0.09843
 619,-0.00102560,0.00259833,0.00292784,-0.03302990,0.11189261,-0.001720
 80,0.00059871,0.00000780,0.00011719,-0.00028920,0.00015102,-0.00007636
 ,0.00022698,0.00000480,0.00725611,-0.00117777,0.00001427,-0.00145336,-
 0.00039386,0.00073469,-0.00520207,0.00192581,-0.03390214,0.05538548,-0
 .09765353,-0.22559365,0.00240656,-0.00273363,-0.00211920,-0.05841870,0
 .09994133,0.25842697,-0.00071671,0.00027503,-0.00030026,0.00007521,0.0
 0020783,0.00012758,-0.00015685,-0.00044717,-0.00025634,0.00390115,0.00
 199150,0.00006828,-0.00013942,0.00036920,-0.00015603,0.00530048,0.0158
 0953,-0.00215684,-0.09191432,-0.04181008,0.00317093,-0.00581931,-0.033
 13432,-0.00111997,0.00322888,0.00850513,0.00179717,0.24826787,-0.00033
 190,0.00004274,-0.00023899,0.00006615,0.00012589,0.00001832,0.00000661
 ,-0.00001305,-0.00009391,0.00006883,-0.00089451,-0.00033424,0.00041000
 ,-0.00014270,0.00028007,0.00241545,-0.02437007,0.01700207,-0.03682241,
 -0.20051534,-0.02179275,-0.00430082,-0.00527487,0.00029708,-0.00734335
 ,-0.01545270,-0.00194814,0.13067167,0.58225197,-0.00135280,0.00043277,
 -0.00076525,0.00004600,0.00022135,0.00009828,-0.00018747,-0.00032977,-
 0.00022043,0.00508494,0.00115176,0.00061356,-0.00023423,-0.00022718,-0
 .00004729,-0.00175497,0.03895373,-0.01023562,0.00386445,-0.02323179,-0
 .08668535,0.00398172,0.00830139,0.00182978,-0.00737946,-0.02903117,-0.
 00012418,-0.20129209,-0.05403204,0.76055242,-0.00003155,-0.00010189,-0
 .00007104,0.00001992,0.00003988,0.00001396,0.00000636,-0.00000895,0.00
 000105,-0.00013114,0.00012289,0.00012628,-0.00001144,-0.00003055,0.000
 11601,0.00009211,-0.00016455,0.00090269,0.00428656,-0.00437747,-0.0086
 6541,0.00027920,0.00103328,-0.00001904,0.00085421,-0.00196776,0.000521
 99,-0.04893472,0.01469932,0.03863026,0.03743120,0.00006517,0.00003504,
 0.00004634,-0.00000081,-0.00005388,0.00001679,-0.00000411,-0.00002678,
 0.00000582,0.00032801,-0.00011943,0.00000370,-0.00015833,-0.00006219,-
 0.00005421,0.00024153,0.00331291,0.00113308,0.00429301,-0.01331358,-0.
 02808449,-0.00036026,0.00066746,0.00036171,-0.00206194,-0.00525649,0.0
 0041097,0.01604026,-0.12195727,-0.11813000,-0.01286249,0.12525105,0.00
 012355,-0.00000678,0.00012652,-0.00000429,-0.00001119,-0.00000057,0.00
 001177,-0.00000625,0.00000490,-0.00049971,0.00000568,-0.00002372,-0.00
 001931,-0.00000939,-0.00005976,0.00087235,-0.00102368,0.00164342,0.000
 55094,0.00223619,0.00008082,-0.00018834,-0.00039073,0.00024708,-0.0001
 6714,0.00061746,0.00080630,0.03903281,-0.11634071,-0.25798023,-0.04627
 669,0.12611733,0.27471987,0.00066430,0.00003759,0.00004848,-0.00008875
 ,-0.00008055,-0.00012970,0.00004591,0.00007903,0.00010874,-0.00150779,
 0.00045105,0.00049516,0.00013928,-0.00015746,-0.00053376,0.00005393,0.
 00023047,-0.00154396,0.00071748,-0.00853464,0.00870033,0.00020892,-0.0
 0031112,0.00003822,-0.00003043,0.00056191,-0.00032363,-0.11691664,-0.0
 9150580,0.14953828,0.00309018,-0.00375910,0.00454413,0.21113676,0.0010
 4861,-0.00025556,0.00040531,-0.00004791,-0.00005602,-0.00007095,0.0000
 7706,0.00001510,0.00011059,-0.00338212,0.00022553,0.00021194,0.0002134
 3,-0.00018903,-0.00008913,0.00251599,-0.00510789,0.00211480,-0.0160240
 6,-0.01347913,0.02459972,-0.00099103,-0.00331610,0.00022536,0.00029234
 ,0.00164895,0.00151904,-0.09280467,-0.21369045,0.16536143,0.00539700,0
 .01099075,-0.01380305,0.15292124,0.67119579,0.00009069,-0.00013723,-0.
 00001611,0.00003757,0.00003693,0.00004043,0.00002936,-0.00003414,0.000
 01047,-0.00012940,-0.00020028,0.00019177,-0.00003343,0.00014328,0.0001
 0774,0.00114053,-0.00239457,0.00263293,0.00105745,0.00653656,0.0013520
 6,-0.00141075,-0.00181477,0.00035609,-0.00132594,-0.00122438,0.0008025
 7,0.14980767,0.16330904,-0.39109013,0.01255989,0.01556598,-0.01886427,
 -0.20729365,-0.04818118,0.72422354,-0.00020178,-0.00002069,0.00001845,
 0.00001708,0.00001055,0.00004001,-0.00001888,-0.00000007,-0.00002523,0
 .00076722,-0.00011181,-0.00026271,-0.00002636,0.00003706,0.00008930,0.
 00008547,0.00126073,-0.00107277,-0.00734112,0.00196183,-0.00146822,-0.
 00026299,-0.00111216,0.00050487,0.00005219,-0.00025453,0.00029022,0.00
 359001,0.00572964,0.01102300,0.00939642,-0.00384929,0.00427046,-0.0454
 3546,0.01546550,0.04314243,0.03586442,-0.00002816,0.00003221,-0.000062
 66,-0.00000757,0.00000060,-0.00000946,-0.00000194,0.00000604,-0.000000
 23,0.00006204,0.00004170,-0.00001502,0.00005538,-0.00001887,0.00006250
 ,-0.00045906,-0.00035864,-0.00025100,0.00185215,0.00103539,0.00261911,
 0.00012953,0.00025693,-0.00008526,0.00019765,0.00005513,-0.00060634,-0
 .00317039,0.01088823,0.01360357,-0.00360237,-0.00013653,0.00180695,0.0
 1638235,-0.12098614,-0.11697006,-0.01605941,0.11809038,-0.00015399,0.0
 0002518,0.00012378,0.00001183,-0.00002989,0.00004084,-0.00001097,-0.00
 000022,-0.00001818,0.00061184,-0.00003969,-0.00044582,-0.00012368,0.00
 002327,0.00006284,-0.00033389,0.00063746,0.00023714,-0.00301064,-0.002
 08029,0.00022423,-0.00021422,-0.00020743,0.00034608,0.00016495,0.00142
 959,0.00068138,0.00477870,-0.01368651,-0.02056904,0.00464488,0.0020841
 5,-0.00116033,0.04423114,-0.11356113,-0.26275013,-0.05088083,0.1243360
 8,0.28129412,0.00028482,-0.00007272,0.00006531,-0.00002408,-0.00004160
 ,-0.00003839,0.00004000,0.00007252,0.00004870,-0.00134237,0.00003557,0
 .00011945,0.00008394,0.00009421,-0.00007659,-0.00011617,-0.00376128,0.
 00146322,0.01238660,0.00006902,0.00456227,0.00011297,0.00206734,-0.000
 45349,-0.00002715,-0.00023065,-0.00057979,0.00023436,-0.01376338,0.000
 03239,-0.00634728,0.00208837,-0.00225054,-0.05207767,-0.06468139,0.002
 32759,0.00351377,0.00464982,0.00028488,0.04327827,0.00013322,-0.000059
 65,0.00011799,-0.00000066,-0.00000005,0.00000701,0.00001356,-0.0000302
 5,0.00000443,-0.00040019,0.00019456,-0.00008865,-0.00002818,-0.0000424
 2,-0.00002773,0.00050785,-0.00002407,0.00029293,-0.00362424,0.00180373
 ,0.00086378,-0.00024720,-0.00097558,0.00016612,0.00022383,0.00045168,0
 .00017962,-0.00250353,-0.01099789,-0.00304407,0.00182366,0.00066894,0.
 00080817,-0.06631498,-0.32699580,-0.01463516,-0.00305733,-0.00890642,0
 .00106943,0.07347419,0.34491323,-0.00017690,0.00005943,-0.00005222,0.0
 0000464,-0.00000606,0.00000649,-0.00000771,0.00001956,-0.00000931,0.00
 043022,-0.00014133,-0.00011938,-0.00003781,0.00003631,0.00001889,-0.00
 083910,0.00017896,0.00003775,0.00544606,-0.00090107,-0.00200596,0.0003
 3788,0.00136017,0.00010258,-0.00011709,0.00029530,0.00010936,0.0064984
 0,0.02756072,0.00462350,-0.00248482,0.00052283,0.00045996,0.00212022,-
 0.01884277,-0.05699698,-0.00566897,-0.02442819,0.00193309,-0.00550502,
 0.01428613,0.05189223\\-0.00000371,0.00000038,0.00000561,-0.00000749,-
 0.00000214,0.00000624,-0.00000130,0.00000233,-0.00000922,0.00001227,-0
 .00000073,-0.00000115,-0.00000063,-0.00000142,-0.00000037,0.00000169,-
 0.00000339,-0.00000796,-0.00000386,0.00000471,0.00000473,0.00000104,0.
 00000058,0.00000092,0.00000056,-0.00000059,0.00000173,-0.00000112,-0.0
 0000343,0.00000573,-0.00000003,0.00000058,-0.00000113,-0.00000149,0.00
 000758,0.00000485,0.00000197,-0.00000350,-0.00000746,0.00000210,-0.000
 00095,-0.00000252\\\@


 ONLY THE DAY DAWNS TO WHICH YOU ARE AWAKE.

                                 -- THOREAU
 Job cpu time:       0 days  0 hours  7 minutes 55.0 seconds.
 Elapsed time:       0 days  0 hours  0 minutes 20.4 seconds.
 File lengths (MBytes):  RWF=    332 Int=      0 D2E=      0 Chk=      8 Scr=      8
 Normal termination of Gaussian 16 at Tue Oct 15 01:36:06 2019.
