 Entering Gaussian System, Link 0=g16
 Input=Rb4.gjf
 Output=Rb4.log
 Initial command:
 /home/soft/g16/l1.exe "/tmp/gaussian/Gau-174854.inp" -scrdir="/tmp/gaussian/"
 Entering Link 1 = /home/soft/g16/l1.exe PID=    174855.
  
 Copyright (c) 1988,1990,1992,1993,1995,1998,2003,2009,2016,
            Gaussian, Inc.  All Rights Reserved.
  
 This is part of the Gaussian(R) 16 program.  It is based on
 the Gaussian(R) 09 system (copyright 2009, Gaussian, Inc.),
 the Gaussian(R) 03 system (copyright 2003, Gaussian, Inc.),
 the Gaussian(R) 98 system (copyright 1998, Gaussian, Inc.),
 the Gaussian(R) 94 system (copyright 1995, Gaussian, Inc.),
 the Gaussian 92(TM) system (copyright 1992, Gaussian, Inc.),
 the Gaussian 90(TM) system (copyright 1990, Gaussian, Inc.),
 the Gaussian 88(TM) system (copyright 1988, Gaussian, Inc.),
 the Gaussian 86(TM) system (copyright 1986, Carnegie Mellon
 University), and the Gaussian 82(TM) system (copyright 1983,
 Carnegie Mellon University). Gaussian is a federally registered
 trademark of Gaussian, Inc.
  
 This software contains proprietary and confidential information,
 including trade secrets, belonging to Gaussian, Inc.
  
 This software is provided under written license and may be
 used, copied, transmitted, or stored only in accord with that
 written license.
  
 The following legend is applicable only to US Government
 contracts under FAR:
  
                    RESTRICTED RIGHTS LEGEND
  
 Use, reproduction and disclosure by the US Government is
 subject to restrictions as set forth in subparagraphs (a)
 and (c) of the Commercial Computer Software - Restricted
 Rights clause in FAR 52.227-19.
  
 Gaussian, Inc.
 340 Quinnipiac St., Bldg. 40, Wallingford CT 06492
  
  
 ---------------------------------------------------------------
 Warning -- This program may not be used in any manner that
 competes with the business of Gaussian, Inc. or will provide
 assistance to any competitor of Gaussian, Inc.  The licensee
 of this program is prohibited from giving any competitor of
 Gaussian, Inc. access to this program.  By using this program,
 the user acknowledges that Gaussian, Inc. is engaged in the
 business of creating and licensing software in the field of
 computational chemistry and represents and warrants to the
 licensee that it is not a competitor of Gaussian, Inc. and that
 it will not use this program in any manner prohibited above.
 ---------------------------------------------------------------
  

 Cite this work as:
 Gaussian 16, Revision A.03,
 M. J. Frisch, G. W. Trucks, H. B. Schlegel, G. E. Scuseria, 
 M. A. Robb, J. R. Cheeseman, G. Scalmani, V. Barone, 
 G. A. Petersson, H. Nakatsuji, X. Li, M. Caricato, A. V. Marenich, 
 J. Bloino, B. G. Janesko, R. Gomperts, B. Mennucci, H. P. Hratchian, 
 J. V. Ortiz, A. F. Izmaylov, J. L. Sonnenberg, D. Williams-Young, 
 F. Ding, F. Lipparini, F. Egidi, J. Goings, B. Peng, A. Petrone, 
 T. Henderson, D. Ranasinghe, V. G. Zakrzewski, J. Gao, N. Rega, 
 G. Zheng, W. Liang, M. Hada, M. Ehara, K. Toyota, R. Fukuda, 
 J. Hasegawa, M. Ishida, T. Nakajima, Y. Honda, O. Kitao, H. Nakai, 
 T. Vreven, K. Throssell, J. A. Montgomery, Jr., J. E. Peralta, 
 F. Ogliaro, M. J. Bearpark, J. J. Heyd, E. N. Brothers, K. N. Kudin, 
 V. N. Staroverov, T. A. Keith, R. Kobayashi, J. Normand, 
 K. Raghavachari, A. P. Rendell, J. C. Burant, S. S. Iyengar, 
 J. Tomasi, M. Cossi, J. M. Millam, M. Klene, C. Adamo, R. Cammi, 
 J. W. Ochterski, R. L. Martin, K. Morokuma, O. Farkas, 
 J. B. Foresman, and D. J. Fox, Gaussian, Inc., Wallingford CT, 2016.
 
 ******************************************
 Gaussian 16:  ES64L-G16RevA.03 25-Dec-2016
                16-Oct-2019 
 ******************************************
 %chk=Rb4.chk
 %nprocshared=24
 Will use up to   24 processors via shared memory.
 ---------------------------
 #p opt freq b3lyp/6-31+g(d)
 ---------------------------
 1/18=20,19=15,26=3,38=1/1,3;
 2/9=110,12=2,17=6,18=5,40=1/2;
 3/5=1,6=6,7=11,11=2,25=1,30=1,71=1,74=-5/1,2,3;
 4//1;
 5/5=2,38=5/2;
 6/7=2,8=2,9=2,10=2,28=1/1;
 7//1,2,3,16;
 1/18=20,19=15,26=3/3(2);
 2/9=110/2;
 99//99;
 2/9=110/2;
 3/5=1,6=6,7=11,11=2,25=1,30=1,71=1,74=-5/1,2,3;
 4/5=5,16=3,69=1/1;
 5/5=2,38=5/2;
 7//1,2,3,16;
 1/18=20,19=15,26=3/3(-5);
 2/9=110/2;
 6/7=2,8=2,9=2,10=2,19=2,28=1/1;
 99/9=1/99;
 Leave Link    1 at Wed Oct 16 16:26:30 2019, MaxMem=           0 cpu:               1.7 elap:               0.1
 (Enter /home/soft/g16/l101.exe)
 -------------------
 Title Card Required
 -------------------
 Symbolic Z-matrix:
 Charge =  0 Multiplicity = 1
 C                    -1.99167   0.55262  -0.34356 
 H                    -1.73824   0.84305  -1.35888 
 H                    -2.8114    1.06293   0.15013 
 C                    -1.34457  -0.43682   0.2828 
 O                    -0.34553  -1.1709   -0.30839 
 C                     0.96926  -0.87774   0.22343 
 H                     0.92698  -0.8958    1.3214 
 H                     1.60137  -1.70173  -0.11871 
 C                     1.44457   0.45432  -0.27968 
 H                     1.82564   0.4778   -1.29928 
 C                     1.31817   1.59712   0.40919 
 H                     0.91516   1.61294   1.42228 
 H                     1.62075   2.5554   -0.01369 
 H                    -1.5686   -0.72551   1.31219 
 
 ITRead=  0  0  0  0  0  0  0  0  0  0  0  0  0  0
 MicOpt= -1 -1 -1 -1 -1 -1 -1 -1 -1 -1 -1 -1 -1 -1
 NAtoms=     14 NQM=       14 NQMF=       0 NMMI=      0 NMMIF=      0
                NMic=       0 NMicF=      0.
                    Isotopes and Nuclear Properties:
 (Nuclear quadrupole moments (NQMom) in fm**2, nuclear magnetic moments (NMagM)
  in nuclear magnetons)

  Atom         1           2           3           4           5           6           7           8           9          10
 IAtWgt=          12           1           1          12          16          12           1           1          12           1
 AtmWgt=  12.0000000   1.0078250   1.0078250  12.0000000  15.9949146  12.0000000   1.0078250   1.0078250  12.0000000   1.0078250
 NucSpn=           0           1           1           0           0           0           1           1           0           1
 AtZEff=  -0.0000000  -0.0000000  -0.0000000  -0.0000000  -0.0000000  -0.0000000  -0.0000000  -0.0000000  -0.0000000  -0.0000000
 NQMom=    0.0000000   0.0000000   0.0000000   0.0000000   0.0000000   0.0000000   0.0000000   0.0000000   0.0000000   0.0000000
 NMagM=    0.0000000   2.7928460   2.7928460   0.0000000   0.0000000   0.0000000   2.7928460   2.7928460   0.0000000   2.7928460
 AtZNuc=   6.0000000   1.0000000   1.0000000   6.0000000   8.0000000   6.0000000   1.0000000   1.0000000   6.0000000   1.0000000

  Atom        11          12          13          14
 IAtWgt=          12           1           1           1
 AtmWgt=  12.0000000   1.0078250   1.0078250   1.0078250
 NucSpn=           0           1           1           1
 AtZEff=  -0.0000000  -0.0000000  -0.0000000  -0.0000000
 NQMom=    0.0000000   0.0000000   0.0000000   0.0000000
 NMagM=    0.0000000   2.7928460   2.7928460   2.7928460
 AtZNuc=   6.0000000   1.0000000   1.0000000   1.0000000
 Leave Link  101 at Wed Oct 16 16:26:30 2019, MaxMem=   280000000 cpu:               4.6 elap:               0.2
 (Enter /home/soft/g16/l103.exe)

 GradGradGradGradGradGradGradGradGradGradGradGradGradGradGradGradGradGrad
 Berny optimization.
 Initialization pass.
                           ----------------------------
                           !    Initial Parameters    !
                           ! (Angstroms and Degrees)  !
 --------------------------                            --------------------------
 ! Name  Definition              Value          Derivative Info.                !
 --------------------------------------------------------------------------------
 ! R1    R(1,2)                  1.086          estimate D2E/DX2                !
 ! R2    R(1,3)                  1.0845         estimate D2E/DX2                !
 ! R3    R(1,4)                  1.3379         estimate D2E/DX2                !
 ! R4    R(4,5)                  1.3735         estimate D2E/DX2                !
 ! R5    R(4,14)                 1.0923         estimate D2E/DX2                !
 ! R6    R(5,6)                  1.4483         estimate D2E/DX2                !
 ! R7    R(6,7)                  1.0989         estimate D2E/DX2                !
 ! R8    R(6,8)                  1.0934         estimate D2E/DX2                !
 ! R9    R(6,9)                  1.5011         estimate D2E/DX2                !
 ! R10   R(9,10)                 1.0887         estimate D2E/DX2                !
 ! R11   R(9,11)                 1.3403         estimate D2E/DX2                !
 ! R12   R(11,12)                1.0904         estimate D2E/DX2                !
 ! R13   R(11,13)                1.0903         estimate D2E/DX2                !
 ! A1    A(2,1,3)              118.4339         estimate D2E/DX2                !
 ! A2    A(2,1,4)              121.5056         estimate D2E/DX2                !
 ! A3    A(3,1,4)              120.0298         estimate D2E/DX2                !
 ! A4    A(1,4,5)              123.0619         estimate D2E/DX2                !
 ! A5    A(1,4,14)             122.5093         estimate D2E/DX2                !
 ! A6    A(5,4,14)             114.4287         estimate D2E/DX2                !
 ! A7    A(4,5,6)              113.2097         estimate D2E/DX2                !
 ! A8    A(5,6,7)              109.1861         estimate D2E/DX2                !
 ! A9    A(5,6,8)              104.9145         estimate D2E/DX2                !
 ! A10   A(5,6,9)              110.1212         estimate D2E/DX2                !
 ! A11   A(7,6,8)              108.8131         estimate D2E/DX2                !
 ! A12   A(7,6,9)              111.2            estimate D2E/DX2                !
 ! A13   A(8,6,9)              112.3827         estimate D2E/DX2                !
 ! A14   A(6,9,10)             116.3483         estimate D2E/DX2                !
 ! A15   A(6,9,11)             123.6743         estimate D2E/DX2                !
 ! A16   A(10,9,11)            119.7318         estimate D2E/DX2                !
 ! A17   A(9,11,12)            121.6504         estimate D2E/DX2                !
 ! A18   A(9,11,13)            121.5927         estimate D2E/DX2                !
 ! A19   A(12,11,13)           116.7553         estimate D2E/DX2                !
 ! D1    D(2,1,4,5)             -1.4573         estimate D2E/DX2                !
 ! D2    D(2,1,4,14)           178.4045         estimate D2E/DX2                !
 ! D3    D(3,1,4,5)            176.4969         estimate D2E/DX2                !
 ! D4    D(3,1,4,14)            -3.6413         estimate D2E/DX2                !
 ! D5    D(1,4,5,6)            108.6485         estimate D2E/DX2                !
 ! D6    D(14,4,5,6)           -71.2235         estimate D2E/DX2                !
 ! D7    D(4,5,6,7)             48.1822         estimate D2E/DX2                !
 ! D8    D(4,5,6,8)            164.6715         estimate D2E/DX2                !
 ! D9    D(4,5,6,9)            -74.1796         estimate D2E/DX2                !
 ! D10   D(5,6,9,10)           -78.0339         estimate D2E/DX2                !
 ! D11   D(5,6,9,11)            96.2422         estimate D2E/DX2                !
 ! D12   D(7,6,9,10)           160.8007         estimate D2E/DX2                !
 ! D13   D(7,6,9,11)           -24.9232         estimate D2E/DX2                !
 ! D14   D(8,6,9,10)            38.5378         estimate D2E/DX2                !
 ! D15   D(8,6,9,11)          -147.1861         estimate D2E/DX2                !
 ! D16   D(6,9,11,12)            4.2499         estimate D2E/DX2                !
 ! D17   D(6,9,11,13)         -176.2347         estimate D2E/DX2                !
 ! D18   D(10,9,11,12)         178.3423         estimate D2E/DX2                !
 ! D19   D(10,9,11,13)          -2.1422         estimate D2E/DX2                !
 --------------------------------------------------------------------------------
 Trust Radius=3.00D-01 FncErr=1.00D-07 GrdErr=1.00D-06 EigMax=2.50D+02 EigMin=1.00D-04
 Number of steps in this run=     61 maximum allowed number of steps=    100.
 GradGradGradGradGradGradGradGradGradGradGradGradGradGradGradGradGradGrad

 Leave Link  103 at Wed Oct 16 16:26:30 2019, MaxMem=   280000000 cpu:               0.8 elap:               0.1
 (Enter /home/soft/g16/l202.exe)
                          Input orientation:                          
 ---------------------------------------------------------------------
 Center     Atomic      Atomic             Coordinates (Angstroms)
 Number     Number       Type             X           Y           Z
 ---------------------------------------------------------------------
      1          6           0       -1.991669    0.552621   -0.343561
      2          1           0       -1.738241    0.843047   -1.358884
      3          1           0       -2.811400    1.062932    0.150133
      4          6           0       -1.344573   -0.436820    0.282800
      5          8           0       -0.345529   -1.170899   -0.308388
      6          6           0        0.969258   -0.877736    0.223427
      7          1           0        0.926982   -0.895800    1.321395
      8          1           0        1.601371   -1.701733   -0.118712
      9          6           0        1.444569    0.454323   -0.279680
     10          1           0        1.825635    0.477799   -1.299275
     11          6           0        1.318167    1.597119    0.409193
     12          1           0        0.915160    1.612944    1.422280
     13          1           0        1.620745    2.555398   -0.013693
     14          1           0       -1.568604   -0.725506    1.312188
 ---------------------------------------------------------------------
                    Distance matrix (angstroms):
                    1          2          3          4          5
     1  C    0.000000
     2  H    1.086027   0.000000
     3  H    1.084486   1.864712   0.000000
     4  C    1.337929   2.118528   2.102008   0.000000
     5  O    2.383597   2.664426   3.358685   1.373486   0.000000
     6  C    3.336838   3.577059   4.250287   2.356214   1.448253
     7  H    3.659033   4.160637   4.379953   2.539548   2.085943
     8  H    4.247659   4.378006   5.214230   3.231068   2.026865
     9  C    3.438237   3.383204   4.320696   2.981582   2.417979
    10  H    3.935835   3.583039   4.893389   3.659195   2.900692
    11  C    3.551426   3.610589   4.172025   3.353068   3.308282
    12  H    3.562602   3.920223   3.975943   3.256738   3.512027
    13  H    4.143605   4.003058   4.679552   4.223078   4.223549
    14  H    2.134033   3.102219   2.468486   1.092323   2.078594
                    6          7          8          9         10
     6  C    0.000000
     7  H    1.098930   0.000000
     8  H    1.093434   1.782761   0.000000
     9  C    1.501139   2.157352   2.167735   0.000000
    10  H    2.211216   3.092291   2.488852   1.088732   0.000000
    11  C    2.506223   2.683241   3.352807   1.340338   2.104582
    12  H    2.764717   2.510799   3.719224   2.125875   3.086160
    13  H    3.502438   3.764908   4.258470   2.125160   2.451758
    14  H    2.765740   2.501406   3.612373   3.606279   4.448431
                   11         12         13         14
    11  C    0.000000
    12  H    1.090418   0.000000
    13  H    1.090268   1.856903   0.000000
    14  H    3.813585   3.413144   4.763847   0.000000
 Stoichiometry    C5H8O
 Framework group  C1[X(C5H8O)]
 Deg. of freedom    36
 Full point group                 C1      NOp   1
 Largest Abelian subgroup         C1      NOp   1
 Largest concise Abelian subgroup C1      NOp   1
                         Standard orientation:                         
 ---------------------------------------------------------------------
 Center     Atomic      Atomic             Coordinates (Angstroms)
 Number     Number       Type             X           Y           Z
 ---------------------------------------------------------------------
      1          6           0       -1.806748    1.032329   -0.258401
      2          1           0       -1.548517    1.232647   -1.294086
      3          1           0       -2.427658    1.749642    0.266997
      4          6           0       -1.410367   -0.087601    0.356981
      5          8           0       -0.682991   -1.069712   -0.269794
      6          6           0        0.692737   -1.134827    0.178054
      7          1           0        0.715560   -1.128657    1.276730
      8          1           0        1.058733   -2.102151   -0.176810
      9          6           0        1.474926    0.014784   -0.387624
     10          1           0        1.784179   -0.076361   -1.427524
     11          6           0        1.702063    1.157087    0.275746
     12          1           0        1.381825    1.291910    1.309322
     13          1           0        2.223130    1.994015   -0.189791
     14          1           0       -1.638991   -0.293987    1.404981
 ---------------------------------------------------------------------
 Rotational constants (GHZ):           5.3489660           2.8746985           2.1170599
 Leave Link  202 at Wed Oct 16 16:26:30 2019, MaxMem=   280000000 cpu:               0.4 elap:               0.1
 (Enter /home/soft/g16/l301.exe)
 Standard basis: 6-31+G(d) (6D, 7F)
 Ernie: Thresh=  0.10000D-02 Tol=  0.10000D-05 Strict=F.
 There are   130 symmetry adapted cartesian basis functions of A   symmetry.
 There are   130 symmetry adapted basis functions of A   symmetry.
   130 basis functions,   224 primitive gaussians,   130 cartesian basis functions
    23 alpha electrons       23 beta electrons
       nuclear repulsion energy       225.2365432347 Hartrees.
 IExCor=  402 DFT=T Ex+Corr=B3LYP ExCW=0 ScaHFX=  0.200000
 ScaDFX=  0.800000  0.720000  1.000000  0.810000 ScalE2=  1.000000  1.000000
 IRadAn=      5 IRanWt=     -1 IRanGd=            0 ICorTp=0 IEmpDi=  4
 NAtoms=   14 NActive=   14 NUniq=   14 SFac= 1.00D+00 NAtFMM=   60 NAOKFM=F Big=F
 Integral buffers will be    131072 words long.
 Raffenetti 2 integral format.
 Two-electron integral symmetry is turned on.
 Leave Link  301 at Wed Oct 16 16:26:30 2019, MaxMem=   280000000 cpu:               1.9 elap:               0.1
 (Enter /home/soft/g16/l302.exe)
 NPDir=0 NMtPBC=     1 NCelOv=     1 NCel=       1 NClECP=     1 NCelD=      1
         NCelK=      1 NCelE2=     1 NClLst=     1 CellRange=     0.0.
 One-electron integrals computed using PRISM.
 One-electron integral symmetry used in STVInt
 NBasis=   130 RedAO= T EigKep=  6.57D-05  NBF=   130
 NBsUse=   130 1.00D-06 EigRej= -1.00D+00 NBFU=   130
 Precomputing XC quadrature grid using
 IXCGrd= 4 IRadAn=           5 IRanWt=          -1 IRanGd=           0 AccXCQ= 0.00D+00.
 Generated NRdTot=       0 NPtTot=           0 NUsed=           0 NTot=          32
 NSgBfM=   130   130   130   130   130 MxSgAt=    14 MxSgA2=    14.
 Leave Link  302 at Wed Oct 16 16:26:30 2019, MaxMem=   280000000 cpu:               4.4 elap:               0.3
 (Enter /home/soft/g16/l303.exe)
 DipDrv:  MaxL=1.
 Leave Link  303 at Wed Oct 16 16:26:31 2019, MaxMem=   280000000 cpu:               0.8 elap:               0.1
 (Enter /home/soft/g16/l401.exe)
 ExpMin= 4.38D-02 ExpMax= 5.48D+03 ExpMxC= 8.25D+02 IAcc=3 IRadAn=         5 AccDes= 0.00D+00
 Harris functional with IExCor=  402 and IRadAn=       5 diagonalized for initial guess.
 HarFok:  IExCor=  402 AccDes= 0.00D+00 IRadAn=         5 IDoV= 1 UseB2=F ITyADJ=14
 ICtDFT=  3500011 ScaDFX=  1.000000  1.000000  1.000000  1.000000
 FoFCou: FMM=F IPFlag=           0 FMFlag=      100000 FMFlg1=           0
         NFxFlg=           0 DoJE=T BraDBF=F KetDBF=T FulRan=T
         wScrn=  0.000000 ICntrl=       500 IOpCl=  0 I1Cent=   200000004 NGrid=           0
         NMat0=    1 NMatS0=      1 NMatT0=    0 NMatD0=    1 NMtDS0=    0 NMtDT0=    0
 Petite list used in FoFCou.
 Harris En= -270.542067601973    
 JPrj=0 DoOrth=F DoCkMO=F.
 Leave Link  401 at Wed Oct 16 16:26:31 2019, MaxMem=   280000000 cpu:               8.1 elap:               0.4
 (Enter /home/soft/g16/l502.exe)
 Integral symmetry usage will be decided dynamically.
 Closed shell SCF:
 Using DIIS extrapolation, IDIIS=  1040.
 NGot=   280000000 LenX=   279961518 LenY=   279944177
 Requested convergence on RMS density matrix=1.00D-08 within 128 cycles.
 Requested convergence on MAX density matrix=1.00D-06.
 Requested convergence on             energy=1.00D-06.
 No special actions if energy rises.
 Fock matrices will be formed incrementally for  20 cycles.

 Cycle   1  Pass 1  IDiag  1:
 FoFJK:  IHMeth= 1 ICntrl=       0 DoSepK=F KAlg= 0 I1Cent=           0 FoldK=F
 IRaf= 990000000 NMat=       1 IRICut=       1 DoRegI=T DoRafI=F ISym2E= 0 IDoP0=0 IntGTp=1.
 FoFCou: FMM=F IPFlag=           0 FMFlag=      100000 FMFlg1=           0
         NFxFlg=           0 DoJE=F BraDBF=F KetDBF=F FulRan=T
         wScrn=  0.000000 ICntrl=         0 IOpCl=  0 I1Cent=           0 NGrid=           0
         NMat0=    1 NMatS0=      1 NMatT0=    0 NMatD0=    1 NMtDS0=    0 NMtDT0=    0
 Symmetry not used in FoFCou.
 E= -270.344286873173    
 DIIS: error= 2.85D-02 at cycle   1 NSaved=   1.
 NSaved= 1 IEnMin= 1 EnMin= -270.344286873173     IErMin= 1 ErrMin= 2.85D-02
 ErrMax= 2.85D-02  0.00D+00 EMaxC= 1.00D-01 BMatC= 1.54D-01 BMatP= 1.54D-01
 IDIUse=3 WtCom= 7.15D-01 WtEn= 2.85D-01
 Coeff-Com:  0.100D+01
 Coeff-En:   0.100D+01
 Coeff:      0.100D+01
 Gap=     0.244 Goal=   None    Shift=    0.000
 GapD=    0.244 DampG=1.000 DampE=0.500 DampFc=0.5000 IDamp=-1.
 Damping current iteration by 5.00D-01
 RMSDP=1.07D-02 MaxDP=4.70D-01              OVMax= 2.14D-01

 Cycle   2  Pass 1  IDiag  1:
 RMSU=  5.35D-03    CP:  9.89D-01
 E= -270.419170741533     Delta-E=       -0.074883868360 Rises=F Damp=T
 DIIS: error= 6.36D-03 at cycle   2 NSaved=   2.
 NSaved= 2 IEnMin= 2 EnMin= -270.419170741533     IErMin= 2 ErrMin= 6.36D-03
 ErrMax= 6.36D-03  0.00D+00 EMaxC= 1.00D-01 BMatC= 8.12D-03 BMatP= 1.54D-01
 IDIUse=3 WtCom= 9.36D-01 WtEn= 6.36D-02
 Coeff-Com:  0.525D-01 0.947D+00
 Coeff-En:   0.100D+00 0.900D+00
 Coeff:      0.556D-01 0.944D+00
 Gap=     0.264 Goal=   None    Shift=    0.000
 RMSDP=3.03D-03 MaxDP=1.27D-01 DE=-7.49D-02 OVMax= 1.43D-01

 Cycle   3  Pass 1  IDiag  1:
 RMSU=  2.31D-03    CP:  9.72D-01  6.42D-01
 E= -270.508347601818     Delta-E=       -0.089176860285 Rises=F Damp=F
 DIIS: error= 2.56D-03 at cycle   3 NSaved=   3.
 NSaved= 3 IEnMin= 3 EnMin= -270.508347601818     IErMin= 3 ErrMin= 2.56D-03
 ErrMax= 2.56D-03  0.00D+00 EMaxC= 1.00D-01 BMatC= 3.22D-03 BMatP= 8.12D-03
 IDIUse=3 WtCom= 9.74D-01 WtEn= 2.56D-02
 Coeff-Com: -0.210D-01 0.356D+00 0.665D+00
 Coeff-En:   0.000D+00 0.000D+00 0.100D+01
 Coeff:     -0.205D-01 0.347D+00 0.673D+00
 Gap=     0.234 Goal=   None    Shift=    0.000
 RMSDP=9.16D-04 MaxDP=2.14D-02 DE=-8.92D-02 OVMax= 4.92D-02

 Cycle   4  Pass 1  IDiag  1:
 RMSU=  7.62D-04    CP:  9.75D-01  6.94D-01  8.19D-01
 E= -270.510003275398     Delta-E=       -0.001655673580 Rises=F Damp=F
 DIIS: error= 2.14D-03 at cycle   4 NSaved=   4.
 NSaved= 4 IEnMin= 4 EnMin= -270.510003275398     IErMin= 4 ErrMin= 2.14D-03
 ErrMax= 2.14D-03  0.00D+00 EMaxC= 1.00D-01 BMatC= 1.61D-03 BMatP= 3.22D-03
 IDIUse=3 WtCom= 9.79D-01 WtEn= 2.14D-02
 Coeff-Com: -0.166D-01 0.967D-01 0.432D+00 0.488D+00
 Coeff-En:   0.000D+00 0.000D+00 0.355D+00 0.645D+00
 Coeff:     -0.162D-01 0.947D-01 0.430D+00 0.491D+00
 Gap=     0.235 Goal=   None    Shift=    0.000
 RMSDP=4.22D-04 MaxDP=9.89D-03 DE=-1.66D-03 OVMax= 2.23D-02

 Cycle   5  Pass 1  IDiag  1:
 RMSU=  2.77D-04    CP:  9.73D-01  6.85D-01  8.67D-01  6.20D-01
 E= -270.511643333592     Delta-E=       -0.001640058194 Rises=F Damp=F
 DIIS: error= 4.54D-04 at cycle   5 NSaved=   5.
 NSaved= 5 IEnMin= 5 EnMin= -270.511643333592     IErMin= 5 ErrMin= 4.54D-04
 ErrMax= 4.54D-04  0.00D+00 EMaxC= 1.00D-01 BMatC= 6.30D-05 BMatP= 1.61D-03
 IDIUse=3 WtCom= 9.95D-01 WtEn= 4.54D-03
 Coeff-Com: -0.645D-02 0.216D-01 0.169D+00 0.241D+00 0.576D+00
 Coeff-En:   0.000D+00 0.000D+00 0.000D+00 0.000D+00 0.100D+01
 Coeff:     -0.642D-02 0.215D-01 0.168D+00 0.239D+00 0.578D+00
 Gap=     0.235 Goal=   None    Shift=    0.000
 RMSDP=1.30D-04 MaxDP=3.49D-03 DE=-1.64D-03 OVMax= 3.22D-03

 Cycle   6  Pass 1  IDiag  1:
 RMSU=  6.53D-05    CP:  9.73D-01  6.91D-01  8.68D-01  6.09D-01  6.11D-01
 E= -270.511689134608     Delta-E=       -0.000045801016 Rises=F Damp=F
 DIIS: error= 2.94D-04 at cycle   6 NSaved=   6.
 NSaved= 6 IEnMin= 6 EnMin= -270.511689134608     IErMin= 6 ErrMin= 2.94D-04
 ErrMax= 2.94D-04  0.00D+00 EMaxC= 1.00D-01 BMatC= 1.39D-05 BMatP= 6.30D-05
 IDIUse=3 WtCom= 9.97D-01 WtEn= 2.94D-03
 Coeff-Com: -0.267D-02 0.487D-02 0.711D-01 0.111D+00 0.371D+00 0.445D+00
 Coeff-En:   0.000D+00 0.000D+00 0.000D+00 0.000D+00 0.139D+00 0.861D+00
 Coeff:     -0.266D-02 0.486D-02 0.709D-01 0.111D+00 0.370D+00 0.446D+00
 Gap=     0.235 Goal=   None    Shift=    0.000
 RMSDP=3.30D-05 MaxDP=6.86D-04 DE=-4.58D-05 OVMax= 1.14D-03

 Cycle   7  Pass 1  IDiag  1:
 RMSU=  2.36D-05    CP:  9.73D-01  6.89D-01  8.73D-01  6.00D-01  6.12D-01
                    CP:  7.36D-01
 E= -270.511699995091     Delta-E=       -0.000010860482 Rises=F Damp=F
 DIIS: error= 1.96D-05 at cycle   7 NSaved=   7.
 NSaved= 7 IEnMin= 7 EnMin= -270.511699995091     IErMin= 7 ErrMin= 1.96D-05
 ErrMax= 1.96D-05  0.00D+00 EMaxC= 1.00D-01 BMatC= 2.03D-07 BMatP= 1.39D-05
 IDIUse=1 WtCom= 1.00D+00 WtEn= 0.00D+00
 Coeff-Com: -0.467D-03 0.159D-03 0.154D-01 0.242D-01 0.102D+00 0.171D+00
 Coeff-Com:  0.688D+00
 Coeff:     -0.467D-03 0.159D-03 0.154D-01 0.242D-01 0.102D+00 0.171D+00
 Coeff:      0.688D+00
 Gap=     0.235 Goal=   None    Shift=    0.000
 RMSDP=7.81D-06 MaxDP=1.53D-04 DE=-1.09D-05 OVMax= 2.28D-04

 Cycle   8  Pass 1  IDiag  1:
 RMSU=  4.52D-06    CP:  9.73D-01  6.89D-01  8.73D-01  6.03D-01  6.21D-01
                    CP:  7.38D-01  7.88D-01
 E= -270.511700160597     Delta-E=       -0.000000165506 Rises=F Damp=F
 DIIS: error= 1.04D-05 at cycle   8 NSaved=   8.
 NSaved= 8 IEnMin= 8 EnMin= -270.511700160597     IErMin= 8 ErrMin= 1.04D-05
 ErrMax= 1.04D-05  0.00D+00 EMaxC= 1.00D-01 BMatC= 3.32D-08 BMatP= 2.03D-07
 IDIUse=1 WtCom= 1.00D+00 WtEn= 0.00D+00
 Coeff-Com: -0.628D-04-0.228D-03 0.383D-02 0.571D-02 0.321D-01 0.597D-01
 Coeff-Com:  0.362D+00 0.536D+00
 Coeff:     -0.628D-04-0.228D-03 0.383D-02 0.571D-02 0.321D-01 0.597D-01
 Coeff:      0.362D+00 0.536D+00
 Gap=     0.235 Goal=   None    Shift=    0.000
 RMSDP=2.31D-06 MaxDP=5.35D-05 DE=-1.66D-07 OVMax= 9.92D-05

 Cycle   9  Pass 1  IDiag  1:
 RMSU=  1.81D-06    CP:  9.73D-01  6.89D-01  8.73D-01  6.03D-01  6.24D-01
                    CP:  7.35D-01  8.04D-01  8.16D-01
 E= -270.511700191589     Delta-E=       -0.000000030993 Rises=F Damp=F
 DIIS: error= 3.80D-06 at cycle   9 NSaved=   9.
 NSaved= 9 IEnMin= 9 EnMin= -270.511700191589     IErMin= 9 ErrMin= 3.80D-06
 ErrMax= 3.80D-06  0.00D+00 EMaxC= 1.00D-01 BMatC= 3.90D-09 BMatP= 3.32D-08
 IDIUse=1 WtCom= 1.00D+00 WtEn= 0.00D+00
 Coeff-Com:  0.300D-04-0.144D-03 0.139D-03-0.171D-03 0.414D-02 0.820D-02
 Coeff-Com:  0.105D+00 0.289D+00 0.594D+00
 Coeff:      0.300D-04-0.144D-03 0.139D-03-0.171D-03 0.414D-02 0.820D-02
 Coeff:      0.105D+00 0.289D+00 0.594D+00
 Gap=     0.235 Goal=   None    Shift=    0.000
 RMSDP=7.55D-07 MaxDP=1.64D-05 DE=-3.10D-08 OVMax= 3.28D-05

 Cycle  10  Pass 1  IDiag  1:
 RMSU=  4.71D-07    CP:  9.73D-01  6.89D-01  8.73D-01  6.03D-01  6.24D-01
                    CP:  7.37D-01  8.13D-01  8.34D-01  7.93D-01
 E= -270.511700194795     Delta-E=       -0.000000003206 Rises=F Damp=F
 DIIS: error= 1.24D-06 at cycle  10 NSaved=  10.
 NSaved=10 IEnMin=10 EnMin= -270.511700194795     IErMin=10 ErrMin= 1.24D-06
 ErrMax= 1.24D-06  0.00D+00 EMaxC= 1.00D-01 BMatC= 5.27D-10 BMatP= 3.90D-09
 IDIUse=1 WtCom= 1.00D+00 WtEn= 0.00D+00
 Coeff-Com:  0.270D-04-0.635D-04-0.388D-03-0.852D-03-0.143D-02-0.289D-02
 Coeff-Com:  0.163D-01 0.103D+00 0.341D+00 0.545D+00
 Coeff:      0.270D-04-0.635D-04-0.388D-03-0.852D-03-0.143D-02-0.289D-02
 Coeff:      0.163D-01 0.103D+00 0.341D+00 0.545D+00
 Gap=     0.235 Goal=   None    Shift=    0.000
 RMSDP=2.81D-07 MaxDP=5.30D-06 DE=-3.21D-09 OVMax= 9.84D-06

 Cycle  11  Pass 1  IDiag  1:
 RMSU=  1.57D-07    CP:  9.73D-01  6.89D-01  8.73D-01  6.03D-01  6.24D-01
                    CP:  7.38D-01  8.18D-01  8.27D-01  7.84D-01  7.25D-01
 E= -270.511700195315     Delta-E=       -0.000000000519 Rises=F Damp=F
 DIIS: error= 1.32D-07 at cycle  11 NSaved=  11.
 NSaved=11 IEnMin=11 EnMin= -270.511700195315     IErMin=11 ErrMin= 1.32D-07
 ErrMax= 1.32D-07  0.00D+00 EMaxC= 1.00D-01 BMatC= 7.41D-12 BMatP= 5.27D-10
 IDIUse=1 WtCom= 1.00D+00 WtEn= 0.00D+00
 Coeff-Com:  0.488D-05-0.738D-05-0.879D-04-0.205D-03-0.470D-03-0.111D-02
 Coeff-Com: -0.139D-02 0.112D-01 0.526D-01 0.143D+00 0.797D+00
 Coeff:      0.488D-05-0.738D-05-0.879D-04-0.205D-03-0.470D-03-0.111D-02
 Coeff:     -0.139D-02 0.112D-01 0.526D-01 0.143D+00 0.797D+00
 Gap=     0.235 Goal=   None    Shift=    0.000
 RMSDP=6.09D-08 MaxDP=1.32D-06 DE=-5.19D-10 OVMax= 7.65D-07

 Cycle  12  Pass 1  IDiag  1:
 RMSU=  3.32D-08    CP:  9.73D-01  6.89D-01  8.73D-01  6.03D-01  6.24D-01
                    CP:  7.38D-01  8.17D-01  8.35D-01  7.96D-01  7.35D-01
                    CP:  8.63D-01
 E= -270.511700195320     Delta-E=       -0.000000000006 Rises=F Damp=F
 DIIS: error= 3.92D-08 at cycle  12 NSaved=  12.
 NSaved=12 IEnMin=12 EnMin= -270.511700195320     IErMin=12 ErrMin= 3.92D-08
 ErrMax= 3.92D-08  0.00D+00 EMaxC= 1.00D-01 BMatC= 5.14D-13 BMatP= 7.41D-12
 IDIUse=1 WtCom= 1.00D+00 WtEn= 0.00D+00
 Coeff-Com:  0.789D-06-0.462D-06-0.164D-04-0.462D-04-0.111D-03-0.293D-03
 Coeff-Com: -0.108D-02 0.369D-03 0.673D-02 0.314D-01 0.291D+00 0.672D+00
 Coeff:      0.789D-06-0.462D-06-0.164D-04-0.462D-04-0.111D-03-0.293D-03
 Coeff:     -0.108D-02 0.369D-03 0.673D-02 0.314D-01 0.291D+00 0.672D+00
 Gap=     0.235 Goal=   None    Shift=    0.000
 RMSDP=9.88D-09 MaxDP=1.73D-07 DE=-5.97D-12 OVMax= 2.01D-07

 SCF Done:  E(RB3LYP) =  -270.511700195     A.U. after   12 cycles
            NFock= 12  Conv=0.99D-08     -V/T= 2.0099
 KE= 2.678625040826D+02 PE=-1.078936034490D+03 EE= 3.153252869770D+02
 Leave Link  502 at Wed Oct 16 16:26:35 2019, MaxMem=   280000000 cpu:              87.8 elap:               3.8
 (Enter /home/soft/g16/l601.exe)
 Copying SCF densities to generalized density rwf, IOpCl= 0 IROHF=0.

 **********************************************************************

            Population analysis using the SCF density.

 **********************************************************************

 Orbital symmetries:
       Occupied  (A) (A) (A) (A) (A) (A) (A) (A) (A) (A) (A) (A)
                 (A) (A) (A) (A) (A) (A) (A) (A) (A) (A) (A)
       Virtual   (A) (A) (A) (A) (A) (A) (A) (A) (A) (A) (A) (A)
                 (A) (A) (A) (A) (A) (A) (A) (A) (A) (A) (A) (A)
                 (A) (A) (A) (A) (A) (A) (A) (A) (A) (A) (A) (A)
                 (A) (A) (A) (A) (A) (A) (A) (A) (A) (A) (A) (A)
                 (A) (A) (A) (A) (A) (A) (A) (A) (A) (A) (A) (A)
                 (A) (A) (A) (A) (A) (A) (A) (A) (A) (A) (A) (A)
                 (A) (A) (A) (A) (A) (A) (A) (A) (A) (A) (A) (A)
                 (A) (A) (A) (A) (A) (A) (A) (A) (A) (A) (A) (A)
                 (A) (A) (A) (A) (A) (A) (A) (A) (A) (A) (A)
 The electronic state is 1-A.
 Alpha  occ. eigenvalues --  -19.17503 -10.24965 -10.24293 -10.20180 -10.19940
 Alpha  occ. eigenvalues --  -10.18476  -1.05542  -0.79829  -0.75725  -0.68655
 Alpha  occ. eigenvalues --   -0.58550  -0.57297  -0.50874  -0.48170  -0.47132
 Alpha  occ. eigenvalues --   -0.44225  -0.43212  -0.39716  -0.37111  -0.35271
 Alpha  occ. eigenvalues --   -0.29281  -0.27501  -0.25261
 Alpha virt. eigenvalues --   -0.01763   0.00229   0.01284   0.02119   0.02688
 Alpha virt. eigenvalues --    0.03419   0.04979   0.05921   0.06625   0.07138
 Alpha virt. eigenvalues --    0.07908   0.08504   0.10444   0.11123   0.11612
 Alpha virt. eigenvalues --    0.12343   0.12912   0.13260   0.15894   0.17134
 Alpha virt. eigenvalues --    0.18099   0.19087   0.19778   0.20958   0.22226
 Alpha virt. eigenvalues --    0.22663   0.24360   0.25317   0.25946   0.27148
 Alpha virt. eigenvalues --    0.29875   0.30316   0.33625   0.33962   0.35431
 Alpha virt. eigenvalues --    0.37467   0.38064   0.40870   0.43848   0.59623
 Alpha virt. eigenvalues --    0.62385   0.62723   0.65226   0.68381   0.71627
 Alpha virt. eigenvalues --    0.73890   0.75486   0.77446   0.78285   0.79292
 Alpha virt. eigenvalues --    0.81202   0.90623   0.92437   0.93317   0.94769
 Alpha virt. eigenvalues --    0.96584   0.99407   1.01039   1.03083   1.06383
 Alpha virt. eigenvalues --    1.07809   1.09856   1.15014   1.17359   1.22912
 Alpha virt. eigenvalues --    1.24790   1.28933   1.30540   1.38275   1.43542
 Alpha virt. eigenvalues --    1.45318   1.50934   1.53911   1.56350   1.63874
 Alpha virt. eigenvalues --    1.68806   1.71928   1.82898   1.86001   1.89621
 Alpha virt. eigenvalues --    1.94168   1.97556   2.00701   2.02872   2.06714
 Alpha virt. eigenvalues --    2.12576   2.21278   2.23299   2.24375   2.30269
 Alpha virt. eigenvalues --    2.34348   2.36640   2.46071   2.56192   2.62633
 Alpha virt. eigenvalues --    2.69128   2.76292   2.79137   2.85687   2.89659
 Alpha virt. eigenvalues --    3.02488   4.17915   4.21824   4.22868   4.35320
 Alpha virt. eigenvalues --    4.43538   4.49402
          Condensed to atoms (all electrons):
               1          2          3          4          5          6
     1  C    5.523876   0.424108   0.368709   0.230153  -0.061187   0.064387
     2  H    0.424108   0.489713  -0.030025  -0.082416  -0.002395   0.009386
     3  H    0.368709  -0.030025   0.502397  -0.031405   0.006113   0.002571
     4  C    0.230153  -0.082416  -0.031405   5.535893   0.208598  -0.393994
     5  O   -0.061187  -0.002395   0.006113   0.208598   8.267125   0.182486
     6  C    0.064387   0.009386   0.002571  -0.393994   0.182486   5.533348
     7  H   -0.010150   0.000025   0.000033   0.004804  -0.053799   0.442645
     8  H   -0.001712  -0.000023   0.000006   0.009909  -0.057978   0.398829
     9  C   -0.077085  -0.004952  -0.000778   0.246290  -0.074368   0.078323
    10  H    0.003954  -0.000081  -0.000000  -0.002054   0.003662  -0.038386
    11  C   -0.031334  -0.002754  -0.000134  -0.021961  -0.025159   0.055661
    12  H   -0.002364  -0.000001   0.000026  -0.001274   0.000615   0.002523
    13  H    0.003639   0.000005  -0.000005  -0.002268  -0.000343   0.012606
    14  H   -0.061600   0.004068  -0.001410   0.382346  -0.073224   0.010844
               7          8          9         10         11         12
     1  C   -0.010150  -0.001712  -0.077085   0.003954  -0.031334  -0.002364
     2  H    0.000025  -0.000023  -0.004952  -0.000081  -0.002754  -0.000001
     3  H    0.000033   0.000006  -0.000778  -0.000000  -0.000134   0.000026
     4  C    0.004804   0.009909   0.246290  -0.002054  -0.021961  -0.001274
     5  O   -0.053799  -0.057978  -0.074368   0.003662  -0.025159   0.000615
     6  C    0.442645   0.398829   0.078323  -0.038386   0.055661   0.002523
     7  H    0.555721  -0.034550  -0.100840   0.004138  -0.005714   0.003686
     8  H   -0.034550   0.530342  -0.039186  -0.004568   0.002275   0.000124
     9  C   -0.100840  -0.039186   5.180051   0.335352   0.545220  -0.081811
    10  H    0.004138  -0.004568   0.335352   0.524270  -0.010906   0.004470
    11  C   -0.005714   0.002275   0.545220  -0.010906   5.105999   0.411137
    12  H    0.003686   0.000124  -0.081811   0.004470   0.411137   0.510267
    13  H    0.000048  -0.000165  -0.036699  -0.005800   0.371803  -0.033369
    14  H    0.006794  -0.000088  -0.008981  -0.000008  -0.001066   0.000027
              13         14
     1  C    0.003639  -0.061600
     2  H    0.000005   0.004068
     3  H   -0.000005  -0.001410
     4  C   -0.002268   0.382346
     5  O   -0.000343  -0.073224
     6  C    0.012606   0.010844
     7  H    0.000048   0.006794
     8  H   -0.000165  -0.000088
     9  C   -0.036699  -0.008981
    10  H   -0.005800  -0.000008
    11  C    0.371803  -0.001066
    12  H   -0.033369   0.000027
    13  H    0.503966  -0.000004
    14  H   -0.000004   0.572984
 Mulliken charges:
               1
     1  C   -0.373393
     2  H    0.195341
     3  H    0.183902
     4  C   -0.082621
     5  O   -0.320144
     6  C   -0.361229
     7  H    0.187159
     8  H    0.196785
     9  C    0.039465
    10  H    0.185957
    11  C   -0.393069
    12  H    0.185944
    13  H    0.186586
    14  H    0.169319
 Sum of Mulliken charges =  -0.00000
 Mulliken charges with hydrogens summed into heavy atoms:
               1
     1  C    0.005850
     4  C    0.086698
     5  O   -0.320144
     6  C    0.022715
     9  C    0.225421
    11  C   -0.020540
 Electronic spatial extent (au):  <R**2>=            622.8317
 Charge=             -0.0000 electrons
 Dipole moment (field-independent basis, Debye):
    X=              0.9995    Y=              0.7397    Z=              0.8666  Tot=              1.5157
 Quadrupole moment (field-independent basis, Debye-Ang):
   XX=            -39.5938   YY=            -36.8933   ZZ=            -35.7476
   XY=             -2.2204   XZ=             -2.4085   YZ=             -1.1229
 Traceless Quadrupole moment (field-independent basis, Debye-Ang):
   XX=             -2.1822   YY=              0.5182   ZZ=              1.6639
   XY=             -2.2204   XZ=             -2.4085   YZ=             -1.1229
 Octapole moment (field-independent basis, Debye-Ang**2):
  XXX=             -4.6139  YYY=             -3.3126  ZZZ=             -0.5482  XYY=              4.0070
  XXY=              4.0978  XXZ=             -0.4348  XZZ=             -0.3358  YZZ=             -0.6757
  YYZ=              0.0419  XYZ=              1.3589
 Hexadecapole moment (field-independent basis, Debye-Ang**3):
 XXXX=           -553.1985 YYYY=           -261.4998 ZZZZ=            -94.0646 XXXY=             -1.0608
 XXXZ=            -15.5260 YYYX=             -2.9268 YYYZ=              0.8680 ZZZX=             -3.1264
 ZZZY=             -0.8944 XXYY=           -116.4813 XXZZ=            -97.8126 YYZZ=            -60.0265
 XXYZ=             -0.4725 YYXZ=             -2.6302 ZZXY=             -0.1524
 N-N= 2.252365432347D+02 E-N=-1.078936033324D+03  KE= 2.678625040826D+02
 No NMR shielding tensors so no spin-rotation constants.
 Leave Link  601 at Wed Oct 16 16:26:35 2019, MaxMem=   280000000 cpu:               2.2 elap:               0.1
 (Enter /home/soft/g16/l701.exe)
 ... and contract with generalized density number  0.
 Compute integral first derivatives.
 Leave Link  701 at Wed Oct 16 16:26:35 2019, MaxMem=   280000000 cpu:               3.4 elap:               0.2
 (Enter /home/soft/g16/l702.exe)
 L702 exits ... SP integral derivatives will be done elsewhere.
 Leave Link  702 at Wed Oct 16 16:26:35 2019, MaxMem=   280000000 cpu:               0.6 elap:               0.1
 (Enter /home/soft/g16/l703.exe)
 Integral derivatives from FoFJK, PRISM(SPDF).
 Compute integral first derivatives, UseDBF=F ICtDFT=           0.
 Calling FoFJK, ICntrl=      2127 FMM=F ISym2X=0 I1Cent= 0 IOpClX= 0 NMat=1 NMatS=1 NMatT=0.
 FoFJK:  IHMeth= 1 ICntrl=    2127 DoSepK=F KAlg= 0 I1Cent=           0 FoldK=F
 IRaf=         0 NMat=       1 IRICut=       1 DoRegI=T DoRafI=F ISym2E= 0 IDoP0=0 IntGTp=1.
 FoFCou: FMM=F IPFlag=           0 FMFlag=      100000 FMFlg1=         800
         NFxFlg=           0 DoJE=F BraDBF=F KetDBF=F FulRan=T
         wScrn=  0.000000 ICntrl=      2127 IOpCl=  0 I1Cent=           0 NGrid=           0
         NMat0=    1 NMatS0=      1 NMatT0=    0 NMatD0=    1 NMtDS0=    0 NMtDT0=    0
 Symmetry not used in FoFCou.
 Leave Link  703 at Wed Oct 16 16:26:36 2019, MaxMem=   280000000 cpu:              16.2 elap:               0.7
 (Enter /home/soft/g16/l716.exe)
 Dipole        = 3.93238149D-01 2.91017986D-01 3.40957749D-01
 ***** Axes restored to original set *****
 -------------------------------------------------------------------
 Center     Atomic                   Forces (Hartrees/Bohr)
 Number     Number              X              Y              Z
 -------------------------------------------------------------------
      1        6           0.000444289   -0.006583483    0.001710423
      2        1          -0.000113523   -0.000335697    0.000425854
      3        1          -0.000885400    0.000427677    0.000295889
      4        6          -0.003119557    0.004721336   -0.003334639
      5        8          -0.001490271    0.000671929   -0.001741352
      6        6           0.000044707    0.000087364    0.001192738
      7        1           0.000343007   -0.000045476    0.000648170
      8        1          -0.000049778    0.000474493   -0.000063063
      9        6           0.001132857    0.004613361    0.002467364
     10        1           0.000369518   -0.000196575   -0.000617761
     11        6           0.003356454   -0.002420933   -0.001349292
     12        1           0.000881907    0.000217126   -0.001344382
     13        1          -0.000810973   -0.001590655    0.000976231
     14        1          -0.000103236   -0.000040467    0.000733820
 -------------------------------------------------------------------
 Cartesian Forces:  Max     0.006583483 RMS     0.001917090
 Leave Link  716 at Wed Oct 16 16:26:36 2019, MaxMem=   280000000 cpu:               0.5 elap:               0.0
 (Enter /home/soft/g16/l103.exe)

 GradGradGradGradGradGradGradGradGradGradGradGradGradGradGradGradGradGrad
 Berny optimization.
 FormGI is forming the generalized inverse of G from B-inverse, IUseBI=4.
 Internal  Forces:  Max     0.013262327 RMS     0.003224592
 Search for a local minimum.
 Step number   1 out of a maximum of   61
 All quantities printed in internal units (Hartrees-Bohrs-Radians)
 RMS Force = .32246D-02 SwitMx=.10000D-02 MixMth= 1
 Mixed Optimization -- RFO/linear search
 Second derivative matrix not updated -- first step.
 ITU=  0
     Eigenvalues ---    0.00751   0.01053   0.01650   0.02043   0.02649
     Eigenvalues ---    0.02878   0.02878   0.02910   0.02914   0.06277
     Eigenvalues ---    0.07091   0.11648   0.13945   0.15951   0.16000
     Eigenvalues ---    0.16000   0.16000   0.16000   0.16000   0.22000
     Eigenvalues ---    0.22012   0.22061   0.25000   0.32258   0.33801
     Eigenvalues ---    0.34419   0.34546   0.34764   0.34782   0.34960
     Eigenvalues ---    0.35276   0.35458   0.38475   0.50313   0.57129
     Eigenvalues ---    0.57671
 RFO step:  Lambda=-4.93055026D-03 EMin= 7.50880377D-03
 Linear search not attempted -- first point.
 Iteration  1 RMS(Cart)=  0.23697289 RMS(Int)=  0.00758284
 Iteration  2 RMS(Cart)=  0.01499881 RMS(Int)=  0.00036926
 Iteration  3 RMS(Cart)=  0.00010238 RMS(Int)=  0.00036563
 Iteration  4 RMS(Cart)=  0.00000002 RMS(Int)=  0.00036563
 ITry= 1 IFail=0 DXMaxC= 7.27D-01 DCOld= 1.00D+10 DXMaxT= 3.00D-01 DXLimC= 3.00D+00 Rises=F
 Variable       Old X    -DE/DX   Delta X   Delta X   Delta X     New X
                                 (Linear)    (Quad)   (Total)
    R1        2.05229  -0.00051   0.00000  -0.00144  -0.00144   2.05085
    R2        2.04938   0.00101   0.00000   0.00280   0.00280   2.05218
    R3        2.52832  -0.00567   0.00000  -0.00975  -0.00975   2.51857
    R4        2.59551   0.00171   0.00000   0.00336   0.00336   2.59887
    R5        2.06419   0.00072   0.00000   0.00206   0.00206   2.06626
    R6        2.73680   0.00571   0.00000   0.01466   0.01466   2.75147
    R7        2.07668   0.00063   0.00000   0.00185   0.00185   2.07853
    R8        2.06629  -0.00037   0.00000  -0.00105  -0.00105   2.06524
    R9        2.83674   0.00207   0.00000   0.00632   0.00632   2.84306
   R10        2.05740   0.00070   0.00000   0.00198   0.00198   2.05939
   R11        2.53287  -0.00444   0.00000  -0.00770  -0.00770   2.52517
   R12        2.06059  -0.00157   0.00000  -0.00446  -0.00446   2.05613
   R13        2.06031  -0.00200   0.00000  -0.00567  -0.00567   2.05463
    A1        2.06706   0.00002   0.00000   0.00003   0.00002   2.06708
    A2        2.12067  -0.00028   0.00000  -0.00178  -0.00179   2.11888
    A3        2.09492   0.00026   0.00000   0.00150   0.00149   2.09641
    A4        2.14784   0.00174   0.00000   0.00777   0.00687   2.15471
    A5        2.13819  -0.00094   0.00000  -0.00426  -0.00516   2.13303
    A6        1.99716  -0.00079   0.00000  -0.00335  -0.00425   1.99290
    A7        1.97588   0.01326   0.00000   0.05202   0.05202   2.02791
    A8        1.90566  -0.00188   0.00000   0.01200   0.01098   1.91664
    A9        1.83110  -0.00447   0.00000  -0.03036  -0.02983   1.80127
   A10        1.92198   0.01070   0.00000   0.05125   0.05083   1.97281
   A11        1.89915   0.00075   0.00000  -0.00887  -0.00896   1.89019
   A12        1.94081  -0.00136   0.00000   0.00607   0.00506   1.94586
   A13        1.96145  -0.00394   0.00000  -0.03139  -0.03105   1.93040
   A14        2.03066  -0.00104   0.00000  -0.00363  -0.00410   2.02656
   A15        2.15852   0.00164   0.00000   0.00831   0.00784   2.16637
   A16        2.08971  -0.00049   0.00000   0.00022  -0.00025   2.08946
   A17        2.12320   0.00016   0.00000   0.00097   0.00097   2.12417
   A18        2.12219   0.00025   0.00000   0.00149   0.00149   2.12369
   A19        2.03776  -0.00041   0.00000  -0.00249  -0.00249   2.03528
    D1       -0.02543  -0.00119   0.00000  -0.03804  -0.03801  -0.06344
    D2        3.11375   0.00144   0.00000   0.04555   0.04551  -3.12393
    D3        3.08045  -0.00147   0.00000  -0.04632  -0.04628   3.03417
    D4       -0.06355   0.00116   0.00000   0.03727   0.03723  -0.02632
    D5        1.89627   0.00551   0.00000   0.20820   0.20822   2.10449
    D6       -1.24308   0.00308   0.00000   0.13079   0.13077  -1.11231
    D7        0.84094   0.00068   0.00000  -0.06928  -0.06885   0.77209
    D8        2.87406  -0.00167   0.00000  -0.08973  -0.08960   2.78446
    D9       -1.29468  -0.00329   0.00000  -0.11769  -0.11825  -1.41293
   D10       -1.36195   0.00213   0.00000   0.08335   0.08380  -1.27815
   D11        1.67974   0.00337   0.00000   0.14021   0.14062   1.82037
   D12        2.80650  -0.00182   0.00000   0.02961   0.02941   2.83591
   D13       -0.43499  -0.00059   0.00000   0.08647   0.08623  -0.34876
   D14        0.67261   0.00104   0.00000   0.05924   0.05904   0.73165
   D15       -2.56888   0.00227   0.00000   0.11610   0.11586  -2.45302
   D16        0.07417  -0.00037   0.00000  -0.02172  -0.02175   0.05242
   D17       -3.07588  -0.00046   0.00000  -0.02449  -0.02452  -3.10040
   D18        3.11266   0.00088   0.00000   0.03678   0.03681  -3.13371
   D19       -0.03739   0.00078   0.00000   0.03401   0.03404  -0.00335
         Item               Value     Threshold  Converged?
 Maximum Force            0.013262     0.000450     NO 
 RMS     Force            0.003225     0.000300     NO 
 Maximum Displacement     0.727171     0.001800     NO 
 RMS     Displacement     0.238837     0.001200     NO 
 Predicted change in Energy=-2.866401D-03
 Lowest energy point so far.  Saving SCF results.
 GradGradGradGradGradGradGradGradGradGradGradGradGradGradGradGradGradGrad

 Leave Link  103 at Wed Oct 16 16:26:36 2019, MaxMem=   280000000 cpu:               0.7 elap:               0.1
 (Enter /home/soft/g16/l202.exe)
                          Input orientation:                          
 ---------------------------------------------------------------------
 Center     Atomic      Atomic             Coordinates (Angstroms)
 Number     Number       Type             X           Y           Z
 ---------------------------------------------------------------------
      1          6           0       -2.243764    0.420052   -0.398622
      2          1           0       -2.070248    0.682248   -1.437345
      3          1           0       -3.123328    0.821336    0.096009
      4          6           0       -1.432366   -0.413267    0.252136
      5          8           0       -0.371649   -1.056588   -0.341467
      6          6           0        0.942055   -0.787842    0.225925
      7          1           0        0.887689   -0.820339    1.324009
      8          1           0        1.539213   -1.637930   -0.113390
      9          6           0        1.539049    0.505445   -0.258304
     10          1           0        1.901770    0.511244   -1.285934
     11          6           0        1.598897    1.623139    0.471608
     12          1           0        1.252749    1.651962    1.502735
     13          1           0        2.005547    2.547347    0.068345
     14          1           0       -1.603743   -0.699119    1.293518
 ---------------------------------------------------------------------
                    Distance matrix (angstroms):
                    1          2          3          4          5
     1  C    0.000000
     2  H    1.085265   0.000000
     3  H    1.085965   1.865341   0.000000
     4  C    1.332769   2.112201   2.099517   0.000000
     5  O    2.385067   2.666409   3.360018   1.375263   0.000000
     6  C    3.463886   3.741871   4.374205   2.403927   1.456013
     7  H    3.783123   4.316507   4.504590   2.587909   2.101322
     8  H    4.315966   4.490467   5.275521   3.234763   2.010317
     9  C    3.786377   3.801108   4.686479   3.151807   2.469338
    10  H    4.240411   3.978580   5.220875   3.786402   2.918655
    11  C    4.119558   4.241698   4.804516   3.658370   3.424190
    12  H    4.166336   4.541665   4.671067   3.610956   3.657320
    13  H    4.774944   4.728404   5.411584   4.540734   4.336745
    14  H    2.127324   3.095709   2.460681   1.093415   2.078224
                    6          7          8          9         10
     6  C    0.000000
     7  H    1.099910   0.000000
     8  H    1.092878   1.777373   0.000000
     9  C    1.504483   2.164645   2.148268   0.000000
    10  H    2.212328   3.100529   2.474926   1.089782   0.000000
    11  C    2.510903   2.683839   3.313662   1.336261   2.101665
    12  H    2.771176   2.505490   3.676589   2.120784   3.082068
    13  H    3.504188   3.763988   4.215097   2.119831   2.447562
    14  H    2.762012   2.494565   3.569163   3.706247   4.517430
                   11         12         13         14
    11  C    0.000000
    12  H    1.088059   0.000000
    13  H    1.087265   1.850917   0.000000
    14  H    4.040460   3.705522   5.006752   0.000000
 Stoichiometry    C5H8O
 Framework group  C1[X(C5H8O)]
 Deg. of freedom    36
 Full point group                 C1      NOp   1
 RotChk:  IX=0 Diff= 4.97D-02
 Largest Abelian subgroup         C1      NOp   1
 Largest concise Abelian subgroup C1      NOp   1
                         Standard orientation:                         
 ---------------------------------------------------------------------
 Center     Atomic      Atomic             Coordinates (Angstroms)
 Number     Number       Type             X           Y           Z
 ---------------------------------------------------------------------
      1          6           0       -2.093048    0.957913   -0.239542
      2          1           0       -1.952239    1.135151   -1.300938
      3          1           0       -2.779730    1.599082    0.305152
      4          6           0       -1.482672   -0.050015    0.383189
      5          8           0       -0.697761   -0.976300   -0.262767
      6          6           0        0.686390   -1.066252    0.179961
      7          1           0        0.727852   -1.054175    1.279023
      8          1           0        0.994733   -2.056634   -0.164205
      9          6           0        1.565609   -0.001029   -0.416482
     10          1           0        1.818704   -0.122092   -1.469530
     11          6           0        1.995793    1.075095    0.248719
     12          1           0        1.768336    1.224934    1.302135
     13          1           0        2.599639    1.840365   -0.232816
     14          1           0       -1.627637   -0.250504    1.448246
 ---------------------------------------------------------------------
 Rotational constants (GHZ):           5.9995266           2.3505695           1.8947788
 Leave Link  202 at Wed Oct 16 16:26:36 2019, MaxMem=   280000000 cpu:               1.1 elap:               0.1
 (Enter /home/soft/g16/l301.exe)
 Standard basis: 6-31+G(d) (6D, 7F)
 Ernie: Thresh=  0.10000D-02 Tol=  0.10000D-05 Strict=F.
 There are   130 symmetry adapted cartesian basis functions of A   symmetry.
 There are   130 symmetry adapted basis functions of A   symmetry.
   130 basis functions,   224 primitive gaussians,   130 cartesian basis functions
    23 alpha electrons       23 beta electrons
       nuclear repulsion energy       221.0430721566 Hartrees.
 IExCor=  402 DFT=T Ex+Corr=B3LYP ExCW=0 ScaHFX=  0.200000
 ScaDFX=  0.800000  0.720000  1.000000  0.810000 ScalE2=  1.000000  1.000000
 IRadAn=      5 IRanWt=     -1 IRanGd=            0 ICorTp=0 IEmpDi=  4
 NAtoms=   14 NActive=   14 NUniq=   14 SFac= 1.00D+00 NAtFMM=   60 NAOKFM=F Big=F
 Integral buffers will be    131072 words long.
 Raffenetti 2 integral format.
 Two-electron integral symmetry is turned on.
 Leave Link  301 at Wed Oct 16 16:26:36 2019, MaxMem=   280000000 cpu:               1.3 elap:               0.1
 (Enter /home/soft/g16/l302.exe)
 NPDir=0 NMtPBC=     1 NCelOv=     1 NCel=       1 NClECP=     1 NCelD=      1
         NCelK=      1 NCelE2=     1 NClLst=     1 CellRange=     0.0.
 One-electron integrals computed using PRISM.
 One-electron integral symmetry used in STVInt
 NBasis=   130 RedAO= T EigKep=  6.73D-05  NBF=   130
 NBsUse=   130 1.00D-06 EigRej= -1.00D+00 NBFU=   130
 Precomputing XC quadrature grid using
 IXCGrd= 4 IRadAn=           5 IRanWt=          -1 IRanGd=           0 AccXCQ= 0.00D+00.
 Generated NRdTot=       0 NPtTot=           0 NUsed=           0 NTot=          32
 NSgBfM=   130   130   130   130   130 MxSgAt=    14 MxSgA2=    14.
 Leave Link  302 at Wed Oct 16 16:26:36 2019, MaxMem=   280000000 cpu:               3.3 elap:               0.2
 (Enter /home/soft/g16/l303.exe)
 DipDrv:  MaxL=1.
 Leave Link  303 at Wed Oct 16 16:26:37 2019, MaxMem=   280000000 cpu:               1.3 elap:               0.1
 (Enter /home/soft/g16/l401.exe)
 Initial guess from the checkpoint file:  "Rb4.chk"
 B after Tr=     0.000000    0.000000    0.000000
         Rot=    0.999908    0.003923   -0.012041    0.004860 Ang=   1.55 deg.
 Guess basis will be translated and rotated to current coordinates.
 JPrj=2 DoOrth=T DoCkMO=T.
 Generating alternative initial guess.
 ExpMin= 4.38D-02 ExpMax= 5.48D+03 ExpMxC= 8.25D+02 IAcc=2 IRadAn=         4 AccDes= 0.00D+00
 Harris functional with IExCor=  402 and IRadAn=       4 diagonalized for initial guess.
 HarFok:  IExCor=  402 AccDes= 0.00D+00 IRadAn=         4 IDoV= 1 UseB2=F ITyADJ=14
 ICtDFT=  3500011 ScaDFX=  1.000000  1.000000  1.000000  1.000000
 FoFCou: FMM=F IPFlag=           0 FMFlag=      100000 FMFlg1=           0
         NFxFlg=           0 DoJE=T BraDBF=F KetDBF=T FulRan=T
         wScrn=  0.000000 ICntrl=       500 IOpCl=  0 I1Cent=   200000004 NGrid=           0
         NMat0=    1 NMatS0=      1 NMatT0=    0 NMatD0=    1 NMtDS0=    0 NMtDT0=    0
 Petite list used in FoFCou.
 Harris En= -270.545944916100    
 Leave Link  401 at Wed Oct 16 16:26:37 2019, MaxMem=   280000000 cpu:               6.2 elap:               0.3
 (Enter /home/soft/g16/l502.exe)
 Integral symmetry usage will be decided dynamically.
 Closed shell SCF:
 Using DIIS extrapolation, IDIIS=  1040.
 NGot=   280000000 LenX=   279961518 LenY=   279944177
 Requested convergence on RMS density matrix=1.00D-08 within 128 cycles.
 Requested convergence on MAX density matrix=1.00D-06.
 Requested convergence on             energy=1.00D-06.
 No special actions if energy rises.
 Fock matrices will be formed incrementally for  20 cycles.

 Cycle   1  Pass 1  IDiag  1:
 FoFJK:  IHMeth= 1 ICntrl=       0 DoSepK=F KAlg= 0 I1Cent=           0 FoldK=F
 IRaf= 990000000 NMat=       1 IRICut=       1 DoRegI=T DoRafI=F ISym2E= 0 IDoP0=0 IntGTp=1.
 FoFCou: FMM=F IPFlag=           0 FMFlag=      100000 FMFlg1=           0
         NFxFlg=           0 DoJE=F BraDBF=F KetDBF=F FulRan=T
         wScrn=  0.000000 ICntrl=         0 IOpCl=  0 I1Cent=           0 NGrid=           0
         NMat0=    1 NMatS0=      1 NMatT0=    0 NMatD0=    1 NMtDS0=    0 NMtDT0=    0
 Symmetry not used in FoFCou.
 E= -270.478995085848    
 DIIS: error= 7.11D-03 at cycle   1 NSaved=   1.
 NSaved= 1 IEnMin= 1 EnMin= -270.478995085848     IErMin= 1 ErrMin= 7.11D-03
 ErrMax= 7.11D-03  0.00D+00 EMaxC= 1.00D-01 BMatC= 1.57D-02 BMatP= 1.57D-02
 IDIUse=3 WtCom= 9.29D-01 WtEn= 7.11D-02
 Coeff-Com:  0.100D+01
 Coeff-En:   0.100D+01
 Coeff:      0.100D+01
 Gap=     0.582 Goal=   None    Shift=    0.000
 GapD=    0.582 DampG=2.000 DampE=1.000 DampFc=2.0000 IDamp=-1.
 RMSDP=2.65D-03 MaxDP=4.89D-02              OVMax= 7.21D-02

 Cycle   2  Pass 1  IDiag  1:
 RMSU=  2.64D-03    CP:  9.93D-01
 E= -270.513410514602     Delta-E=       -0.034415428754 Rises=F Damp=F
 DIIS: error= 1.15D-03 at cycle   2 NSaved=   2.
 NSaved= 2 IEnMin= 2 EnMin= -270.513410514602     IErMin= 2 ErrMin= 1.15D-03
 ErrMax= 1.15D-03  0.00D+00 EMaxC= 1.00D-01 BMatC= 3.52D-04 BMatP= 1.57D-02
 IDIUse=3 WtCom= 9.89D-01 WtEn= 1.15D-02
 Coeff-Com: -0.552D-01 0.106D+01
 Coeff-En:   0.000D+00 0.100D+01
 Coeff:     -0.546D-01 0.105D+01
 Gap=     0.224 Goal=   None    Shift=    0.000
 RMSDP=5.74D-04 MaxDP=9.91D-03 DE=-3.44D-02 OVMax= 1.20D-02

 Cycle   3  Pass 1  IDiag  1:
 RMSU=  5.62D-04    CP:  9.92D-01  1.04D+00
 E= -270.513819588912     Delta-E=       -0.000409074310 Rises=F Damp=F
 DIIS: error= 9.71D-04 at cycle   3 NSaved=   3.
 NSaved= 3 IEnMin= 3 EnMin= -270.513819588912     IErMin= 3 ErrMin= 9.71D-04
 ErrMax= 9.71D-04  0.00D+00 EMaxC= 1.00D-01 BMatC= 3.08D-04 BMatP= 3.52D-04
 IDIUse=3 WtCom= 9.90D-01 WtEn= 9.71D-03
 Coeff-Com: -0.451D-01 0.537D+00 0.509D+00
 Coeff-En:   0.000D+00 0.484D-01 0.952D+00
 Coeff:     -0.446D-01 0.532D+00 0.513D+00
 Gap=     0.228 Goal=   None    Shift=    0.000
 RMSDP=2.52D-04 MaxDP=9.04D-03 DE=-4.09D-04 OVMax= 5.18D-03

 Cycle   4  Pass 1  IDiag  1:
 RMSU=  2.29D-04    CP:  9.91D-01  1.05D+00  8.22D-01
 E= -270.514121197554     Delta-E=       -0.000301608642 Rises=F Damp=F
 DIIS: error= 2.39D-04 at cycle   4 NSaved=   4.
 NSaved= 4 IEnMin= 4 EnMin= -270.514121197554     IErMin= 4 ErrMin= 2.39D-04
 ErrMax= 2.39D-04  0.00D+00 EMaxC= 1.00D-01 BMatC= 1.73D-05 BMatP= 3.08D-04
 IDIUse=3 WtCom= 9.98D-01 WtEn= 2.39D-03
 Coeff-Com: -0.156D-01 0.162D+00 0.236D+00 0.618D+00
 Coeff-En:   0.000D+00 0.000D+00 0.000D+00 0.100D+01
 Coeff:     -0.156D-01 0.161D+00 0.235D+00 0.619D+00
 Gap=     0.228 Goal=   None    Shift=    0.000
 RMSDP=5.92D-05 MaxDP=1.22D-03 DE=-3.02D-04 OVMax= 2.91D-03

 Cycle   5  Pass 1  IDiag  1:
 RMSU=  5.38D-05    CP:  9.91D-01  1.06D+00  8.31D-01  9.37D-01
 E= -270.514134773496     Delta-E=       -0.000013575942 Rises=F Damp=F
 DIIS: error= 1.39D-04 at cycle   5 NSaved=   5.
 NSaved= 5 IEnMin= 5 EnMin= -270.514134773496     IErMin= 5 ErrMin= 1.39D-04
 ErrMax= 1.39D-04  0.00D+00 EMaxC= 1.00D-01 BMatC= 4.48D-06 BMatP= 1.73D-05
 IDIUse=3 WtCom= 9.99D-01 WtEn= 1.39D-03
 Coeff-Com: -0.208D-02 0.989D-02 0.579D-01 0.371D+00 0.563D+00
 Coeff-En:   0.000D+00 0.000D+00 0.000D+00 0.190D+00 0.810D+00
 Coeff:     -0.208D-02 0.987D-02 0.578D-01 0.371D+00 0.563D+00
 Gap=     0.228 Goal=   None    Shift=    0.000
 RMSDP=2.13D-05 MaxDP=5.23D-04 DE=-1.36D-05 OVMax= 1.36D-03

 Cycle   6  Pass 1  IDiag  1:
 RMSU=  1.74D-05    CP:  9.91D-01  1.06D+00  8.37D-01  9.47D-01  7.83D-01
 E= -270.514139346614     Delta-E=       -0.000004573117 Rises=F Damp=F
 DIIS: error= 3.39D-05 at cycle   6 NSaved=   6.
 NSaved= 6 IEnMin= 6 EnMin= -270.514139346614     IErMin= 6 ErrMin= 3.39D-05
 ErrMax= 3.39D-05  0.00D+00 EMaxC= 1.00D-01 BMatC= 3.15D-07 BMatP= 4.48D-06
 IDIUse=1 WtCom= 1.00D+00 WtEn= 0.00D+00
 Coeff-Com:  0.101D-02-0.168D-01-0.293D-02 0.975D-01 0.271D+00 0.650D+00
 Coeff:      0.101D-02-0.168D-01-0.293D-02 0.975D-01 0.271D+00 0.650D+00
 Gap=     0.228 Goal=   None    Shift=    0.000
 RMSDP=9.89D-06 MaxDP=1.64D-04 DE=-4.57D-06 OVMax= 2.85D-04

 Cycle   7  Pass 1  IDiag  1:
 RMSU=  3.47D-06    CP:  9.91D-01  1.06D+00  8.46D-01  9.65D-01  7.75D-01
                    CP:  6.74D-01
 E= -270.514139659311     Delta-E=       -0.000000312697 Rises=F Damp=F
 DIIS: error= 1.30D-05 at cycle   7 NSaved=   7.
 NSaved= 7 IEnMin= 7 EnMin= -270.514139659311     IErMin= 7 ErrMin= 1.30D-05
 ErrMax= 1.30D-05  0.00D+00 EMaxC= 1.00D-01 BMatC= 3.30D-08 BMatP= 3.15D-07
 IDIUse=1 WtCom= 1.00D+00 WtEn= 0.00D+00
 Coeff-Com:  0.606D-03-0.914D-02-0.427D-02 0.318D-01 0.115D+00 0.350D+00
 Coeff-Com:  0.516D+00
 Coeff:      0.606D-03-0.914D-02-0.427D-02 0.318D-01 0.115D+00 0.350D+00
 Coeff:      0.516D+00
 Gap=     0.228 Goal=   None    Shift=    0.000
 RMSDP=2.35D-06 MaxDP=4.25D-05 DE=-3.13D-07 OVMax= 6.23D-05

 Cycle   8  Pass 1  IDiag  1:
 RMSU=  1.78D-06    CP:  9.91D-01  1.06D+00  8.48D-01  9.70D-01  7.77D-01
                    CP:  6.80D-01  8.16D-01
 E= -270.514139683850     Delta-E=       -0.000000024539 Rises=F Damp=F
 DIIS: error= 4.46D-06 at cycle   8 NSaved=   8.
 NSaved= 8 IEnMin= 8 EnMin= -270.514139683850     IErMin= 8 ErrMin= 4.46D-06
 ErrMax= 4.46D-06  0.00D+00 EMaxC= 1.00D-01 BMatC= 4.45D-09 BMatP= 3.30D-08
 IDIUse=1 WtCom= 1.00D+00 WtEn= 0.00D+00
 Coeff-Com:  0.220D-03-0.308D-02-0.218D-02 0.415D-02 0.281D-01 0.110D+00
 Coeff-Com:  0.301D+00 0.561D+00
 Coeff:      0.220D-03-0.308D-02-0.218D-02 0.415D-02 0.281D-01 0.110D+00
 Coeff:      0.301D+00 0.561D+00
 Gap=     0.228 Goal=   None    Shift=    0.000
 RMSDP=8.01D-07 MaxDP=1.32D-05 DE=-2.45D-08 OVMax= 2.63D-05

 Cycle   9  Pass 1  IDiag  1:
 RMSU=  5.11D-07    CP:  9.91D-01  1.06D+00  8.48D-01  9.70D-01  7.85D-01
                    CP:  6.94D-01  8.56D-01  8.05D-01
 E= -270.514139687383     Delta-E=       -0.000000003533 Rises=F Damp=F
 DIIS: error= 1.03D-06 at cycle   9 NSaved=   9.
 NSaved= 9 IEnMin= 9 EnMin= -270.514139687383     IErMin= 9 ErrMin= 1.03D-06
 ErrMax= 1.03D-06  0.00D+00 EMaxC= 1.00D-01 BMatC= 3.39D-10 BMatP= 4.45D-09
 IDIUse=1 WtCom= 1.00D+00 WtEn= 0.00D+00
 Coeff-Com:  0.489D-04-0.607D-03-0.661D-03-0.126D-02 0.236D-02 0.215D-01
 Coeff-Com:  0.102D+00 0.285D+00 0.591D+00
 Coeff:      0.489D-04-0.607D-03-0.661D-03-0.126D-02 0.236D-02 0.215D-01
 Coeff:      0.102D+00 0.285D+00 0.591D+00
 Gap=     0.228 Goal=   None    Shift=    0.000
 RMSDP=2.80D-07 MaxDP=6.41D-06 DE=-3.53D-09 OVMax= 1.03D-05

 Cycle  10  Pass 1  IDiag  1:
 RMSU=  2.12D-07    CP:  9.91D-01  1.06D+00  8.48D-01  9.71D-01  7.86D-01
                    CP:  6.99D-01  8.56D-01  8.39D-01  8.26D-01
 E= -270.514139687700     Delta-E=       -0.000000000317 Rises=F Damp=F
 DIIS: error= 2.87D-07 at cycle  10 NSaved=  10.
 NSaved=10 IEnMin=10 EnMin= -270.514139687700     IErMin=10 ErrMin= 2.87D-07
 ErrMax= 2.87D-07  0.00D+00 EMaxC= 1.00D-01 BMatC= 3.48D-11 BMatP= 3.39D-10
 IDIUse=1 WtCom= 1.00D+00 WtEn= 0.00D+00
 Coeff-Com: -0.426D-06 0.590D-04-0.777D-04-0.111D-02-0.215D-02-0.178D-02
 Coeff-Com:  0.174D-01 0.775D-01 0.296D+00 0.614D+00
 Coeff:     -0.426D-06 0.590D-04-0.777D-04-0.111D-02-0.215D-02-0.178D-02
 Coeff:      0.174D-01 0.775D-01 0.296D+00 0.614D+00
 Gap=     0.228 Goal=   None    Shift=    0.000
 RMSDP=7.69D-08 MaxDP=1.98D-06 DE=-3.17D-10 OVMax= 3.22D-06

 Cycle  11  Pass 1  IDiag  1:
 RMSU=  5.02D-08    CP:  9.91D-01  1.06D+00  8.48D-01  9.70D-01  7.85D-01
                    CP:  6.99D-01  8.59D-01  8.42D-01  8.56D-01  7.84D-01
 E= -270.514139687733     Delta-E=       -0.000000000033 Rises=F Damp=F
 DIIS: error= 1.18D-07 at cycle  11 NSaved=  11.
 NSaved=11 IEnMin=11 EnMin= -270.514139687733     IErMin=11 ErrMin= 1.18D-07
 ErrMax= 1.18D-07  0.00D+00 EMaxC= 1.00D-01 BMatC= 5.49D-12 BMatP= 3.48D-11
 IDIUse=1 WtCom= 1.00D+00 WtEn= 0.00D+00
 Coeff-Com: -0.302D-05 0.709D-04-0.402D-05-0.547D-03-0.136D-02-0.227D-02
 Coeff-Com:  0.325D-02 0.252D-01 0.133D+00 0.371D+00 0.471D+00
 Coeff:     -0.302D-05 0.709D-04-0.402D-05-0.547D-03-0.136D-02-0.227D-02
 Coeff:      0.325D-02 0.252D-01 0.133D+00 0.371D+00 0.471D+00
 Gap=     0.228 Goal=   None    Shift=    0.000
 RMSDP=2.31D-08 MaxDP=4.73D-07 DE=-3.34D-11 OVMax= 1.09D-06

 Cycle  12  Pass 1  IDiag  1:
 RMSU=  1.48D-08    CP:  9.91D-01  1.06D+00  8.48D-01  9.70D-01  7.85D-01
                    CP:  6.98D-01  8.60D-01  8.47D-01  8.52D-01  7.87D-01
                    CP:  7.45D-01
 E= -270.514139687738     Delta-E=       -0.000000000005 Rises=F Damp=F
 DIIS: error= 1.20D-08 at cycle  12 NSaved=  12.
 NSaved=12 IEnMin=12 EnMin= -270.514139687738     IErMin=12 ErrMin= 1.20D-08
 ErrMax= 1.20D-08  0.00D+00 EMaxC= 1.00D-01 BMatC= 4.97D-14 BMatP= 5.49D-12
 IDIUse=1 WtCom= 1.00D+00 WtEn= 0.00D+00
 Coeff-Com: -0.714D-06 0.117D-04 0.452D-05-0.399D-04-0.149D-03-0.409D-03
 Coeff-Com: -0.816D-03-0.125D-02 0.812D-02 0.429D-01 0.114D+00 0.837D+00
 Coeff:     -0.714D-06 0.117D-04 0.452D-05-0.399D-04-0.149D-03-0.409D-03
 Coeff:     -0.816D-03-0.125D-02 0.812D-02 0.429D-01 0.114D+00 0.837D+00
 Gap=     0.228 Goal=   None    Shift=    0.000
 RMSDP=7.27D-09 MaxDP=1.98D-07 DE=-4.83D-12 OVMax= 8.70D-08

 SCF Done:  E(RB3LYP) =  -270.514139688     A.U. after   12 cycles
            NFock= 12  Conv=0.73D-08     -V/T= 2.0100
 KE= 2.678354320239D+02 PE=-1.070507675377D+03 EE= 3.111150315087D+02
 Leave Link  502 at Wed Oct 16 16:26:40 2019, MaxMem=   280000000 cpu:              84.7 elap:               3.6
 (Enter /home/soft/g16/l701.exe)
 ... and contract with generalized density number  0.
 Compute integral first derivatives.
 Leave Link  701 at Wed Oct 16 16:26:41 2019, MaxMem=   280000000 cpu:               2.6 elap:               0.1
 (Enter /home/soft/g16/l702.exe)
 L702 exits ... SP integral derivatives will be done elsewhere.
 Leave Link  702 at Wed Oct 16 16:26:41 2019, MaxMem=   280000000 cpu:               0.8 elap:               0.1
 (Enter /home/soft/g16/l703.exe)
 Integral derivatives from FoFJK, PRISM(SPDF).
 Compute integral first derivatives, UseDBF=F ICtDFT=           0.
 Calling FoFJK, ICntrl=      2127 FMM=F ISym2X=0 I1Cent= 0 IOpClX= 0 NMat=1 NMatS=1 NMatT=0.
 FoFJK:  IHMeth= 1 ICntrl=    2127 DoSepK=F KAlg= 0 I1Cent=           0 FoldK=F
 IRaf=         0 NMat=       1 IRICut=       1 DoRegI=T DoRafI=F ISym2E= 0 IDoP0=0 IntGTp=1.
 FoFCou: FMM=F IPFlag=           0 FMFlag=      100000 FMFlg1=         800
         NFxFlg=           0 DoJE=F BraDBF=F KetDBF=F FulRan=T
         wScrn=  0.000000 ICntrl=      2127 IOpCl=  0 I1Cent=           0 NGrid=           0
         NMat0=    1 NMatS0=      1 NMatT0=    0 NMatD0=    1 NMtDS0=    0 NMtDT0=    0
 Symmetry not used in FoFCou.
 Leave Link  703 at Wed Oct 16 16:26:41 2019, MaxMem=   280000000 cpu:              15.1 elap:               0.6
 (Enter /home/soft/g16/l716.exe)
 Dipole        = 4.35923158D-01 2.23441571D-01 3.55345728D-01
 ***** Axes restored to original set *****
 -------------------------------------------------------------------
 Center     Atomic                   Forces (Hartrees/Bohr)
 Number     Number              X              Y              Z
 -------------------------------------------------------------------
      1        6          -0.001044201   -0.001426002   -0.001323366
      2        1           0.000151098    0.000371609   -0.000333329
      3        1           0.000441208   -0.000004600   -0.000014891
      4        6           0.003154331   -0.002317960    0.001823211
      5        8           0.002600534    0.006214042   -0.001661879
      6        6          -0.002448466   -0.005053780    0.000056350
      7        1          -0.001349243    0.001293508   -0.000341018
      8        1           0.001095621   -0.000540956    0.000778262
      9        6          -0.003899090    0.000453170   -0.000341017
     10        1          -0.001243863   -0.000086752   -0.000445089
     11        6           0.001528027   -0.000593063    0.000423528
     12        1          -0.000812038    0.000222994    0.000214359
     13        1           0.000521059   -0.000096131    0.000318602
     14        1           0.001305023    0.001563922    0.000846278
 -------------------------------------------------------------------
 Cartesian Forces:  Max     0.006214042 RMS     0.001796300
 Leave Link  716 at Wed Oct 16 16:26:41 2019, MaxMem=   280000000 cpu:               1.1 elap:               0.1
 (Enter /home/soft/g16/l103.exe)

 GradGradGradGradGradGradGradGradGradGradGradGradGradGradGradGradGradGrad
 Berny optimization.
 Using GEDIIS/GDIIS optimizer.
 FormGI is forming the generalized inverse of G from B-inverse, IUseBI=4.
 Internal  Forces:  Max     0.006515871 RMS     0.001719002
 Search for a local minimum.
 Step number   2 out of a maximum of   61
 All quantities printed in internal units (Hartrees-Bohrs-Radians)
 RMS Force = .17190D-02 SwitMx=.10000D-02 MixMth= 1
 Mixed Optimization -- RFO/linear search
 Update second derivatives using D2CorX and points    1    2
 DE= -2.44D-03 DEPred=-2.87D-03 R= 8.51D-01
 TightC=F SS=  1.41D+00  RLast= 3.97D-01 DXNew= 5.0454D-01 1.1921D+00
 Trust test= 8.51D-01 RLast= 3.97D-01 DXMaxT set to 5.05D-01
 ITU=  1  0
 Use linear search instead of GDIIS.
     Eigenvalues ---    0.00663   0.01150   0.01379   0.01686   0.02731
     Eigenvalues ---    0.02878   0.02905   0.02910   0.02945   0.06493
     Eigenvalues ---    0.07246   0.11926   0.14176   0.15978   0.15984
     Eigenvalues ---    0.15999   0.16000   0.16000   0.16004   0.21957
     Eigenvalues ---    0.22006   0.23283   0.28788   0.32555   0.33812
     Eigenvalues ---    0.34444   0.34539   0.34766   0.34796   0.34958
     Eigenvalues ---    0.35288   0.35471   0.42587   0.51339   0.57210
     Eigenvalues ---    0.58002
 RFO step:  Lambda=-2.53687713D-03 EMin= 6.63363648D-03
 Quartic linear search produced a step of  0.16154.
 Iteration  1 RMS(Cart)=  0.15989911 RMS(Int)=  0.01150227
 Iteration  2 RMS(Cart)=  0.02621641 RMS(Int)=  0.00027856
 Iteration  3 RMS(Cart)=  0.00050589 RMS(Int)=  0.00012085
 Iteration  4 RMS(Cart)=  0.00000015 RMS(Int)=  0.00012085
 ITry= 1 IFail=0 DXMaxC= 5.21D-01 DCOld= 1.00D+10 DXMaxT= 5.05D-01 DXLimC= 3.00D+00 Rises=F
 Variable       Old X    -DE/DX   Delta X   Delta X   Delta X     New X
                                 (Linear)    (Quad)   (Total)
    R1        2.05085   0.00043  -0.00023   0.00097   0.00074   2.05160
    R2        2.05218  -0.00037   0.00045  -0.00042   0.00003   2.05220
    R3        2.51857   0.00043  -0.00158  -0.00160  -0.00318   2.51539
    R4        2.59887  -0.00351   0.00054  -0.00674  -0.00620   2.59267
    R5        2.06626   0.00019   0.00033   0.00112   0.00145   2.06770
    R6        2.75147  -0.00652   0.00237  -0.01473  -0.01236   2.73911
    R7        2.07853  -0.00031   0.00030  -0.00054  -0.00024   2.07829
    R8        2.06524   0.00078  -0.00017   0.00219   0.00202   2.06726
    R9        2.84306  -0.00169   0.00102  -0.00411  -0.00309   2.83997
   R10        2.05939   0.00001   0.00032   0.00051   0.00083   2.06022
   R11        2.52517   0.00019  -0.00124  -0.00155  -0.00279   2.52237
   R12        2.05613   0.00047  -0.00072   0.00035  -0.00037   2.05576
   R13        2.05463  -0.00001  -0.00092  -0.00142  -0.00234   2.05229
    A1        2.06708   0.00001   0.00000   0.00020   0.00018   2.06727
    A2        2.11888   0.00019  -0.00029   0.00100   0.00069   2.11957
    A3        2.09641  -0.00018   0.00024  -0.00071  -0.00049   2.09591
    A4        2.15471  -0.00195   0.00111  -0.00785  -0.00694   2.14777
    A5        2.13303   0.00099  -0.00083   0.00368   0.00265   2.13568
    A6        1.99290   0.00098  -0.00069   0.00377   0.00288   1.99579
    A7        2.02791  -0.00474   0.00840  -0.00753   0.00087   2.02878
    A8        1.91664   0.00092   0.00177  -0.00496  -0.00340   1.91324
    A9        1.80127   0.00197  -0.00482   0.01128   0.00654   1.80782
   A10        1.97281  -0.00431   0.00821  -0.01103  -0.00292   1.96989
   A11        1.89019   0.00007  -0.00145   0.00646   0.00501   1.89520
   A12        1.94586  -0.00000   0.00082  -0.00908  -0.00845   1.93741
   A13        1.93040   0.00166  -0.00502   0.00962   0.00466   1.93506
   A14        2.02656  -0.00022  -0.00066  -0.00283  -0.00388   2.02268
   A15        2.16637  -0.00049   0.00127  -0.00037   0.00051   2.16688
   A16        2.08946   0.00072  -0.00004   0.00459   0.00416   2.09362
   A17        2.12417  -0.00006   0.00016  -0.00016   0.00000   2.12417
   A18        2.12369   0.00017   0.00024   0.00156   0.00180   2.12548
   A19        2.03528  -0.00011  -0.00040  -0.00137  -0.00177   2.03350
    D1       -0.06344  -0.00004  -0.00614  -0.01044  -0.01658  -0.08002
    D2       -3.12393  -0.00045   0.00735  -0.00422   0.00313  -3.12080
    D3        3.03417   0.00041  -0.00748   0.00269  -0.00478   3.02939
    D4       -0.02632  -0.00000   0.00601   0.00891   0.01492  -0.01140
    D5        2.10449   0.00320   0.03363   0.21030   0.24393   2.34842
    D6       -1.11231   0.00359   0.02112   0.20458   0.22571  -0.88660
    D7        0.77209  -0.00081  -0.01112   0.00383  -0.00721   0.76488
    D8        2.78446   0.00066  -0.01447   0.01486   0.00041   2.78487
    D9       -1.41293   0.00168  -0.01910   0.02778   0.00858  -1.40434
   D10       -1.27815  -0.00049   0.01354   0.07075   0.08442  -1.19372
   D11        1.82037  -0.00010   0.02272   0.10849   0.13125   1.95162
   D12        2.83591   0.00160   0.00475   0.09291   0.09764   2.93355
   D13       -0.34876   0.00199   0.01393   0.13064   0.14447  -0.20430
   D14        0.73165   0.00039   0.00954   0.08426   0.09382   0.82547
   D15       -2.45302   0.00078   0.01872   0.12200   0.14064  -2.31238
   D16        0.05242  -0.00083  -0.00351  -0.03975  -0.04333   0.00909
   D17       -3.10040  -0.00072  -0.00396  -0.03649  -0.04052  -3.14091
   D18       -3.13371  -0.00045   0.00595  -0.00091   0.00510  -3.12861
   D19       -0.00335  -0.00034   0.00550   0.00235   0.00791   0.00457
         Item               Value     Threshold  Converged?
 Maximum Force            0.006516     0.000450     NO 
 RMS     Force            0.001719     0.000300     NO 
 Maximum Displacement     0.520728     0.001800     NO 
 RMS     Displacement     0.179664     0.001200     NO 
 Predicted change in Energy=-1.278213D-03
 Lowest energy point so far.  Saving SCF results.
 GradGradGradGradGradGradGradGradGradGradGradGradGradGradGradGradGradGrad

 Leave Link  103 at Wed Oct 16 16:26:42 2019, MaxMem=   280000000 cpu:               3.0 elap:               0.2
 (Enter /home/soft/g16/l202.exe)
                          Input orientation:                          
 ---------------------------------------------------------------------
 Center     Atomic      Atomic             Coordinates (Angstroms)
 Number     Number       Type             X           Y           Z
 ---------------------------------------------------------------------
      1          6           0       -2.377065    0.308478   -0.466420
      2          1           0       -2.318596    0.406691   -1.546044
      3          1           0       -3.242815    0.719613    0.044263
      4          6           0       -1.435589   -0.330076    0.224714
      5          8           0       -0.384536   -0.982550   -0.368501
      6          6           0        0.923612   -0.749367    0.210592
      7          1           0        0.854727   -0.791267    1.307415
      8          1           0        1.513331   -1.603630   -0.134636
      9          6           0        1.540133    0.544522   -0.241415
     10          1           0        1.832487    0.591616   -1.290649
     11          6           0        1.741985    1.596792    0.554592
     12          1           0        1.472244    1.576686    1.608292
     13          1           0        2.190857    2.514668    0.186526
     14          1           0       -1.488905   -0.454488    1.310492
 ---------------------------------------------------------------------
                    Distance matrix (angstroms):
                    1          2          3          4          5
     1  C    0.000000
     2  H    1.085657   0.000000
     3  H    1.085980   1.865791   0.000000
     4  C    1.331088   2.111423   2.097731   0.000000
     5  O    2.376240   2.656537   3.352237   1.371983   0.000000
     6  C    3.531550   3.864473   4.420936   2.396212   1.449473
     7  H    3.847130   4.432528   4.546224   2.574973   2.093097
     8  H    4.347576   4.551607   5.296261   3.232213   2.010555
     9  C    3.930749   4.075640   4.794670   3.136418   2.460173
    10  H    4.298820   4.163042   5.249482   3.718355   2.871158
    11  C    4.434951   4.724122   5.087053   3.730766   3.468025
    12  H    4.553017   5.068451   5.041085   3.742395   3.728945
    13  H    5.114638   5.270724   5.724268   4.609245   4.378497
    14  H    2.127995   3.096742   2.461310   1.094182   2.077858
                    6          7          8          9         10
     6  C    0.000000
     7  H    1.099782   0.000000
     8  H    1.093946   1.781349   0.000000
     9  C    1.502850   2.157079   2.150971   0.000000
    10  H    2.208623   3.101341   2.501466   1.090220   0.000000
    11  C    2.508492   2.656463   3.281771   1.334783   2.103208
    12  H    2.768589   2.465574   3.626830   2.119290   3.082855
    13  H    3.501487   3.737759   4.185997   2.118502   2.451246
    14  H    2.667764   2.367707   3.524534   3.547042   4.346483
                   11         12         13         14
    11  C    0.000000
    12  H    1.087864   0.000000
    13  H    1.086027   1.848684   0.000000
    14  H    3.900998   3.603159   4.860024   0.000000
 Stoichiometry    C5H8O
 Framework group  C1[X(C5H8O)]
 Deg. of freedom    36
 Full point group                 C1      NOp   1
 RotChk:  IX=3 Diff= 8.02D-02
 Largest Abelian subgroup         C1      NOp   1
 Largest concise Abelian subgroup C1      NOp   1
                         Standard orientation:                         
 ---------------------------------------------------------------------
 Center     Atomic      Atomic             Coordinates (Angstroms)
 Number     Number       Type             X           Y           Z
 ---------------------------------------------------------------------
      1          6           0       -2.269925    0.854295   -0.236631
      2          1           0       -2.328497    0.858482   -1.320699
      3          1           0       -2.920199    1.523348    0.319124
      4          6           0       -1.451547    0.028345    0.411334
      5          8           0       -0.699565   -0.929031   -0.221352
      6          6           0        0.687198   -1.028958    0.188374
      7          1           0        0.753109   -0.975117    1.284858
      8          1           0        0.977089   -2.034791   -0.129401
      9          6           0        1.562632    0.009089   -0.455544
     10          1           0        1.717679   -0.098525   -1.529304
     11          6           0        2.140158    1.015841    0.203666
     12          1           0        2.014494    1.143349    1.276698
     13          1           0        2.766004    1.745793   -0.301252
     14          1           0       -1.394251   -0.001959    1.503595
 ---------------------------------------------------------------------
 Rotational constants (GHZ):           6.5645421           2.1598301           1.8218687
 Leave Link  202 at Wed Oct 16 16:26:42 2019, MaxMem=   280000000 cpu:               0.1 elap:               0.0
 (Enter /home/soft/g16/l301.exe)
 Standard basis: 6-31+G(d) (6D, 7F)
[...]
 ! A11   A(7,6,8)              108.1212         -DE/DX =    0.0                 !
 ! A12   A(7,6,9)              110.9383         -DE/DX =    0.0                 !
 ! A13   A(8,6,9)              110.725          -DE/DX =    0.0                 !
 ! A14   A(6,9,10)             115.456          -DE/DX =    0.0                 !
 ! A15   A(6,9,11)             124.2224         -DE/DX =    0.0                 !
 ! A16   A(10,9,11)            120.3167         -DE/DX =    0.0                 !
 ! A17   A(9,11,12)            121.7355         -DE/DX =    0.0                 !
 ! A18   A(9,11,13)            121.7178         -DE/DX =    0.0                 !
 ! A19   A(12,11,13)           116.5448         -DE/DX =    0.0                 !
 ! D1    D(2,1,4,5)             -1.3384         -DE/DX =    0.0                 !
 ! D2    D(2,1,4,14)           179.4953         -DE/DX =    0.0                 !
 ! D3    D(3,1,4,5)            178.4772         -DE/DX =    0.0                 !
 ! D4    D(3,1,4,14)            -0.689          -DE/DX =    0.0                 !
 ! D5    D(1,4,5,6)            175.1258         -DE/DX =    0.0                 !
 ! D6    D(14,4,5,6)            -5.6532         -DE/DX =    0.0                 !
 ! D7    D(4,5,6,7)             51.5906         -DE/DX =    0.0                 !
 ! D8    D(4,5,6,8)            167.2359         -DE/DX =    0.0                 !
 ! D9    D(4,5,6,9)            -72.7901         -DE/DX =    0.0                 !
 ! D10   D(5,6,9,10)           -51.5687         -DE/DX =    0.0                 !
 ! D11   D(5,6,9,11)           129.2405         -DE/DX =    0.0                 !
 ! D12   D(7,6,9,10)          -175.4738         -DE/DX =    0.0                 !
 ! D13   D(7,6,9,11)             5.3354         -DE/DX =    0.0                 !
 ! D14   D(8,6,9,10)            64.4711         -DE/DX =    0.0                 !
 ! D15   D(8,6,9,11)          -114.7198         -DE/DX =    0.0                 !
 ! D16   D(6,9,11,12)           -1.2475         -DE/DX =    0.0                 !
 ! D17   D(6,9,11,13)          178.2301         -DE/DX =    0.0                 !
 ! D18   D(10,9,11,12)         179.5989         -DE/DX =    0.0                 !
 ! D19   D(10,9,11,13)          -0.9235         -DE/DX =    0.0                 !
 --------------------------------------------------------------------------------
 GradGradGradGradGradGradGradGradGradGradGradGradGradGradGradGradGradGrad

 Leave Link  103 at Wed Oct 16 16:27:53 2019, MaxMem=   280000000 cpu:               6.8 elap:               0.3
 (Enter /home/soft/g16/l9999.exe)

 ----------------------------------------------------------------------

 Electric dipole moment (input orientation):
 (Debye = 10**-18 statcoulomb cm , SI units = C m)
                  (au)            (Debye)         (10**-30 SI)
   Tot        0.746607D+00      0.189769D+01      0.633000D+01
   x          0.534538D+00      0.135866D+01      0.453200D+01
   y          0.266183D+00      0.676569D+00      0.225679D+01
   z          0.448150D+00      0.113908D+01      0.379958D+01

 Dipole polarizability, Alpha (input orientation).
 (esu units = cm**3 , SI units = C**2 m**2 J**-1)
 Alpha(0;0):
               (au)            (10**-24 esu)      (10**-40 SI)
   iso        0.670918D+02      0.994198D+01      0.110619D+02
   aniso      0.350826D+02      0.519870D+01      0.578434D+01
   xx         0.828370D+02      0.122752D+02      0.136580D+02
   yx         0.616389D+01      0.913394D+00      0.101629D+01
   yy         0.588656D+02      0.872298D+01      0.970562D+01
   zx         0.122215D+02      0.181104D+01      0.201506D+01
   zy         0.607000D+01      0.899481D+00      0.100081D+01
   zz         0.595728D+02      0.882778D+01      0.982223D+01

 ----------------------------------------------------------------------

 Dipole orientation:
     6         -2.66171574          1.12810096         -4.17698684
     1         -1.55835275          0.84588577         -5.88351111
     1         -4.46477145          2.08956859         -4.32366370
     6         -1.85462569          0.31765510         -1.92699556
     8          0.37202263         -0.95483508         -1.63632346
     6          1.09751223         -1.53071106          0.91351249
     1         -0.46710700         -2.47315634          1.90482785
     1          2.63932509         -2.89445263          0.70120350
     6          1.97302518          0.76204170          2.34610438
     1          3.42551234          1.88707268          1.41429201
     6          1.10750989          1.43062774          4.62160682
     1         -0.35104177          0.34576742          5.58666716
     1          1.83398147          3.07667116          5.61239951
     1         -2.93784114          0.60304888         -0.19858590

 Electric dipole moment (dipole orientation):
 (Debye = 10**-18 statcoulomb cm , SI units = C m)
                  (au)            (Debye)         (10**-30 SI)
   Tot        0.746607D+00      0.189769D+01      0.633000D+01
   x          0.000000D+00      0.000000D+00      0.000000D+00
   y          0.000000D+00      0.000000D+00      0.000000D+00
   z          0.746607D+00      0.189769D+01      0.633000D+01

 Dipole polarizability, Alpha (dipole orientation).
 (esu units = cm**3 , SI units = C**2 m**2 J**-1)
 Alpha(0;0):
               (au)            (10**-24 esu)      (10**-40 SI)
   iso        0.670918D+02      0.994198D+01      0.110619D+02
   aniso      0.350826D+02      0.519870D+01      0.578434D+01
   xx         0.584575D+02      0.866250D+01      0.963833D+01
   yx        -0.362609D+01     -0.537332D+00     -0.597862D+00
   yy         0.551608D+02      0.817399D+01      0.909479D+01
   zx         0.874162D+01      0.129537D+01      0.144130D+01
   zy        -0.884132D+00     -0.131015D+00     -0.145774D+00
   zz         0.876571D+02      0.129894D+02      0.144527D+02

 ----------------------------------------------------------------------
 1\1\GINC-NODE14\Freq\RB3LYP\6-31+G(d)\C5H8O1\ROOT\16-Oct-2019\0\\#P Ge
 om=AllCheck Guess=TCheck SCRF=Check GenChk RB3LYP/6-31+G(d) Freq\\Titl
 e Card Required\\0,1\C,-2.6350876499,-0.013826356,-0.5311639107\H,-2.8
 609653412,-0.5663988392,-1.4380053962\H,-3.4203215428,0.5790682244,-0.
 0760290299\C,-1.423943608,-0.0522639065,0.0306404065\O,-0.4055476747,-
 0.8052595931,-0.4805628804\C,0.8700487204,-0.6659701007,0.1631443937\H
 ,0.7624286416,-0.8059840816,1.2486125461\H,1.459268552,-1.5005066454,-
 0.2311470438\C,1.5341793117,0.6473088536,-0.146073021\H,1.6086006757,0
 .8969594176,-1.2046048873\C,2.0285581444,1.4753689113,0.7784905538\H,1
 .9611613754,1.2520718424,1.8423021274\H,2.5262874689,2.4028359101,0.50
 74185523\H,-1.1827960734,0.504285363,0.9362005895\\Version=ES64L-G16Re
 vA.03\State=1-A\HF=-270.5188766\RMSD=2.795e-09\RMSF=3.524e-06\ZeroPoin
 t=0.1180009\Thermal=0.1251371\Dipole=0.5345379,0.2661827,0.4481502\Dip
 oleDeriv=-0.5804929,-0.046068,-0.0444384,-0.047976,-0.2490045,0.232358
 5,-0.1175527,0.2556032,-0.1303934,0.0670078,0.0299901,-0.0161531,0.013
 551,0.0994909,-0.1168685,-0.0463702,-0.1061313,0.0122957,-0.0080966,0.
 0594857,0.000674,0.0834987,0.0940665,-0.0821569,0.0293914,-0.0956036,0
 .05895,1.41373,-0.2660522,0.1654383,-0.8052104,0.1595738,0.0480032,-0.
 3445675,0.1850215,0.1067882,-1.8279598,0.0629677,-0.3000355,0.6555606,
 -0.4952722,0.0086287,0.22949,-0.1259165,-0.3508749,1.1912614,0.1334025
 ,0.2528158,0.1087533,0.4006493,0.0462519,0.338187,-0.0631377,0.4241507
 ,-0.0328065,-0.0229812,0.0342182,-0.0459333,0.0273038,-0.0129888,-0.07
 28151,0.0767564,-0.1723251,-0.0826024,0.00119,-0.0139295,0.0319217,-0.
 0857234,-0.0555655,0.0361512,-0.0715533,0.0488746,-0.2632929,0.1262542
 ,-0.0161861,0.1098073,-0.0199166,-0.0166228,-0.0424278,0.0454928,0.085
 1883,0.1390478,-0.0321474,0.0099329,-0.0675078,0.0267004,0.0260986,0.0
 123045,0.0305066,-0.0866014,-0.2692663,0.1055296,-0.027591,0.0804561,-
 0.0632208,-0.0683565,-0.0017622,-0.0807119,0.0766267,0.1288674,-0.0474
 41,0.0333468,-0.0423755,0.0580677,0.0677857,-0.0001968,0.0224907,-0.08
 71738,0.0990104,-0.1037669,0.0026749,-0.1261493,-0.0318662,0.0139211,0
 .0100682,0.0442121,0.0424326,0.0255925,-0.0003633,-0.0807673,0.0516037
 ,0.0791512,-0.0904887,-0.0299,-0.1170291,-0.0279383\Polar=82.8370141,6
 .1638895,58.8655721,12.2215277,6.0700006,59.5728418\Quadrupole=0.01158
 05,-0.7887751,0.7771945,-0.5543096,-0.1165398,0.2784401\PG=C01 [X(C5H8
 O1)]\NImag=0\\0.77496956,-0.13446795,0.30487339,0.15827802,0.24777205,
 0.52024917,-0.06716219,-0.02238909,-0.05095053,0.06200076,-0.02519215,
 -0.11531385,-0.13527924,0.02747935,0.11269987,-0.05475433,-0.13384289,
 -0.24990628,0.06059249,0.14673955,0.26136976,-0.20507919,0.12176899,0.
 08259873,0.00778547,-0.00478794,-0.00324807,0.21589375,0.12516870,-0.1
 2455465,-0.08269509,0.00983190,-0.00516229,-0.00337999,-0.13282995,0.1
 2655690,0.08788309,-0.08449103,-0.09974106,0.01771668,-0.01068379,-0.0
 0582616,-0.09142404,0.08652734,0.09777178,-0.45031749,0.01192826,-0.18
 605053,-0.00123954,0.00194401,-0.00142600,-0.01532001,-0.00265993,-0.0
 1040211,0.78102177,0.01053290,-0.07271876,-0.02896987,-0.01594736,0.00
 542236,-0.00948755,0.01590472,-0.00122118,0.00994446,-0.08007356,0.311
 71409,-0.18751755,-0.02803048,-0.18458243,-0.02677646,-0.00051927,-0.0
 0780955,0.01622658,0.00055746,0.00634020,0.21675549,0.21727388,0.54003
 658,-0.05396662,0.03633814,0.01679281,0.00211882,-0.00190467,0.0020424
 0,-0.00332952,0.00140382,-0.00405336,-0.19578402,0.10069743,0.06025898
 ,0.49072949,0.02067312,0.00305256,0.00169061,-0.00153514,-0.00365229,0
 .00299716,0.00005951,0.00619775,-0.00351798,0.07499828,-0.12673325,-0.
 08539645,-0.11327498,0.19234797,-0.00427348,0.00882149,0.01985653,0.00
 202425,0.00299216,-0.00097421,-0.00510448,-0.00285362,0.00153248,0.024
 90899,-0.07193675,-0.11905117,0.03151058,0.11660057,0.21885796,0.00640
 783,-0.00088088,0.00253224,-0.00023192,-0.00026977,0.00015895,0.000643
 66,0.00043911,-0.00089299,-0.04964289,0.00977366,-0.00684665,-0.157185
 66,-0.00019198,-0.03940978,0.44793700,0.00230700,-0.00180795,-0.002733
 11,-0.00023387,-0.00059990,0.00056879,0.00163026,0.00162028,-0.0007179
 6,0.02239937,-0.00425084,0.01499861,-0.01206187,-0.06606543,-0.0236368
 5,-0.05277477,0.53886956,0.00512026,-0.00390356,-0.00163782,0.00018978
 ,0.00098201,-0.00046752,0.00052122,-0.00157442,0.00154753,0.00914858,0
 .00961778,0.00639991,-0.06428248,-0.01784218,-0.10765343,-0.06555053,0
 .02068289,0.58636072,-0.00127094,0.00034379,0.00010338,0.00026138,0.00
 046775,-0.00012555,-0.00023319,-0.00038812,0.00034337,0.00536509,-0.00
 337364,-0.00477358,-0.01297465,0.00351413,-0.03771347,-0.05575185,-0.0
 0189766,0.04009585,0.06395300,-0.00026425,-0.00022174,-0.00023919,-0.0
 0005769,-0.00012466,0.00001312,0.00002170,0.00008395,-0.00004163,0.000
 92522,0.00035967,0.00160835,-0.00054983,0.00254871,-0.00485250,-0.0034
 5526,-0.05711131,0.02894592,0.00736912,0.05779825,-0.00110893,0.000697
 70,0.00065465,0.00023930,-0.00005748,0.00008110,-0.00011215,0.00004430
 ,-0.00004780,0.00376413,-0.00316076,-0.00047271,-0.01395208,0.00030650
 ,-0.01572036,0.03568393,0.03177865,-0.28931516,-0.02907935,-0.03300418
 ,0.31914561,-0.00135503,0.00116964,0.00104326,0.00004130,0.00000900,-0
 .00010637,-0.00052077,-0.00014014,-0.00012240,-0.00298903,-0.00094542,
 -0.00540883,-0.03543890,0.02458208,0.00791536,-0.11070738,0.09890009,0
 .05161582,-0.00014965,0.00288874,0.00274390,0.14244539,-0.00013924,0.0
 0005346,0.00001195,0.00002833,0.00000397,-0.00000981,-0.00004066,-0.00
 003362,0.00001725,-0.00151367,0.00129031,0.00022968,-0.00044277,0.0052
 0190,0.00141173,0.11087902,-0.20473163,-0.07440760,-0.00315827,0.00494
 532,0.00151505,-0.11377166,0.21914628,-0.00058086,0.00057021,0.0007559
 8,0.00011367,0.00003706,-0.00005922,-0.00025082,-0.00007088,-0.0000636
 7,-0.00148503,-0.00044916,-0.00130907,-0.01769889,0.01213262,0.0055606
 5,0.06011214,-0.07623350,-0.09231721,0.01658516,-0.02401611,-0.0102676
 2,-0.05239467,0.08162184,0.09149875,-0.00086725,0.00031491,-0.00001372
 ,-0.00003143,-0.00011915,0.00013625,0.00006942,0.00042192,-0.00024968,
 0.00170759,-0.00482921,-0.00009555,-0.03180491,-0.03070153,-0.00364870
 ,-0.08899517,-0.04040202,0.01908654,0.00088743,-0.00570807,0.00231900,
 0.01002244,0.01071204,-0.00467698,0.27416445,0.00075622,-0.00033924,0.
 00008589,0.00004289,0.00023338,-0.00013141,-0.00003981,-0.00029356,0.0
 0028544,-0.00124062,0.00240442,0.00070048,-0.01235114,-0.00142008,-0.0
 0650937,-0.04518310,-0.18643115,0.03547132,-0.00100204,-0.00534447,0.0
 0067001,-0.01223364,-0.02437609,0.00626901,0.22020457,0.55605884,-0.00
 124509,0.00054840,-0.00023335,-0.00006618,-0.00015899,0.00009740,-0.00
 002849,0.00022089,-0.00016614,0.00242712,-0.00273507,-0.00048813,-0.01
 889851,-0.01611306,0.00392411,0.02066614,0.03403570,-0.10368094,0.0143
 8894,0.03068677,-0.00789503,-0.00613829,-0.01354995,0.00509068,0.09452
 332,0.10489567,0.76081949,0.00003877,0.00007599,-0.00004763,-0.0000287
 4,-0.00004893,0.00001119,0.00000160,-0.00001423,-0.00000165,-0.0003997
 0,0.00022940,0.00024389,0.00203873,0.00171383,-0.00033329,0.00085077,-
 0.00465001,0.01297343,-0.00009800,-0.00290060,0.00052642,0.00010082,-0
 .00031789,-0.00019682,-0.04502070,-0.01101788,0.01967928,0.03343778,-0
 .00003737,-0.00001669,0.00003611,-0.00002414,0.00000143,-0.00001345,-0
 .00001892,-0.00001727,0.00000303,-0.00013592,0.00010397,-0.00004320,0.
 00075058,0.00176081,-0.00188631,-0.00186810,-0.00438392,0.02928272,-0.
 00295345,-0.00430846,0.00062776,0.00071467,0.00081717,-0.00057996,-0.0
 1165606,-0.06921258,0.06418902,0.01757330,0.06776899,0.00013160,-0.000
 11815,0.00010798,0.00001703,0.00003268,-0.00000726,0.00001456,0.000002
 35,0.00000020,-0.00020266,0.00027507,0.00002129,0.00115799,-0.00059302
 ,0.00124783,-0.00144586,-0.00010704,-0.00540915,-0.00011258,0.00096642
 ,0.00081078,0.00018430,0.00057124,0.00027555,0.01873863,0.06222083,-0.
 31464379,-0.01884040,-0.06679045,0.33619699,-0.00030437,0.00003460,-0.
 00012443,-0.00001672,0.00001151,-0.00002032,-0.00002142,-0.00001601,0.
 00001554,0.00078949,-0.00082370,-0.00002827,-0.00285287,-0.00101158,-0
 .00023597,0.00021075,-0.01183768,-0.01008377,-0.00008263,0.00131911,-0
 .00093485,-0.00061192,-0.00101372,0.00029966,-0.12428109,-0.13030148,-
 0.11754845,0.00626174,0.00008448,0.00219362,0.26363058,-0.00103031,0.0
 0073088,0.00007086,0.00005768,-0.00013474,0.00013207,-0.00007551,0.000
 10566,-0.00013808,0.00241835,-0.00208812,-0.00152366,-0.00356814,-0.00
 121158,0.00110618,-0.01196556,-0.01931056,-0.02029201,0.00054561,0.001
 27253,-0.00117656,-0.00134691,-0.00221505,0.00041226,-0.12958071,-0.26
 594532,-0.18926112,0.00182357,0.00773844,0.00604706,0.27702692,0.60582
 422,0.00030112,0.00000996,-0.00003346,0.00002465,-0.00005896,0.0000470
 4,0.00005968,0.00000940,-0.00001269,-0.00025082,0.00064328,0.00020719,
 0.00487032,0.00149531,0.00164298,-0.00307270,-0.00050328,0.00768715,0.
 00025832,0.00139059,0.00123033,0.00067487,0.00295612,0.00007553,-0.115
 94429,-0.18756598,-0.33144935,-0.01241373,-0.02213516,-0.01878303,0.07
 422732,0.07930341,0.73706084,-0.00006207,0.00014200,0.00013291,0.00003
 592,-0.00001013,0.00003767,-0.00001702,0.00001335,-0.00001876,0.000412
 53,-0.00041659,-0.00053527,-0.00087233,-0.00110197,-0.00010969,-0.0056
 8904,0.00512515,-0.00045939,0.00008623,-0.00022050,0.00088560,0.000605
 73,0.00095031,0.00029625,0.00591287,0.00154633,-0.01273059,0.00840446,
 -0.00601665,-0.00211986,-0.04274826,-0.01458888,0.01919094,0.03204719,
 0.00012374,-0.00010423,-0.00001359,-0.00000687,0.00001001,-0.00001950,
 0.00001910,-0.00000670,0.00001102,-0.00033591,0.00036686,0.00033869,0.
 00092992,0.00026996,0.00061381,0.00352529,-0.00109420,-0.00239540,-0.0
 0012467,0.00001056,0.00031623,-0.00042922,-0.00048722,-0.00011976,0.00
 063119,0.00842481,-0.01971721,-0.00606333,0.00063534,-0.00210486,-0.01
 420794,-0.06661973,0.06081996,0.01688426,0.06029697,-0.00005192,0.0000
 4098,0.00012039,0.00003144,0.00001911,0.00001259,-0.00000857,0.0000026
 2,-0.00000728,0.00011090,-0.00027059,-0.00041593,-0.00022877,0.0002235
 7,0.00056647,0.00171494,0.00175186,0.00070046,-0.00061741,-0.00113165,
 0.00069223,-0.00011318,-0.00006432,0.00022152,0.00169711,0.00585378,-0
 .02042957,-0.00204202,-0.00262390,-0.00094062,0.01760769,0.05750428,-0
 .31978050,-0.01752354,-0.06137682,0.34288426,-0.00000547,-0.00003458,-
 0.00005386,-0.00000069,0.00003061,-0.00003003,-0.00002798,-0.00006375,
 0.00004106,-0.00017646,0.00043938,0.00016380,0.00136676,0.00224845,0.0
 0024868,0.00999444,-0.00776421,-0.00225709,-0.00010727,0.00037007,-0.0
 0045729,-0.00151269,-0.00206868,0.00027921,-0.00119252,-0.00911297,0.0
 0475985,-0.00566889,0.00356593,0.00035122,-0.09979000,-0.11956273,0.03
 207145,0.00196295,-0.00089638,-0.00053239,0.09519490,-0.00030846,0.000
 13764,-0.00001403,0.00000155,-0.00003250,0.00002367,-0.00002132,0.0000
 4624,-0.00003229,0.00091447,-0.00073996,-0.00039783,-0.00236421,-0.001
 70747,-0.00030388,-0.00458911,0.00506659,-0.00231117,0.00011388,0.0002
 1748,0.00024955,0.00060722,0.00044788,-0.00004896,-0.00941661,-0.01401
 081,0.00666455,0.00366659,-0.00075506,-0.00045491,-0.11924846,-0.25815
 148,0.06371275,-0.00234515,-0.00172551,0.00001111,0.13296461,0.2711536
 3,-0.00018312,0.00009922,0.00004077,0.00001057,-0.00001109,0.00001558,
 -0.00001084,0.00001665,-0.00001787,0.00041620,-0.00039144,-0.00035091,
 -0.00125048,-0.00042517,0.00023809,-0.00045312,-0.00026206,-0.00287709
 ,-0.00019930,-0.00029972,0.00042397,-0.00002533,-0.00044343,0.00030485
 ,-0.01178467,-0.02216918,0.00906555,0.00037877,-0.00001259,0.00120579,
 0.03483180,0.06727462,-0.07812860,0.01287308,0.02374224,-0.00369776,-0
 .03457439,-0.06716694,0.07373342,-0.00102553,-0.01434381,-0.02424065,-
 0.00353240,0.00239053,-0.00326829,0.00015520,-0.00116669,0.00116525,-0
 .07342731,-0.03116802,-0.06166658,-0.00204432,0.02002776,0.02422099,0.
 00215942,0.00126020,0.00388176,0.00011504,0.00026223,-0.00051763,0.000
 06967,-0.00010314,-0.00040202,-0.00057114,-0.00006734,0.00021094,0.000
 08135,0.00002165,-0.00006759,-0.00018326,-0.00015337,0.00000286,-0.000
 07915,-0.00004918,-0.00004427,-0.00003708,0.00002499,-0.00002915,0.078
 31952,0.00187804,0.00622920,0.00027666,0.00275246,0.00664921,-0.003589
 75,-0.00159018,-0.00332149,0.00283422,-0.02956835,-0.11390957,-0.11979
 625,0.00639772,-0.01058956,-0.01956666,-0.00343857,0.00023047,-0.00225
 630,0.00054356,-0.00012582,0.00119324,-0.00000445,-0.00006268,0.000475
 33,0.00012872,0.00025186,0.00029441,-0.00006980,-0.00013218,0.00005278
 ,-0.00001605,0.00000485,-0.00007741,0.00003847,0.00002308,0.00005998,-
 0.00011576,0.00005334,0.00004889,0.02306420,0.11469929,-0.00199881,-0.
 00817389,-0.00565107,-0.00316669,-0.00403376,0.00342674,0.00076670,0.0
 0319300,-0.00130952,-0.05771426,-0.12035326,-0.23852527,0.00373150,-0.
 01155849,-0.01002793,-0.00319672,0.00037732,0.00066256,0.00084619,-0.0
 0002621,0.00068002,0.00013155,0.00014025,0.00023329,-0.00008726,-0.000
 07650,-0.00001092,0.00006255,-0.00005361,-0.00008256,-0.00019956,0.000
 54069,0.00023658,0.00008066,-0.00009481,0.00007372,-0.00001023,0.00006
 838,0.00004421,0.06075439,0.14005087,0.25025013\\-0.00000474,0.0000030
 6,0.00000045,0.00000103,-0.00000023,-0.00000095,0.00000206,-0.00000016
 ,-0.00000055,0.00001111,-0.00000510,-0.00000119,0.00000303,0.00000513,
 0.00000787,-0.00001070,-0.00000336,-0.00000422,0.00000161,-0.00000093,
 0.00000212,-0.00000320,-0.00000078,0.00000055,-0.00000077,0.00000074,-
 0.00000554,0.00000188,0.00000006,0.00000056,-0.00000393,0.00000124,0.0
 0000201,0.00000218,-0.00000080,0.00000024,0.00000209,0.00000001,-0.000
 00013,-0.00000166,0.00000113,-0.00000122\\\@


 A FOOL CAN ASK MORE QUESTIONS THAN
 A WISE MAN CAN ANSWER.
 Job cpu time:       0 days  0 hours  8 minutes 17.1 seconds.
 Elapsed time:       0 days  0 hours  0 minutes 21.5 seconds.
 File lengths (MBytes):  RWF=    344 Int=      0 D2E=      0 Chk=      8 Scr=      8
 Normal termination of Gaussian 16 at Wed Oct 16 16:27:53 2019.
