 Entering Gaussian System, Link 0=g16
 Input=ts2.gjf
 Output=ts2.log
 Initial command:
 /home/soft/g16/l1.exe "/tmp/gaussian/Gau-18535.inp" -scrdir="/tmp/gaussian/"
 Entering Link 1 = /home/soft/g16/l1.exe PID=     18536.
  
 Copyright (c) 1988,1990,1992,1993,1995,1998,2003,2009,2016,
            Gaussian, Inc.  All Rights Reserved.
  
 This is part of the Gaussian(R) 16 program.  It is based on
 the Gaussian(R) 09 system (copyright 2009, Gaussian, Inc.),
 the Gaussian(R) 03 system (copyright 2003, Gaussian, Inc.),
 the Gaussian(R) 98 system (copyright 1998, Gaussian, Inc.),
 the Gaussian(R) 94 system (copyright 1995, Gaussian, Inc.),
 the Gaussian 92(TM) system (copyright 1992, Gaussian, Inc.),
 the Gaussian 90(TM) system (copyright 1990, Gaussian, Inc.),
 the Gaussian 88(TM) system (copyright 1988, Gaussian, Inc.),
 the Gaussian 86(TM) system (copyright 1986, Carnegie Mellon
 University), and the Gaussian 82(TM) system (copyright 1983,
 Carnegie Mellon University). Gaussian is a federally registered
 trademark of Gaussian, Inc.
  
 This software contains proprietary and confidential information,
 including trade secrets, belonging to Gaussian, Inc.
  
 This software is provided under written license and may be
 used, copied, transmitted, or stored only in accord with that
 written license.
  
 The following legend is applicable only to US Government
 contracts under FAR:
  
                    RESTRICTED RIGHTS LEGEND
  
 Use, reproduction and disclosure by the US Government is
 subject to restrictions as set forth in subparagraphs (a)
 and (c) of the Commercial Computer Software - Restricted
 Rights clause in FAR 52.227-19.
  
 Gaussian, Inc.
 340 Quinnipiac St., Bldg. 40, Wallingford CT 06492
  
  
 ---------------------------------------------------------------
 Warning -- This program may not be used in any manner that
 competes with the business of Gaussian, Inc. or will provide
 assistance to any competitor of Gaussian, Inc.  The licensee
 of this program is prohibited from giving any competitor of
 Gaussian, Inc. access to this program.  By using this program,
 the user acknowledges that Gaussian, Inc. is engaged in the
 business of creating and licensing software in the field of
 computational chemistry and represents and warrants to the
 licensee that it is not a competitor of Gaussian, Inc. and that
 it will not use this program in any manner prohibited above.
 ---------------------------------------------------------------
  

 Cite this work as:
 Gaussian 16, Revision A.03,
 M. J. Frisch, G. W. Trucks, H. B. Schlegel, G. E. Scuseria, 
 M. A. Robb, J. R. Cheeseman, G. Scalmani, V. Barone, 
 G. A. Petersson, H. Nakatsuji, X. Li, M. Caricato, A. V. Marenich, 
 J. Bloino, B. G. Janesko, R. Gomperts, B. Mennucci, H. P. Hratchian, 
 J. V. Ortiz, A. F. Izmaylov, J. L. Sonnenberg, D. Williams-Young, 
 F. Ding, F. Lipparini, F. Egidi, J. Goings, B. Peng, A. Petrone, 
 T. Henderson, D. Ranasinghe, V. G. Zakrzewski, J. Gao, N. Rega, 
 G. Zheng, W. Liang, M. Hada, M. Ehara, K. Toyota, R. Fukuda, 
 J. Hasegawa, M. Ishida, T. Nakajima, Y. Honda, O. Kitao, H. Nakai, 
 T. Vreven, K. Throssell, J. A. Montgomery, Jr., J. E. Peralta, 
 F. Ogliaro, M. J. Bearpark, J. J. Heyd, E. N. Brothers, K. N. Kudin, 
 V. N. Staroverov, T. A. Keith, R. Kobayashi, J. Normand, 
 K. Raghavachari, A. P. Rendell, J. C. Burant, S. S. Iyengar, 
 J. Tomasi, M. Cossi, J. M. Millam, M. Klene, C. Adamo, R. Cammi, 
 J. W. Ochterski, R. L. Martin, K. Morokuma, O. Farkas, 
 J. B. Foresman, and D. J. Fox, Gaussian, Inc., Wallingford CT, 2016.
 
 ******************************************
 Gaussian 16:  ES64L-G16RevA.03 25-Dec-2016
                15-Oct-2019 
 ******************************************
 %chk=ts.chk
 %nproc=24
 Will use up to   24 processors via shared memory.
 ---------------------------------------------
 #p b3lyp/6-31+g* opt=(ts,noeigen,calcfc) freq
 ---------------------------------------------
 1/5=1,10=4,11=1,18=20,26=3,38=1/1,3;
 2/9=110,12=2,17=6,18=5,40=1/2;
 3/5=1,6=6,7=11,11=2,25=1,30=1,71=2,74=-5,140=1/1,2,3;
 4//1;
 5/5=2,38=5/2;
 8/6=4,10=90,11=11/1;
 11/6=1,8=1,9=11,15=111,16=1/1,2,10;
 10/6=1,13=1/2;
 6/7=2,8=2,9=2,10=2,28=1/1;
 7/10=1,18=20,25=1/1,2,3,16;
 1/5=1,10=4,11=1,18=20,26=3/3(2);
 2/9=110/2;
 99//99;
 2/9=110/2;
 3/5=1,6=6,7=11,11=2,25=1,30=1,71=1,74=-5/1,2,3;
 4/5=5,16=3,69=1/1;
 5/5=2,38=5/2;
 7//1,2,3,16;
 1/5=1,11=1,18=20,26=3/3(-5);
 2/9=110/2;
 6/7=2,8=2,9=2,10=2,19=2,28=1/1;
 99/9=1/99;
 Leave Link    1 at Tue Oct 15 01:54:00 2019, MaxMem=           0 cpu:               2.3 elap:               0.1
 (Enter /home/soft/g16/l101.exe)
 -------------------
 Title Card Required
 -------------------
 Symbolic Z-matrix:
 Charge =  0 Multiplicity = 1
 C                    -3.70112  -1.20117   0.66412 
 H                    -3.64991  -0.59755   1.54612 
 H                    -4.60609  -1.77166   0.6857 
 C                    -2.99172  -0.12141  -0.14792 
 H                    -3.57858   0.52676  -0.76467 
 O                    -1.75142  -0.54242  -0.76102 
 C                    -0.82204  -1.87494   0.22595 
 H                     0.12756  -2.3138    0.00108 
 H                    -0.67566  -1.02538   0.85977 
 C                    -1.65527  -2.95537   0.75042 
 H                    -1.08098  -3.83109   0.96999 
 C                    -2.35677  -2.39948   1.63051 
 H                    -2.46831  -3.08251   2.44656 
 H                    -1.49611  -1.78904   1.80809 
 
 Add virtual bond connecting atoms C7         and O6         Dist= 3.59D+00.
 Add virtual bond connecting atoms H9         and O6         Dist= 3.79D+00.
 Add virtual bond connecting atoms C12        and C1         Dist= 3.86D+00.
 ITRead=  0  0  0  0  0  0  0  0  0  0  0  0  0  0
 MicOpt= -1 -1 -1 -1 -1 -1 -1 -1 -1 -1 -1 -1 -1 -1
 NAtoms=     14 NQM=       14 NQMF=       0 NMMI=      0 NMMIF=      0
                NMic=       0 NMicF=      0.
                    Isotopes and Nuclear Properties:
 (Nuclear quadrupole moments (NQMom) in fm**2, nuclear magnetic moments (NMagM)
  in nuclear magnetons)

  Atom         1           2           3           4           5           6           7           8           9          10
 IAtWgt=          12           1           1          12           1          16          12           1           1          12
 AtmWgt=  12.0000000   1.0078250   1.0078250  12.0000000   1.0078250  15.9949146  12.0000000   1.0078250   1.0078250  12.0000000
 NucSpn=           0           1           1           0           1           0           0           1           1           0
 AtZEff=  -0.0000000  -0.0000000  -0.0000000  -0.0000000  -0.0000000  -0.0000000  -0.0000000  -0.0000000  -0.0000000  -0.0000000
 NQMom=    0.0000000   0.0000000   0.0000000   0.0000000   0.0000000   0.0000000   0.0000000   0.0000000   0.0000000   0.0000000
 NMagM=    0.0000000   2.7928460   2.7928460   0.0000000   2.7928460   0.0000000   0.0000000   2.7928460   2.7928460   0.0000000
 AtZNuc=   6.0000000   1.0000000   1.0000000   6.0000000   1.0000000   8.0000000   6.0000000   1.0000000   1.0000000   6.0000000

  Atom        11          12          13          14
 IAtWgt=           1          12           1           1
 AtmWgt=   1.0078250  12.0000000   1.0078250   1.0078250
 NucSpn=           1           0           1           1
 AtZEff=  -0.0000000  -0.0000000  -0.0000000  -0.0000000
 NQMom=    0.0000000   0.0000000   0.0000000   0.0000000
 NMagM=    2.7928460   0.0000000   2.7928460   2.7928460
 AtZNuc=   1.0000000   6.0000000   1.0000000   1.0000000
 Leave Link  101 at Tue Oct 15 01:54:00 2019, MaxMem=   280000000 cpu:               4.7 elap:               0.2
 (Enter /home/soft/g16/l103.exe)

 GradGradGradGradGradGradGradGradGradGradGradGradGradGradGradGradGradGrad
 Berny optimization.
 Initialization pass.
                           ----------------------------
                           !    Initial Parameters    !
                           ! (Angstroms and Degrees)  !
 --------------------------                            --------------------------
 ! Name  Definition              Value          Derivative Info.                !
 --------------------------------------------------------------------------------
 ! R1    R(1,2)                  1.07           calculate D2E/DX2 analytically  !
 ! R2    R(1,3)                  1.07           calculate D2E/DX2 analytically  !
 ! R3    R(1,4)                  1.526          calculate D2E/DX2 analytically  !
 ! R4    R(1,12)                 2.0438         calculate D2E/DX2 analytically  !
 ! R5    R(4,5)                  1.07           calculate D2E/DX2 analytically  !
 ! R6    R(4,6)                  1.4462         calculate D2E/DX2 analytically  !
 ! R7    R(6,7)                  1.9009         calculate D2E/DX2 analytically  !
 ! R8    R(6,9)                  2.0044         calculate D2E/DX2 analytically  !
 ! R9    R(7,8)                  1.07           calculate D2E/DX2 analytically  !
 ! R10   R(7,9)                  1.07           calculate D2E/DX2 analytically  !
 ! R11   R(7,10)                 1.4617         calculate D2E/DX2 analytically  !
 ! R12   R(10,11)                1.07           calculate D2E/DX2 analytically  !
 ! R13   R(10,12)                1.2553         calculate D2E/DX2 analytically  !
 ! R14   R(12,13)                1.07           calculate D2E/DX2 analytically  !
 ! R15   R(12,14)                1.07           calculate D2E/DX2 analytically  !
 ! A1    A(2,1,3)              108.943          calculate D2E/DX2 analytically  !
 ! A2    A(2,1,4)               90.987          calculate D2E/DX2 analytically  !
 ! A3    A(2,1,12)              84.8089         calculate D2E/DX2 analytically  !
 ! A4    A(3,1,4)              141.3693         calculate D2E/DX2 analytically  !
 ! A5    A(3,1,12)             103.5436         calculate D2E/DX2 analytically  !
 ! A6    A(4,1,12)             111.1435         calculate D2E/DX2 analytically  !
 ! A7    A(1,4,5)              118.7109         calculate D2E/DX2 analytically  !
 ! A8    A(1,4,6)              114.7279         calculate D2E/DX2 analytically  !
 ! A9    A(5,4,6)              113.7267         calculate D2E/DX2 analytically  !
 ! A10   A(4,6,7)              113.7824         calculate D2E/DX2 analytically  !
 ! A11   A(4,6,9)              100.8148         calculate D2E/DX2 analytically  !
 ! A12   A(6,7,8)              127.7549         calculate D2E/DX2 analytically  !
 ! A13   A(6,7,10)             115.1966         calculate D2E/DX2 analytically  !
 ! A14   A(8,7,9)              109.1917         calculate D2E/DX2 analytically  !
 ! A15   A(8,7,10)             106.1492         calculate D2E/DX2 analytically  !
 ! A16   A(9,7,10)             116.8922         calculate D2E/DX2 analytically  !
 ! A17   A(7,10,11)            111.8766         calculate D2E/DX2 analytically  !
 ! A18   A(7,10,12)            104.0511         calculate D2E/DX2 analytically  !
 ! A19   A(11,10,12)           121.2325         calculate D2E/DX2 analytically  !
 ! A20   A(1,12,10)            107.2008         calculate D2E/DX2 analytically  !
 ! A21   A(1,12,13)            131.7834         calculate D2E/DX2 analytically  !
 ! A22   A(1,12,14)            105.8463         calculate D2E/DX2 analytically  !
 ! A23   A(10,12,13)           108.0764         calculate D2E/DX2 analytically  !
 ! A24   A(10,12,14)            85.3827         calculate D2E/DX2 analytically  !
 ! A25   A(13,12,14)           108.7509         calculate D2E/DX2 analytically  !
 ! D1    D(2,1,4,5)            -99.9392         calculate D2E/DX2 analytically  !
 ! D2    D(2,1,4,6)            120.8301         calculate D2E/DX2 analytically  !
 ! D3    D(3,1,4,5)             22.8549         calculate D2E/DX2 analytically  !
 ! D4    D(3,1,4,6)           -116.3758         calculate D2E/DX2 analytically  !
 ! D5    D(12,1,4,5)           175.2451         calculate D2E/DX2 analytically  !
 ! D6    D(12,1,4,6)            36.0144         calculate D2E/DX2 analytically  !
 ! D7    D(2,1,12,10)         -150.4702         calculate D2E/DX2 analytically  !
 ! D8    D(2,1,12,13)           74.1139         calculate D2E/DX2 analytically  !
 ! D9    D(2,1,12,14)          -60.4547         calculate D2E/DX2 analytically  !
 ! D10   D(3,1,12,10)          101.2653         calculate D2E/DX2 analytically  !
 ! D11   D(3,1,12,13)          -34.1506         calculate D2E/DX2 analytically  !
 ! D12   D(3,1,12,14)         -168.7192         calculate D2E/DX2 analytically  !
 ! D13   D(4,1,12,10)          -61.4208         calculate D2E/DX2 analytically  !
 ! D14   D(4,1,12,13)          163.1632         calculate D2E/DX2 analytically  !
 ! D15   D(4,1,12,14)           28.5947         calculate D2E/DX2 analytically  !
 ! D16   D(1,4,6,7)            -30.8311         calculate D2E/DX2 analytically  !
 ! D17   D(1,4,6,9)            -61.2009         calculate D2E/DX2 analytically  !
 ! D18   D(5,4,6,7)           -172.1042         calculate D2E/DX2 analytically  !
 ! D19   D(5,4,6,9)            157.526          calculate D2E/DX2 analytically  !
 ! D20   D(4,6,7,8)           -177.3224         calculate D2E/DX2 analytically  !
 ! D21   D(4,6,7,10)            43.8144         calculate D2E/DX2 analytically  !
 ! D22   D(6,7,10,11)          159.0214         calculate D2E/DX2 analytically  !
 ! D23   D(6,7,10,12)          -68.4098         calculate D2E/DX2 analytically  !
 ! D24   D(8,7,10,11)           11.8069         calculate D2E/DX2 analytically  !
 ! D25   D(8,7,10,12)          144.3756         calculate D2E/DX2 analytically  !
 ! D26   D(9,7,10,11)         -110.2383         calculate D2E/DX2 analytically  !
 ! D27   D(9,7,10,12)           22.3305         calculate D2E/DX2 analytically  !
 ! D28   D(7,10,12,1)           71.1198         calculate D2E/DX2 analytically  !
 ! D29   D(7,10,12,13)        -142.2886         calculate D2E/DX2 analytically  !
 ! D30   D(7,10,12,14)         -34.0554         calculate D2E/DX2 analytically  !
 ! D31   D(11,10,12,1)        -161.9407         calculate D2E/DX2 analytically  !
 ! D32   D(11,10,12,13)        -15.349          calculate D2E/DX2 analytically  !
 ! D33   D(11,10,12,14)         92.8841         calculate D2E/DX2 analytically  !
 --------------------------------------------------------------------------------
 Trust Radius=3.00D-01 FncErr=1.00D-07 GrdErr=1.00D-06 EigMax=2.50D+02 EigMin=1.00D-04
 Number of steps in this run=     83 maximum allowed number of steps=    100.
 Search for a saddle point of order  1.
 GradGradGradGradGradGradGradGradGradGradGradGradGradGradGradGradGradGrad

 Leave Link  103 at Tue Oct 15 01:54:00 2019, MaxMem=   280000000 cpu:               0.4 elap:               0.0
 (Enter /home/soft/g16/l202.exe)
                          Input orientation:                          
 ---------------------------------------------------------------------
 Center     Atomic      Atomic             Coordinates (Angstroms)
 Number     Number       Type             X           Y           Z
 ---------------------------------------------------------------------
      1          6           0       -3.701119   -1.201174    0.664121
      2          1           0       -3.649915   -0.597551    1.546117
      3          1           0       -4.606094   -1.771661    0.685699
      4          6           0       -2.991718   -0.121410   -0.147923
      5          1           0       -3.578579    0.526758   -0.764667
      6          8           0       -1.751424   -0.542418   -0.761018
      7          6           0       -0.822040   -1.874943    0.225955
      8          1           0        0.127558   -2.313797    0.001076
      9          1           0       -0.675662   -1.025384    0.859771
     10          6           0       -1.655274   -2.955375    0.750418
     11          1           0       -1.080978   -3.831089    0.969986
     12          6           0       -2.356766   -2.399482    1.630510
     13          1           0       -2.468305   -3.082509    2.446557
     14          1           0       -1.496109   -1.789043    1.808087
 ---------------------------------------------------------------------
                    Distance matrix (angstroms):
                    1          2          3          4          5
     1  C    0.000000
     2  H    1.070000   0.000000
     3  H    1.070000   1.741589   0.000000
     4  C    1.525961   1.878751   2.454479   0.000000
     5  H    2.245484   2.570774   2.905525   1.070000   0.000000
     6  O    2.503256   2.988340   3.428290   1.446189   2.116990
     7  C    2.989156   3.372156   3.813279   2.814634   3.787877
     8  H    4.041823   4.427410   4.813532   3.815579   4.731868
     9  H    3.036869   3.082254   4.004438   2.682672   3.670813
    10  C    2.696322   3.189210   3.180049   3.259518   4.256740
    11  H    3.724936   4.169788   4.092494   4.319996   5.313931
    12  C    2.043805   2.219530   2.519188   2.958987   3.973988
    13  H    2.869901   2.895170   3.064162   3.971574   4.956963
    14  H    2.552709   2.475311   3.306368   2.973857   4.039639
                    6          7          8          9         10
     6  O    0.000000
     7  C    1.900919   0.000000
     8  H    2.692424   1.070000   0.000000
     9  H    2.004364   1.070000   1.744284   0.000000
    10  C    2.848867   1.461736   2.037554   2.167132   0.000000
    11  H    3.776404   2.108824   2.168300   2.836971   1.070000
    12  C    3.087804   2.145530   2.972249   2.303973   1.255257
    13  H    4.153856   3.016535   3.648261   3.156457   1.885224
    14  H    2.866977   1.721886   2.485347   1.468200   1.582506
                   11         12         13         14
    11  H    0.000000
    12  C    2.028158   0.000000
    13  H    2.159933   1.070000   0.000000
    14  H    2.246040   1.070000   1.739501   0.000000
 Stoichiometry    C5H8O
 Framework group  C1[X(C5H8O)]
 Deg. of freedom    36
 Full point group                 C1      NOp   1
 Largest Abelian subgroup         C1      NOp   1
 Largest concise Abelian subgroup C1      NOp   1
                         Standard orientation:                         
 ---------------------------------------------------------------------
 Center     Atomic      Atomic             Coordinates (Angstroms)
 Number     Number       Type             X           Y           Z
 ---------------------------------------------------------------------
      1          6           0        0.874341    1.281683   -0.180156
      2          1           0        0.951846    1.611986    0.834632
      3          1           0        0.858782    2.136554   -0.823470
      4          6           0        1.704686    0.040251    0.132786
      5          1           0        2.742969    0.037708   -0.125788
      6          8           0        1.036951   -1.215744   -0.128113
      7          6           0       -0.848302   -1.144500    0.104778
      8          1           0       -1.550797   -1.946101    0.010766
      9          1           0       -0.523630   -1.078842    1.122215
     10          6           0       -1.500746    0.036041   -0.458525
     11          1           0       -2.544725   -0.127493   -0.626647
     12          6           0       -1.097879    0.980548    0.263469
     13          1           0       -1.910141    1.663431    0.400585
     14          1           0       -1.112504    0.264578    1.058499
 ---------------------------------------------------------------------
 Rotational constants (GHZ):           5.3751282           3.5193101           2.2938280
 Leave Link  202 at Tue Oct 15 01:54:00 2019, MaxMem=   280000000 cpu:               1.2 elap:               0.1
 (Enter /home/soft/g16/l301.exe)
 Standard basis: 6-31+G(d) (6D, 7F)
 Ernie: Thresh=  0.10000D-02 Tol=  0.10000D-05 Strict=F.
 There are   130 symmetry adapted cartesian basis functions of A   symmetry.
 There are   130 symmetry adapted basis functions of A   symmetry.
   130 basis functions,   224 primitive gaussians,   130 cartesian basis functions
    23 alpha electrons       23 beta electrons
       nuclear repulsion energy       228.5168762957 Hartrees.
 IExCor=  402 DFT=T Ex+Corr=B3LYP ExCW=0 ScaHFX=  0.200000
 ScaDFX=  0.800000  0.720000  1.000000  0.810000 ScalE2=  1.000000  1.000000
 IRadAn=      5 IRanWt=     -1 IRanGd=            0 ICorTp=0 IEmpDi=  4
 NAtoms=   14 NActive=   14 NUniq=   14 SFac= 1.00D+00 NAtFMM=   60 NAOKFM=F Big=F
 Integral buffers will be    131072 words long.
 Raffenetti 2 integral format.
 Two-electron integral symmetry is turned on.
 Leave Link  301 at Tue Oct 15 01:54:00 2019, MaxMem=   280000000 cpu:               2.2 elap:               0.1
 (Enter /home/soft/g16/l302.exe)
 NPDir=0 NMtPBC=     1 NCelOv=     1 NCel=       1 NClECP=     1 NCelD=      1
         NCelK=      1 NCelE2=     1 NClLst=     1 CellRange=     0.0.
 One-electron integrals computed using PRISM.
 One-electron integral symmetry used in STVInt
 NBasis=   130 RedAO= T EigKep=  7.23D-05  NBF=   130
 NBsUse=   130 1.00D-06 EigRej= -1.00D+00 NBFU=   130
 Precomputing XC quadrature grid using
 IXCGrd= 4 IRadAn=           5 IRanWt=          -1 IRanGd=           0 AccXCQ= 0.00D+00.
 Generated NRdTot=       0 NPtTot=           0 NUsed=           0 NTot=          32
 NSgBfM=   130   130   130   130   130 MxSgAt=    14 MxSgA2=    14.
 Leave Link  302 at Tue Oct 15 01:54:01 2019, MaxMem=   280000000 cpu:               4.5 elap:               0.3
 (Enter /home/soft/g16/l303.exe)
 DipDrv:  MaxL=1.
 Leave Link  303 at Tue Oct 15 01:54:01 2019, MaxMem=   280000000 cpu:               0.7 elap:               0.1
 (Enter /home/soft/g16/l401.exe)
 ExpMin= 4.38D-02 ExpMax= 5.48D+03 ExpMxC= 8.25D+02 IAcc=3 IRadAn=         5 AccDes= 0.00D+00
 Harris functional with IExCor=  402 and IRadAn=       5 diagonalized for initial guess.
 HarFok:  IExCor=  402 AccDes= 0.00D+00 IRadAn=         5 IDoV= 1 UseB2=F ITyADJ=14
 ICtDFT=  3500011 ScaDFX=  1.000000  1.000000  1.000000  1.000000
 FoFCou: FMM=F IPFlag=           0 FMFlag=      100000 FMFlg1=           0
         NFxFlg=           0 DoJE=T BraDBF=F KetDBF=T FulRan=T
         wScrn=  0.000000 ICntrl=       500 IOpCl=  0 I1Cent=   200000004 NGrid=           0
         NMat0=    1 NMatS0=      1 NMatT0=    0 NMatD0=    1 NMtDS0=    0 NMtDT0=    0
 Petite list used in FoFCou.
 Harris En= -270.236706551867    
 JPrj=0 DoOrth=F DoCkMO=F.
 Leave Link  401 at Tue Oct 15 01:54:01 2019, MaxMem=   280000000 cpu:               9.2 elap:               0.5
 (Enter /home/soft/g16/l502.exe)
 Integral symmetry usage will be decided dynamically.
 Closed shell SCF:
 Using DIIS extrapolation, IDIIS=  1040.
 NGot=   280000000 LenX=   279961518 LenY=   279944177
 Requested convergence on RMS density matrix=1.00D-08 within 128 cycles.
 Requested convergence on MAX density matrix=1.00D-06.
 Requested convergence on             energy=1.00D-06.
 No special actions if energy rises.
 Fock matrices will be formed incrementally for  20 cycles.

 Cycle   1  Pass 1  IDiag  1:
 FoFJK:  IHMeth= 1 ICntrl=       0 DoSepK=F KAlg= 0 I1Cent=           0 FoldK=F
 IRaf= 990000000 NMat=       1 IRICut=       1 DoRegI=T DoRafI=F ISym2E= 0 IDoP0=0 IntGTp=1.
 FoFCou: FMM=F IPFlag=           0 FMFlag=      100000 FMFlg1=           0
         NFxFlg=           0 DoJE=F BraDBF=F KetDBF=F FulRan=T
         wScrn=  0.000000 ICntrl=         0 IOpCl=  0 I1Cent=           0 NGrid=           0
         NMat0=    1 NMatS0=      1 NMatT0=    0 NMatD0=    1 NMtDS0=    0 NMtDT0=    0
 Symmetry not used in FoFCou.
 E= -269.829028344101    
 DIIS: error= 2.58D-02 at cycle   1 NSaved=   1.
 NSaved= 1 IEnMin= 1 EnMin= -269.829028344101     IErMin= 1 ErrMin= 2.58D-02
 ErrMax= 2.58D-02  0.00D+00 EMaxC= 1.00D-01 BMatC= 2.71D-01 BMatP= 2.71D-01
 IDIUse=3 WtCom= 7.42D-01 WtEn= 2.58D-01
 Coeff-Com:  0.100D+01
 Coeff-En:   0.100D+01
 Coeff:      0.100D+01
 Gap=    -0.240 Goal=   None    Shift=    0.000
 GapD=   -0.240 DampG=0.250 DampE=0.500 DampFc=0.2500 IDamp=-1.
 Damping current iteration by 2.50D-01
 RMSDP=2.89D-02 MaxDP=1.03D+00              OVMax= 7.27D-01

 Cycle   2  Pass 1  IDiag  1:
 RMSU=  7.11D-03    CP:  9.58D-01
 E= -269.944124612891     Delta-E=       -0.115096268790 Rises=F Damp=T
 DIIS: error= 1.24D-02 at cycle   2 NSaved=   2.
 NSaved= 2 IEnMin= 2 EnMin= -269.944124612891     IErMin= 2 ErrMin= 1.24D-02
 ErrMax= 1.24D-02  0.00D+00 EMaxC= 1.00D-01 BMatC= 4.24D-02 BMatP= 2.71D-01
 IDIUse=3 WtCom= 8.76D-01 WtEn= 1.24D-01
 Coeff-Com: -0.192D+00 0.119D+01
 Coeff-En:   0.165D+00 0.835D+00
 Coeff:     -0.148D+00 0.115D+01
 Gap=     0.385 Goal=   None    Shift=    0.000
 RMSDP=2.17D-02 MaxDP=1.04D+00 DE=-1.15D-01 OVMax= 9.11D-01

 Cycle   3  Pass 1  IDiag  1:
 RMSU=  1.98D-02    CP:  1.19D+00  1.82D-01
 E= -269.944739396024     Delta-E=       -0.000614783133 Rises=F Damp=F
 DIIS: error= 2.95D-02 at cycle   3 NSaved=   3.
 NSaved= 3 IEnMin= 3 EnMin= -269.944739396024     IErMin= 2 ErrMin= 1.24D-02
 ErrMax= 2.95D-02  0.00D+00 EMaxC= 1.00D-01 BMatC= 1.61D-01 BMatP= 4.24D-02
 IDIUse=2 WtCom= 0.00D+00 WtEn= 1.00D+00
 Coeff-En:   0.000D+00 0.499D+00 0.501D+00
 Coeff:      0.000D+00 0.499D+00 0.501D+00
 Gap=    -0.059 Goal=   None    Shift=    0.000
 RMSDP=3.11D-02 MaxDP=1.32D+00 DE=-6.15D-04 OVMax= 9.89D-01

 Cycle   4  Pass 1  IDiag  1:
 RMSU=  8.46D-03    CP:  8.24D-01  1.92D+00 -2.66D-01
 E= -269.258094030058     Delta-E=        0.686645365966 Rises=F Damp=F
 DIIS: error= 5.51D-02 at cycle   4 NSaved=   4.
 NSaved= 4 IEnMin= 3 EnMin= -269.944739396024     IErMin= 2 ErrMin= 1.24D-02
 ErrMax= 5.51D-02  0.00D+00 EMaxC= 1.00D-01 BMatC= 5.79D-01 BMatP= 4.24D-02
 IDIUse=2 WtCom= 0.00D+00 WtEn= 1.00D+00
 EnCoef did     5 forward-backward iterations
 Coeff-En:   0.505D-01 0.000D+00 0.672D+00 0.278D+00
 Coeff:      0.505D-01 0.000D+00 0.672D+00 0.278D+00
 Gap=    -0.019 Goal=   None    Shift=    0.000
 RMSDP=2.49D-02 MaxDP=8.65D-01 DE= 6.87D-01 OVMax= 9.86D-01

 Cycle   5  Pass 1  IDiag  1:
 RMSU=  5.18D-03    CP:  1.12D+00  7.53D-02  5.75D-01  1.59D-02
 E= -270.068149814199     Delta-E=       -0.810055784141 Rises=F Damp=F
 DIIS: error= 1.58D-02 at cycle   5 NSaved=   5.
 NSaved= 5 IEnMin= 5 EnMin= -270.068149814199     IErMin= 2 ErrMin= 1.24D-02
 ErrMax= 1.58D-02  0.00D+00 EMaxC= 1.00D-01 BMatC= 7.00D-02 BMatP= 4.24D-02
 IDIUse=2 WtCom= 0.00D+00 WtEn= 1.00D+00
 EnCoef did     5 forward-backward iterations
 Coeff-En:   0.000D+00 0.000D+00 0.340D+00 0.156D+00 0.505D+00
 Coeff:      0.000D+00 0.000D+00 0.340D+00 0.156D+00 0.505D+00
 Gap=    -0.011 Goal=   None    Shift=    0.000
 RMSDP=2.11D-02 MaxDP=5.14D-01 DE=-8.10D-01 OVMax= 6.96D-01

 Cycle   6  Pass 1  IDiag  1:
 RMSU=  1.51D-02    CP:  9.44D-01  1.56D+00  3.10D-01  6.83D-01  9.55D-02
 E= -269.973015430863     Delta-E=        0.095134383336 Rises=F Damp=F
 DIIS: error= 2.48D-02 at cycle   6 NSaved=   6.
 NSaved= 6 IEnMin= 5 EnMin= -270.068149814199     IErMin= 2 ErrMin= 1.24D-02
 ErrMax= 2.48D-02  0.00D+00 EMaxC= 1.00D-01 BMatC= 1.31D-01 BMatP= 4.24D-02
 IDIUse=2 WtCom= 0.00D+00 WtEn= 1.00D+00
 EnCoef did     2 forward-backward iterations
 Coeff-En:   0.000D+00 0.000D+00 0.122D+00 0.000D+00 0.536D+00 0.342D+00
 Coeff:      0.000D+00 0.000D+00 0.122D+00 0.000D+00 0.536D+00 0.342D+00
 Gap=     0.013 Goal=   None    Shift=    0.000
 RMSDP=1.82D-02 MaxDP=6.26D-01 DE= 9.51D-02 OVMax= 5.72D-01

 Cycle   7  Pass 1  IDiag  1:
 RMSU=  1.89D-03    CP:  1.13D+00  3.28D-01  8.48D-01  8.50D-02  6.91D-01
                    CP:  4.37D-01
 E= -270.118344345219     Delta-E=       -0.145328914356 Rises=F Damp=F
 DIIS: error= 8.43D-03 at cycle   7 NSaved=   7.
 NSaved= 7 IEnMin= 7 EnMin= -270.118344345219     IErMin= 7 ErrMin= 8.43D-03
 ErrMax= 8.43D-03  0.00D+00 EMaxC= 1.00D-01 BMatC= 1.93D-02 BMatP= 4.24D-02
 IDIUse=3 WtCom= 9.16D-01 WtEn= 8.43D-02
 EnCoef did   100 forward-backward iterations
 Coeff-Com: -0.144D+00 0.220D+00-0.306D-01-0.175D-01 0.318D+00 0.930D-01
 Coeff-Com:  0.561D+00
 Coeff-En:   0.000D+00 0.000D+00 0.000D+00 0.168D-02 0.222D+00 0.158D+00
 Coeff-En:   0.618D+00
 Coeff:     -0.132D+00 0.202D+00-0.280D-01-0.158D-01 0.310D+00 0.985D-01
 Coeff:      0.566D+00
 Gap=     0.024 Goal=   None    Shift=    0.000
 RMSDP=5.05D-03 MaxDP=1.89D-01 DE=-1.45D-01 OVMax= 1.63D-01

 Cycle   8  Pass 1  IDiag  1:
 RMSU=  1.33D-03    CP:  1.08D+00  5.20D-01  6.87D-01  2.21D-01  7.93D-01
                    CP:  6.24D-01  1.00D+00
 E= -270.137560340424     Delta-E=       -0.019215995205 Rises=F Damp=F
 DIIS: error= 2.51D-03 at cycle   8 NSaved=   8.
 NSaved= 8 IEnMin= 8 EnMin= -270.137560340424     IErMin= 8 ErrMin= 2.51D-03
 ErrMax= 2.51D-03  0.00D+00 EMaxC= 1.00D-01 BMatC= 2.51D-03 BMatP= 1.93D-02
 IDIUse=3 WtCom= 9.75D-01 WtEn= 2.51D-02
 Coeff-Com: -0.642D-01 0.900D-01-0.562D-01-0.123D-01 0.159D+00 0.389D-01
 Coeff-Com:  0.449D+00 0.396D+00
 Coeff-En:   0.000D+00 0.000D+00 0.000D+00 0.000D+00 0.000D+00 0.000D+00
 Coeff-En:   0.134D+00 0.866D+00
 Coeff:     -0.626D-01 0.877D-01-0.548D-01-0.120D-01 0.155D+00 0.379D-01
 Coeff:      0.441D+00 0.408D+00
 Gap=     0.032 Goal=   None    Shift=    0.000
 RMSDP=7.92D-04 MaxDP=3.00D-02 DE=-1.92D-02 OVMax= 2.54D-02

 Cycle   9  Pass 1  IDiag  1:
 RMSU=  5.13D-04    CP:  1.08D+00  5.37D-01  6.70D-01  2.27D-01  7.43D-01
                    CP:  6.39D-01  1.01D+00  7.92D-01
 E= -270.139204679318     Delta-E=       -0.001644338895 Rises=F Damp=F
 DIIS: error= 2.14D-03 at cycle   9 NSaved=   9.
 NSaved= 9 IEnMin= 9 EnMin= -270.139204679318     IErMin= 9 ErrMin= 2.14D-03
 ErrMax= 2.14D-03  0.00D+00 EMaxC= 1.00D-01 BMatC= 6.70D-04 BMatP= 2.51D-03
 IDIUse=3 WtCom= 9.79D-01 WtEn= 2.14D-02
 EnCoef did     3 forward-backward iterations
 Coeff-Com: -0.101D-01 0.174D-01-0.654D-02-0.296D-02 0.508D-01-0.145D-01
 Coeff-Com:  0.168D+00 0.185D+00 0.613D+00
 Coeff-En:   0.000D+00 0.000D+00 0.000D+00 0.000D+00 0.000D+00 0.000D+00
 Coeff-En:   0.200D-01 0.680D-01 0.912D+00
 Coeff:     -0.992D-02 0.171D-01-0.640D-02-0.290D-02 0.497D-01-0.142D-01
 Coeff:      0.164D+00 0.183D+00 0.619D+00
 Gap=     0.037 Goal=   None    Shift=    0.000
 RMSDP=3.60D-04 MaxDP=9.93D-03 DE=-1.64D-03 OVMax= 1.15D-02

 Cycle  10  Pass 1  IDiag  1:
 RMSU=  2.27D-04    CP:  1.08D+00  5.45D-01  6.72D-01  2.38D-01  7.16D-01
                    CP:  6.46D-01  9.69D-01  8.52D-01  7.13D-01
 E= -270.139627860094     Delta-E=       -0.000423180775 Rises=F Damp=F
 DIIS: error= 1.33D-03 at cycle  10 NSaved=  10.
 NSaved=10 IEnMin=10 EnMin= -270.139627860094     IErMin=10 ErrMin= 1.33D-03
 ErrMax= 1.33D-03  0.00D+00 EMaxC= 1.00D-01 BMatC= 4.01D-04 BMatP= 6.70D-04
 IDIUse=3 WtCom= 9.87D-01 WtEn= 1.33D-02
 Coeff-Com: -0.110D-02 0.107D-02-0.413D-02-0.901D-03 0.384D-01-0.179D-01
 Coeff-Com:  0.118D+00 0.361D-02 0.210D+00 0.653D+00
 Coeff-En:   0.000D+00 0.000D+00 0.000D+00 0.000D+00 0.000D+00 0.000D+00
 Coeff-En:   0.000D+00 0.000D+00 0.000D+00 0.100D+01
 Coeff:     -0.108D-02 0.106D-02-0.408D-02-0.889D-03 0.379D-01-0.176D-01
 Coeff:      0.117D+00 0.356D-02 0.207D+00 0.658D+00
 Gap=     0.039 Goal=   None    Shift=    0.000
 RMSDP=1.47D-04 MaxDP=4.31D-03 DE=-4.23D-04 OVMax= 3.04D-03

 Cycle  11  Pass 1  IDiag  1:
 RMSU=  7.95D-05    CP:  1.08D+00  5.45D-01  6.75D-01  2.39D-01  7.05D-01
                    CP:  6.50D-01  9.61D-01  8.34D-01  7.70D-01  1.14D+00
 E= -270.139840772331     Delta-E=       -0.000212912238 Rises=F Damp=F
 DIIS: error= 1.07D-03 at cycle  11 NSaved=  11.
 NSaved=11 IEnMin=11 EnMin= -270.139840772331     IErMin=11 ErrMin= 1.07D-03
 ErrMax= 1.07D-03  0.00D+00 EMaxC= 1.00D-01 BMatC= 2.33D-04 BMatP= 4.01D-04
 IDIUse=3 WtCom= 9.89D-01 WtEn= 1.07D-02
 Coeff-Com: -0.244D-02 0.288D-02-0.263D-02-0.154D-04 0.303D-01-0.135D-01
 Coeff-Com:  0.766D-01-0.789D-01-0.175D+00 0.123D+00 0.104D+01
 Coeff-En:   0.000D+00 0.000D+00 0.000D+00 0.000D+00 0.000D+00 0.000D+00
 Coeff-En:   0.000D+00 0.000D+00 0.000D+00 0.000D+00 0.100D+01
 Coeff:     -0.241D-02 0.285D-02-0.260D-02-0.153D-04 0.299D-01-0.133D-01
 Coeff:      0.758D-01-0.781D-01-0.173D+00 0.122D+00 0.104D+01
 Gap=     0.040 Goal=   None    Shift=    0.000
 RMSDP=1.83D-04 MaxDP=3.95D-03 DE=-2.13D-04 OVMax= 5.03D-03

 Cycle  12  Pass 1  IDiag  1:
 RMSU=  5.39D-05    CP:  1.08D+00  5.36D-01  6.75D-01  2.37D-01  6.86D-01
                    CP:  6.43D-01  9.37D-01  8.20D-01  7.91D-01  1.47D+00
                    CP:  1.08D+00
 E= -270.140086870958     Delta-E=       -0.000246098627 Rises=F Damp=F
 DIIS: error= 4.66D-04 at cycle  12 NSaved=  12.
 NSaved=12 IEnMin=12 EnMin= -270.140086870958     IErMin=12 ErrMin= 4.66D-04
 ErrMax= 4.66D-04  0.00D+00 EMaxC= 1.00D-01 BMatC= 4.55D-05 BMatP= 2.33D-04
 IDIUse=3 WtCom= 9.95D-01 WtEn= 4.66D-03
 Coeff-Com: -0.261D-02 0.444D-02 0.142D-02-0.625D-04 0.883D-02-0.336D-02
 Coeff-Com:  0.103D-01-0.355D-01-0.164D+00-0.302D+00 0.382D+00 0.110D+01
 Coeff-En:   0.000D+00 0.000D+00 0.000D+00 0.000D+00 0.000D+00 0.000D+00
 Coeff-En:   0.000D+00 0.000D+00 0.000D+00 0.000D+00 0.000D+00 0.100D+01
 Coeff:     -0.260D-02 0.442D-02 0.141D-02-0.622D-04 0.879D-02-0.335D-02
 Coeff:      0.103D-01-0.354D-01-0.163D+00-0.301D+00 0.380D+00 0.110D+01
 Gap=     0.042 Goal=   None    Shift=    0.000
 RMSDP=1.39D-04 MaxDP=4.16D-03 DE=-2.46D-04 OVMax= 3.27D-03

 Cycle  13  Pass 1  IDiag  1:
 RMSU=  2.40D-05    CP:  1.08D+00  5.31D-01  6.78D-01  2.36D-01  6.74D-01
                    CP:  6.41D-01  9.21D-01  8.01D-01  8.11D-01  1.74D+00
                    CP:  1.50D+00  1.29D+00
 E= -270.140147915971     Delta-E=       -0.000061045013 Rises=F Damp=F
 DIIS: error= 1.97D-05 at cycle  13 NSaved=  13.
 NSaved=13 IEnMin=13 EnMin= -270.140147915971     IErMin=13 ErrMin= 1.97D-05
 ErrMax= 1.97D-05  0.00D+00 EMaxC= 1.00D-01 BMatC= 1.13D-07 BMatP= 4.55D-05
 IDIUse=1 WtCom= 1.00D+00 WtEn= 0.00D+00
 Coeff-Com: -0.268D-03 0.503D-03 0.701D-03-0.473D-04 0.229D-03 0.278D-03
 Coeff-Com: -0.359D-02-0.275D-04-0.180D-01-0.621D-01-0.263D-01 0.253D+00
 Coeff-Com:  0.856D+00
 Coeff:     -0.268D-03 0.503D-03 0.701D-03-0.473D-04 0.229D-03 0.278D-03
 Coeff:     -0.359D-02-0.275D-04-0.180D-01-0.621D-01-0.263D-01 0.253D+00
 Coeff:      0.856D+00
 Gap=     0.042 Goal=   None    Shift=    0.000
 RMSDP=5.10D-05 MaxDP=1.69D-03 DE=-6.10D-05 OVMax= 1.49D-03

 Cycle  14  Pass 1  IDiag  1:
 RMSU=  5.39D-06    CP:  1.08D+00  5.33D-01  6.77D-01  2.37D-01  6.70D-01
                    CP:  6.43D-01  9.18D-01  8.05D-01  8.19D-01  1.77D+00
                    CP:  1.57D+00  1.44D+00  1.00D+00
 E= -270.140148262192     Delta-E=       -0.000000346221 Rises=F Damp=F
 DIIS: error= 2.19D-05 at cycle  14 NSaved=  14.
 NSaved=14 IEnMin=14 EnMin= -270.140148262192     IErMin=13 ErrMin= 1.97D-05
 ErrMax= 2.19D-05  0.00D+00 EMaxC= 1.00D-01 BMatC= 8.85D-08 BMatP= 1.13D-07
 IDIUse=1 WtCom= 1.00D+00 WtEn= 0.00D+00
 Coeff-Com:  0.130D-03-0.235D-03-0.896D-05 0.158D-05-0.161D-03 0.224D-03
 Coeff-Com: -0.470D-03 0.181D-02 0.904D-03-0.663D-02-0.295D-01 0.258D-01
 Coeff-Com:  0.269D+00 0.739D+00
 Coeff:      0.130D-03-0.235D-03-0.896D-05 0.158D-05-0.161D-03 0.224D-03
 Coeff:     -0.470D-03 0.181D-02 0.904D-03-0.663D-02-0.295D-01 0.258D-01
 Coeff:      0.269D+00 0.739D+00
 Gap=     0.042 Goal=   None    Shift=    0.000
 RMSDP=1.09D-05 MaxDP=2.92D-04 DE=-3.46D-07 OVMax= 3.52D-04

 Cycle  15  Pass 1  IDiag  1:
 RMSU=  2.72D-06    CP:  1.08D+00  5.34D-01  6.77D-01  2.37D-01  6.70D-01
                    CP:  6.44D-01  9.18D-01  8.04D-01  8.21D-01  1.78D+00
                    CP:  1.60D+00  1.46D+00  1.09D+00  1.06D+00
 E= -270.140148329372     Delta-E=       -0.000000067180 Rises=F Damp=F
 DIIS: error= 1.82D-05 at cycle  15 NSaved=  15.
 NSaved=15 IEnMin=15 EnMin= -270.140148329372     IErMin=15 ErrMin= 1.82D-05
 ErrMax= 1.82D-05  0.00D+00 EMaxC= 1.00D-01 BMatC= 5.93D-08 BMatP= 8.85D-08
 IDIUse=1 WtCom= 1.00D+00 WtEn= 0.00D+00
 Coeff-Com:  0.574D-04-0.805D-04-0.817D-04-0.204D-04-0.132D-03 0.148D-03
 Coeff-Com:  0.463D-03 0.186D-02 0.485D-02 0.543D-02-0.197D-01-0.376D-01
 Coeff-Com: -0.258D-03 0.536D+00 0.509D+00
 Coeff:      0.574D-04-0.805D-04-0.817D-04-0.204D-04-0.132D-03 0.148D-03
 Coeff:      0.463D-03 0.186D-02 0.485D-02 0.543D-02-0.197D-01-0.376D-01
 Coeff:     -0.258D-03 0.536D+00 0.509D+00
 Gap=     0.042 Goal=   None    Shift=    0.000
 RMSDP=3.31D-06 MaxDP=6.69D-05 DE=-6.72D-08 OVMax= 9.57D-05

 Cycle  16  Pass 1  IDiag  1:
 RMSU=  1.04D-06    CP:  1.08D+00  5.34D-01  6.77D-01  2.38D-01  6.69D-01
                    CP:  6.44D-01  9.18D-01  8.04D-01  8.21D-01  1.78D+00
                    CP:  1.60D+00  1.47D+00  1.11D+00  1.16D+00  9.05D-01
 E= -270.140148392568     Delta-E=       -0.000000063196 Rises=F Damp=F
 DIIS: error= 8.00D-06 at cycle  16 NSaved=  16.
 NSaved=16 IEnMin=16 EnMin= -270.140148392568     IErMin=16 ErrMin= 8.00D-06
 ErrMax= 8.00D-06  0.00D+00 EMaxC= 1.00D-01 BMatC= 1.21D-08 BMatP= 5.93D-08
 IDIUse=1 WtCom= 1.00D+00 WtEn= 0.00D+00
 Coeff-Com:  0.405D-05-0.192D-05-0.421D-04-0.396D-05-0.884D-05 0.775D-05
 Coeff-Com:  0.375D-03 0.516D-03 0.109D-02 0.816D-03-0.390D-02-0.152D-01
 Coeff-Com: -0.337D-01 0.787D-01 0.147D-01 0.957D+00
 Coeff:      0.405D-05-0.192D-05-0.421D-04-0.396D-05-0.884D-05 0.775D-05
 Coeff:      0.375D-03 0.516D-03 0.109D-02 0.816D-03-0.390D-02-0.152D-01
 Coeff:     -0.337D-01 0.787D-01 0.147D-01 0.957D+00
 Gap=     0.042 Goal=   None    Shift=    0.000
 RMSDP=2.15D-06 MaxDP=3.76D-05 DE=-6.32D-08 OVMax= 6.79D-05

 Cycle  17  Pass 1  IDiag  1:
 RMSU=  2.24D-07    CP:  1.08D+00  5.34D-01  6.77D-01  2.37D-01  6.69D-01
                    CP:  6.44D-01  9.17D-01  8.03D-01  8.21D-01  1.79D+00
                    CP:  1.61D+00  1.49D+00  1.13D+00  1.23D+00  9.70D-01
                    CP:  1.09D+00
 E= -270.140148409127     Delta-E=       -0.000000016559 Rises=F Damp=F
 DIIS: error= 6.95D-07 at cycle  17 NSaved=  17.
 NSaved=17 IEnMin=17 EnMin= -270.140148409127     IErMin=17 ErrMin= 6.95D-07
 ErrMax= 6.95D-07  0.00D+00 EMaxC= 1.00D-01 BMatC= 7.01D-11 BMatP= 1.21D-08
 IDIUse=1 WtCom= 1.00D+00 WtEn= 0.00D+00
 Coeff-Com: -0.723D-05 0.106D-04 0.229D-05-0.237D-06 0.832D-05-0.499D-05
 Coeff-Com:  0.173D-04 0.319D-04-0.222D-03 0.711D-04 0.149D-03-0.158D-03
 Coeff-Com: -0.223D-02-0.706D-02-0.535D-01 0.118D+00 0.945D+00
 Coeff:     -0.723D-05 0.106D-04 0.229D-05-0.237D-06 0.832D-05-0.499D-05
 Coeff:      0.173D-04 0.319D-04-0.222D-03 0.711D-04 0.149D-03-0.158D-03
 Coeff:     -0.223D-02-0.706D-02-0.535D-01 0.118D+00 0.945D+00
 Gap=     0.042 Goal=   None    Shift=    0.000
 RMSDP=5.90D-07 MaxDP=3.12D-05 DE=-1.66D-08 OVMax= 9.67D-06

 Cycle  18  Pass 1  IDiag  1:
 RMSU=  7.72D-08    CP:  1.08D+00  5.34D-01  6.77D-01  2.37D-01  6.69D-01
                    CP:  6.44D-01  9.17D-01  8.03D-01  8.21D-01  1.79D+00
                    CP:  1.61D+00  1.49D+00  1.13D+00  1.24D+00  1.00D+00
                    CP:  1.19D+00  1.15D+00
 E= -270.140148409190     Delta-E=       -0.000000000064 Rises=F Damp=F
 DIIS: error= 4.01D-07 at cycle  18 NSaved=  18.
 NSaved=18 IEnMin=18 EnMin= -270.140148409190     IErMin=18 ErrMin= 4.01D-07
 ErrMax= 4.01D-07  0.00D+00 EMaxC= 1.00D-01 BMatC= 3.24D-11 BMatP= 7.01D-11
 IDIUse=1 WtCom= 1.00D+00 WtEn= 0.00D+00
 Coeff-Com: -0.175D-05 0.171D-05 0.479D-05 0.185D-06 0.133D-05-0.222D-05
 Coeff-Com: -0.283D-04-0.315D-04-0.122D-03 0.198D-03 0.374D-03 0.606D-03
 Coeff-Com:  0.942D-03-0.286D-02-0.115D-01-0.314D-01 0.140D+00 0.904D+00
 Coeff:     -0.175D-05 0.171D-05 0.479D-05 0.185D-06 0.133D-05-0.222D-05
 Coeff:     -0.283D-04-0.315D-04-0.122D-03 0.198D-03 0.374D-03 0.606D-03
 Coeff:      0.942D-03-0.286D-02-0.115D-01-0.314D-01 0.140D+00 0.904D+00
 Gap=     0.042 Goal=   None    Shift=    0.000
 RMSDP=1.44D-07 MaxDP=3.10D-06 DE=-6.36D-11 OVMax= 4.63D-06

 Cycle  19  Pass 1  IDiag  1:
 RMSU=  2.12D-08    CP:  1.08D+00  5.34D-01  6.77D-01  2.37D-01  6.69D-01
                    CP:  6.44D-01  9.17D-01  8.03D-01  8.21D-01  1.79D+00
                    CP:  1.61D+00  1.48D+00  1.13D+00  1.25D+00  1.01D+00
                    CP:  1.20D+00  1.25D+00  1.10D+00
 E= -270.140148409235     Delta-E=       -0.000000000045 Rises=F Damp=F
 DIIS: error= 2.66D-08 at cycle  19 NSaved=  19.
 NSaved=19 IEnMin=19 EnMin= -270.140148409235     IErMin=19 ErrMin= 2.66D-08
 ErrMax= 2.66D-08  0.00D+00 EMaxC= 1.00D-01 BMatC= 1.78D-13 BMatP= 3.24D-11
 IDIUse=1 WtCom= 1.00D+00 WtEn= 0.00D+00
 Coeff-Com: -0.803D-07 0.115D-07 0.579D-06 0.198D-07 0.816D-07-0.164D-06
 Coeff-Com: -0.489D-05-0.634D-05-0.206D-04 0.325D-05 0.684D-04 0.147D-03
 Coeff-Com:  0.438D-04 0.418D-04 0.407D-03-0.785D-02-0.384D-01 0.780D-01
 Coeff-Com:  0.967D+00
 Coeff:     -0.803D-07 0.115D-07 0.579D-06 0.198D-07 0.816D-07-0.164D-06
 Coeff:     -0.489D-05-0.634D-05-0.206D-04 0.325D-05 0.684D-04 0.147D-03
 Coeff:      0.438D-04 0.418D-04 0.407D-03-0.785D-02-0.384D-01 0.780D-01
 Coeff:      0.967D+00
 Gap=     0.042 Goal=   None    Shift=    0.000
 RMSDP=4.39D-08 MaxDP=2.33D-06 DE=-4.47D-11 OVMax= 4.91D-07

 Cycle  20  Pass 1  IDiag  1:
 RMSU=  4.55D-09    CP:  1.08D+00  5.34D-01  6.77D-01  2.37D-01  6.69D-01
                    CP:  6.44D-01  9.17D-01  8.03D-01  8.21D-01  1.79D+00
                    CP:  1.62D+00  1.48D+00  1.13D+00  1.25D+00  1.01D+00
                    CP:  1.21D+00  1.27D+00  1.22D+00  1.05D+00
 E= -270.140148409226     Delta-E=        0.000000000009 Rises=F Damp=F
 DIIS: error= 4.07D-09 at cycle  20 NSaved=  20.
 NSaved=20 IEnMin=19 EnMin= -270.140148409235     IErMin=20 ErrMin= 4.07D-09
 ErrMax= 4.07D-09  0.00D+00 EMaxC= 1.00D-01 BMatC= 5.05D-15 BMatP= 1.78D-13
 IDIUse=1 WtCom= 1.00D+00 WtEn= 0.00D+00
 Coeff-Com:  0.910D-07-0.113D-06-0.114D-06-0.267D-08-0.147D-06 0.859D-07
 Coeff-Com:  0.111D-06 0.287D-06 0.268D-05-0.107D-04-0.805D-05 0.121D-04
 Coeff-Com: -0.412D-04 0.205D-03 0.732D-03-0.961D-03-0.214D-01-0.400D-01
 Coeff-Com:  0.257D+00 0.804D+00
 Coeff:      0.910D-07-0.113D-06-0.114D-06-0.267D-08-0.147D-06 0.859D-07
 Coeff:      0.111D-06 0.287D-06 0.268D-05-0.107D-04-0.805D-05 0.121D-04
 Coeff:     -0.412D-04 0.205D-03 0.732D-03-0.961D-03-0.214D-01-0.400D-01
 Coeff:      0.257D+00 0.804D+00
 Gap=     0.042 Goal=   None    Shift=    0.000
 RMSDP=3.49D-09 MaxDP=8.75D-08 DE= 8.87D-12 OVMax= 8.28D-08

 SCF Done:  E(RB3LYP) =  -270.140148409     A.U. after   20 cycles
            NFock= 20  Conv=0.35D-08     -V/T= 2.0075
 KE= 2.681330257503D+02 PE=-1.085203109120D+03 EE= 3.184130586644D+02
 Leave Link  502 at Tue Oct 15 01:54:08 2019, MaxMem=   280000000 cpu:             152.0 elap:               6.5
 (Enter /home/soft/g16/l801.exe)
 DoSCS=F DFT=T ScalE2(SS,OS)=  1.000000  1.000000
 Range of M.O.s used for correlation:     1   130
 NBasis=   130 NAE=    23 NBE=    23 NFC=     0 NFV=     0
 NROrb=    130 NOA=    23 NOB=    23 NVA=   107 NVB=   107

 **** Warning!!: The largest alpha MO coefficient is  0.30782498D+02


 **** Warning!!: The smallest alpha delta epsilon is  0.41958079D-01

 Leave Link  801 at Tue Oct 15 01:54:08 2019, MaxMem=   280000000 cpu:               0.9 elap:               0.1
 (Enter /home/soft/g16/l1101.exe)
 Using compressed storage, NAtomX=    14.
 Will process     15 centers per pass.
 Leave Link 1101 at Tue Oct 15 01:54:08 2019, MaxMem=   280000000 cpu:               5.2 elap:               0.3
 (Enter /home/soft/g16/l1102.exe)
 Symmetrizing basis deriv contribution to polar:
 IMax=3 JMax=2 DiffMx= 0.00D+00
 Leave Link 1102 at Tue Oct 15 01:54:08 2019, MaxMem=   280000000 cpu:               0.8 elap:               0.1
 (Enter /home/soft/g16/l1110.exe)
 Forming Gx(P) for the SCF density, NAtomX=    14.
 Integral derivatives from FoFJK, PRISM(SPDF).
 Do as many integral derivatives as possible in FoFJK.
 G2DrvN: MDV=     279998856.
 G2DrvN: will do    15 centers at a time, making    1 passes.
 Calling FoFCou, ICntrl=  3107 FMM=F I1Cent=   0 AccDes= 0.00D+00.
 FoFJK:  IHMeth= 1 ICntrl=    3107 DoSepK=F KAlg= 0 I1Cent=           0 FoldK=F
 IRaf=         0 NMat=       1 IRICut=       1 DoRegI=T DoRafI=F ISym2E= 0 IDoP0=0 IntGTp=1.
 FoFCou: FMM=F IPFlag=           0 FMFlag=      100000 FMFlg1=           0
         NFxFlg=           0 DoJE=F BraDBF=F KetDBF=F FulRan=T
         wScrn=  0.000000 ICntrl=      3107 IOpCl=  0 I1Cent=           0 NGrid=           0
         NMat0=    1 NMatS0=      1 NMatT0=    0 NMatD0=    1 NMtDS0=    0 NMtDT0=    0
 Symmetry not used in FoFCou.
 End of G2Drv F.D. properties file   721 does not exist.
 End of G2Drv F.D. properties file   722 does not exist.
 End of G2Drv F.D. properties file   788 does not exist.
 Leave Link 1110 at Tue Oct 15 01:54:14 2019, MaxMem=   280000000 cpu:             136.4 elap:               5.7
 (Enter /home/soft/g16/l1002.exe)
 Minotr:  Closed shell wavefunction.
          IDoAtm=11111111111111
          Direct CPHF calculation.
          Differentiating once with respect to nuclear coordinates.
          Requested convergence is 1.0D-08 RMS, and 1.0D-07 maximum.
          Secondary convergence is 1.0D-12 RMS, and 1.0D-12 maximum.
          NewPWx=T KeepS1=F KeepF1=F KeepIn=T MapXYZ=F SortEE=F KeepMc=T.
         4236 words used for storage of precomputed grid.
 Keep R1 ints in memory in canonical form, NReq=59094296.
 FoFCou: FMM=F IPFlag=           0 FMFlag=           0 FMFlg1=           0
         NFxFlg=           0 DoJE=F BraDBF=F KetDBF=F FulRan=T
         wScrn=  0.000000 ICntrl=       600 IOpCl=  0 I1Cent=           0 NGrid=           0
         NMat0=    1 NMatS0=   8515 NMatT0=    0 NMatD0=    1 NMtDS0=    0 NMtDT0=    0
 Symmetry not used in FoFCou.
 Two-electron integral symmetry not used.
          MDV=     280000000 using IRadAn=       1.
          Solving linear equations simultaneously, MaxMat=       0.
          There are    45 degrees of freedom in the 1st order CPHF.  IDoFFX=6 NUNeed=     0.
     39 vectors produced by pass  0 Test12= 5.47D-15 2.22D-09 XBig12= 1.74D-01 1.85D-01.
 AX will form    39 AO Fock derivatives at one time.
     39 vectors produced by pass  1 Test12= 5.47D-15 2.22D-09 XBig12= 2.92D-02 6.31D-02.
     39 vectors produced by pass  2 Test12= 5.47D-15 2.22D-09 XBig12= 3.35D-04 2.98D-03.
     39 vectors produced by pass  3 Test12= 5.47D-15 2.22D-09 XBig12= 1.28D-06 2.27D-04.
     39 vectors produced by pass  4 Test12= 5.47D-15 2.22D-09 XBig12= 2.22D-09 8.01D-06.
     38 vectors produced by pass  5 Test12= 5.47D-15 2.22D-09 XBig12= 2.28D-12 1.56D-07.
      4 vectors produced by pass  6 Test12= 5.47D-15 2.22D-09 XBig12= 1.78D-15 4.25D-09.
 InvSVY:  IOpt=1 It=  1 EMax= 2.66D-15
 Solved reduced A of dimension   237 with    39 vectors.
 End of Minotr F.D. properties file   721 does not exist.
 End of Minotr F.D. properties file   722 does not exist.
 End of Minotr F.D. properties file   788 does not exist.
 Leave Link 1002 at Tue Oct 15 01:54:21 2019, MaxMem=   280000000 cpu:             179.1 elap:               7.5
 (Enter /home/soft/g16/l601.exe)
 Copying SCF densities to generalized density rwf, IOpCl= 0 IROHF=0.

 **********************************************************************

            Population analysis using the SCF density.

 **********************************************************************

 Orbital symmetries:
       Occupied  (A) (A) (A) (A) (A) (A) (A) (A) (A) (A) (A) (A)
                 (A) (A) (A) (A) (A) (A) (A) (A) (A) (A) (A)
       Virtual   (A) (A) (A) (A) (A) (A) (A) (A) (A) (A) (A) (A)
                 (A) (A) (A) (A) (A) (A) (A) (A) (A) (A) (A) (A)
                 (A) (A) (A) (A) (A) (A) (A) (A) (A) (A) (A) (A)
                 (A) (A) (A) (A) (A) (A) (A) (A) (A) (A) (A) (A)
                 (A) (A) (A) (A) (A) (A) (A) (A) (A) (A) (A) (A)
                 (A) (A) (A) (A) (A) (A) (A) (A) (A) (A) (A) (A)
                 (A) (A) (A) (A) (A) (A) (A) (A) (A) (A) (A) (A)
                 (A) (A) (A) (A) (A) (A) (A) (A) (A) (A) (A) (A)
                 (A) (A) (A) (A) (A) (A) (A) (A) (A) (A) (A)
 The electronic state is 1-A.
 Alpha  occ. eigenvalues --  -19.19186 -10.31155 -10.22678 -10.22609 -10.18755
 Alpha  occ. eigenvalues --  -10.16593  -0.98880  -0.86693  -0.76122  -0.67748
 Alpha  occ. eigenvalues --   -0.61447  -0.55634  -0.50688  -0.48383  -0.44770
 Alpha  occ. eigenvalues --   -0.43677  -0.42068  -0.40208  -0.36262  -0.32631
 Alpha  occ. eigenvalues --   -0.30223  -0.28673  -0.16216
 Alpha virt. eigenvalues --   -0.12021  -0.05292  -0.00101   0.01475   0.01808
 Alpha virt. eigenvalues --    0.02917   0.03521   0.04198   0.06663   0.06913
 Alpha virt. eigenvalues --    0.07745   0.08088   0.09566   0.10723   0.10802
 Alpha virt. eigenvalues --    0.11449   0.12367   0.12593   0.13179   0.14531
 Alpha virt. eigenvalues --    0.17392   0.18266   0.19053   0.19965   0.20503
 Alpha virt. eigenvalues --    0.21747   0.23826   0.24906   0.26462   0.27882
 Alpha virt. eigenvalues --    0.29657   0.32081   0.32532   0.32898   0.34374
 Alpha virt. eigenvalues --    0.36131   0.37342   0.38266   0.43512   0.58703
 Alpha virt. eigenvalues --    0.61664   0.63340   0.64431   0.67987   0.68330
 Alpha virt. eigenvalues --    0.70603   0.73214   0.76539   0.79951   0.81591
 Alpha virt. eigenvalues --    0.86249   0.87608   0.92740   0.93310   0.95248
 Alpha virt. eigenvalues --    0.97980   0.98322   1.00947   1.05071   1.05740
 Alpha virt. eigenvalues --    1.06917   1.09482   1.13507   1.15224   1.22712
 Alpha virt. eigenvalues --    1.25774   1.28554   1.31971   1.37551   1.39628
 Alpha virt. eigenvalues --    1.43695   1.48819   1.49958   1.58167   1.67268
 Alpha virt. eigenvalues --    1.72651   1.78022   1.82073   1.85570   1.86481
 Alpha virt. eigenvalues --    1.89759   1.93656   2.00096   2.05191   2.05993
 Alpha virt. eigenvalues --    2.12202   2.20963   2.27013   2.29546   2.32939
 Alpha virt. eigenvalues --    2.36107   2.37974   2.40848   2.50787   2.53930
 Alpha virt. eigenvalues --    2.59998   2.62768   2.66974   2.78149   2.84380
 Alpha virt. eigenvalues --    2.93219   4.12362   4.19157   4.28166   4.36979
 Alpha virt. eigenvalues --    4.41237   4.48058
          Condensed to atoms (all electrons):
               1          2          3          4          5          6
     1  C    6.066949   0.394637   0.301035  -0.135245  -0.006791  -0.017956
     2  H    0.394637   0.520888  -0.027888  -0.058644   0.000893   0.004566
     3  H    0.301035  -0.027888   0.474837   0.023492  -0.003784   0.001345
     4  C   -0.135245  -0.058644   0.023492   5.537308   0.282629   0.222160
     5  H   -0.006791   0.000893  -0.003784   0.282629   0.581696  -0.048090
     6  O   -0.017956   0.004566   0.001345   0.222160  -0.048090   8.284880
     7  C   -0.083047   0.014856   0.005504   0.009981  -0.012097  -0.104207
     8  H   -0.005096  -0.000047   0.000005   0.004627   0.000008   0.006904
     9  H   -0.025912   0.000628   0.000191   0.037259  -0.001070  -0.113995
    10  C    0.598149   0.037162  -0.038616  -0.419676   0.022758   0.211146
    11  H   -0.003081  -0.000047  -0.000018   0.002380   0.000004   0.000877
    12  C   -0.559997  -0.131880   0.022672   0.444882  -0.016370  -0.141279
    13  H    0.006131   0.000026  -0.000657  -0.010449  -0.000010  -0.000464
    14  H   -0.154784  -0.002685   0.002874   0.098266  -0.000558  -0.026815
               7          8          9         10         11         12
     1  C   -0.083047  -0.005096  -0.025912   0.598149  -0.003081  -0.559997
     2  H    0.014856  -0.000047   0.000628   0.037162  -0.000047  -0.131880
     3  H    0.005504   0.000005   0.000191  -0.038616  -0.000018   0.022672
     4  C    0.009981   0.004627   0.037259  -0.419676   0.002380   0.444882
     5  H   -0.012097   0.000008  -0.001070   0.022758   0.000004  -0.016370
     6  O   -0.104207   0.006904  -0.113995   0.211146   0.000877  -0.141279
     7  C    6.282693   0.328152   0.535699  -0.185724  -0.083875  -0.124796
     8  H    0.328152   0.522633  -0.048235  -0.089328  -0.003205   0.077502
     9  H    0.535699  -0.048235   0.588253  -0.223792   0.005368   0.012160
    10  C   -0.185724  -0.089328  -0.223792   8.383557   0.359147  -2.600184
    11  H   -0.083875  -0.003205   0.005368   0.359147   0.523587   0.009401
    12  C   -0.124796   0.077502   0.012160  -2.600184   0.009401   8.760622
    13  H    0.035020  -0.001322   0.001483  -0.032137  -0.012369   0.327920
    14  H   -0.053092   0.001731   0.037629  -0.472078   0.013484   0.747674
              13         14
     1  C    0.006131  -0.154784
     2  H    0.000026  -0.002685
     3  H   -0.000657   0.002874
     4  C   -0.010449   0.098266
     5  H   -0.000010  -0.000558
     6  O   -0.000464  -0.026815
     7  C    0.035020  -0.053092
     8  H   -0.001322   0.001731
     9  H    0.001483   0.037629
    10  C   -0.032137  -0.472078
    11  H   -0.012369   0.013484
    12  C    0.327920   0.747674
    13  H    0.547414  -0.043826
    14  H   -0.043826   0.674285
 Mulliken charges:
               1
     1  C   -0.374992
     2  H    0.247536
     3  H    0.239008
     4  C   -0.038970
     5  H    0.200782
     6  O   -0.279074
     7  C   -0.565067
     8  H    0.205671
     9  H    0.194334
    10  C    0.449617
    11  H    0.188346
    12  C   -0.828326
    13  H    0.183240
    14  H    0.177895
 Sum of Mulliken charges =  -0.00000
 Mulliken charges with hydrogens summed into heavy atoms:
               1
     1  C    0.111552
     4  C    0.161812
     6  O   -0.279074
     7  C   -0.165061
    10  C    0.637964
    12  C   -0.467192
 APT charges:
               1
     1  C   -0.791094
     2  H    0.384901
     3  H    0.518484
     4  C   -0.436236
     5  H    0.608027
     6  O   -0.379192
     7  C   -0.946978
     8  H    0.549069
     9  H    0.331908
    10  C    0.022425
    11  H    0.552891
    12  C   -1.213132
    13  H    0.540684
    14  H    0.258242
 Sum of APT charges =  -0.00000
 APT charges with hydrogens summed into heavy atoms:
               1
     1  C    0.112292
     4  C    0.171791
     6  O   -0.379192
     7  C   -0.066001
    10  C    0.575315
    12  C   -0.414205
 Electronic spatial extent (au):  <R**2>=            568.8855
 Charge=             -0.0000 electrons
 Dipole moment (field-independent basis, Debye):
    X=             -0.0607    Y=              1.8841    Z=              1.2283  Tot=              2.2500
 Quadrupole moment (field-independent basis, Debye-Ang):
   XX=            -32.7012   YY=            -39.5219   ZZ=            -41.1956
   XY=              3.8573   XZ=             -1.4356   YZ=             -1.6853
 Traceless Quadrupole moment (field-independent basis, Debye-Ang):
   XX=              5.1051   YY=             -1.7157   ZZ=             -3.3894
   XY=              3.8573   XZ=             -1.4356   YZ=             -1.6853
 Octapole moment (field-independent basis, Debye-Ang**2):
  XXX=              6.3177  YYY=              1.9875  ZZZ=              3.2560  XYY=             -4.7306
  XXY=              1.4556  XXZ=              1.5597  XZZ=              4.0908  YZZ=             -0.8721
  YYZ=             -0.7810  XYZ=             -0.0884
 Hexadecapole moment (field-independent basis, Debye-Ang**3):
 XXXX=           -382.7069 YYYY=           -290.0519 ZZZZ=            -94.6828 XXXY=             -3.1686
 XXXZ=             -6.2056 YYYX=              5.9071 YYYZ=             -7.3388 ZZZX=             -9.2348
 ZZZY=             -3.3108 XXYY=           -121.8142 XXZZ=            -92.7519 YYZZ=            -62.4147
 XXYZ=              0.1715 YYXZ=             -1.8404 ZZXY=              0.5772
 N-N= 2.285168762957D+02 E-N=-1.085203109375D+03  KE= 2.681330257503D+02
  Exact polarizability:   0.000   0.000   0.000   0.000   0.000   0.000
 Approx polarizability: 371.095 -17.599 151.311  64.493  -6.804  99.214
 No NMR shielding tensors so no spin-rotation constants.
 Leave Link  601 at Tue Oct 15 01:54:22 2019, MaxMem=   280000000 cpu:               3.4 elap:               0.2
 (Enter /home/soft/g16/l701.exe)
 ... and contract with generalized density number  0.
 Compute integral second derivatives.
 Leave Link  701 at Tue Oct 15 01:54:22 2019, MaxMem=   280000000 cpu:               4.8 elap:               0.2
 (Enter /home/soft/g16/l702.exe)
 L702 exits ... SP integral derivatives will be done elsewhere.
 Leave Link  702 at Tue Oct 15 01:54:22 2019, MaxMem=   280000000 cpu:               0.4 elap:               0.0
 (Enter /home/soft/g16/l703.exe)
 Integral derivatives from FoFJK, PRISM(SPDF).
 Compute integral second derivatives, UseDBF=F ICtDFT=           0.
 Calling FoFJK, ICntrl=    100147 FMM=F ISym2X=0 I1Cent= 0 IOpClX= 0 NMat=1 NMatS=1 NMatT=0.
 FoFJK:  IHMeth= 1 ICntrl=  100147 DoSepK=F KAlg= 0 I1Cent=           0 FoldK=F
 IRaf=         0 NMat=       1 IRICut=       1 DoRegI=T DoRafI=F ISym2E= 0 IDoP0=0 IntGTp=1.
 FoFCou: FMM=F IPFlag=           0 FMFlag=      100000 FMFlg1=         800
         NFxFlg=           0 DoJE=F BraDBF=F KetDBF=F FulRan=T
         wScrn=  0.000000 ICntrl=    100147 IOpCl=  0 I1Cent=           0 NGrid=           0
         NMat0=    1 NMatS0=      1 NMatT0=    0 NMatD0=    1 NMtDS0=    0 NMtDT0=    0
 Symmetry not used in FoFCou.
 Leave Link  703 at Tue Oct 15 01:54:30 2019, MaxMem=   280000000 cpu:             182.1 elap:               7.6
 (Enter /home/soft/g16/l716.exe)
 Dipole        =-2.38736810D-02 7.41261389D-01 4.83259674D-01
 Polarizability= 0.00000000D+00 0.00000000D+00 0.00000000D+00
                 0.00000000D+00 0.00000000D+00 0.00000000D+00
 ***** Axes restored to original set *****
 -------------------------------------------------------------------
 Center     Atomic                   Forces (Hartrees/Bohr)
 Number     Number              X              Y              Z
 -------------------------------------------------------------------
      1        6           0.068518950    0.014434046    0.071650715
      2        1          -0.013156099   -0.001617405    0.035358798
      3        1          -0.023423241    0.008266855   -0.027140956
      4        6           0.064915955   -0.120051482   -0.074785466
      5        1          -0.006980586    0.014361502   -0.014178826
      6        8          -0.069555399    0.053019971    0.044751207
      7        6           0.011405183   -0.059311812   -0.013818235
      8        1           0.017501895    0.009206502   -0.038460998
      9        1           0.006205981    0.012017333    0.005630311
     10        6           0.153472041   -0.047973390   -0.190433911
     11        1          -0.003909550   -0.026353041   -0.018062735
     12        6          -0.124552104    0.093584913    0.130572418
     13        1          -0.041550412    0.000121230    0.022100154
     14        1          -0.038892613    0.050294777    0.066817527
 -------------------------------------------------------------------
 Cartesian Forces:  Max     0.190433911 RMS     0.063295584
 FormGI is forming the generalized inverse of G from B-inverse, IUseBI=4.
 Leave Link  716 at Tue Oct 15 01:54:30 2019, MaxMem=   280000000 cpu:               1.1 elap:               0.1
 (Enter /home/soft/g16/l103.exe)

 GradGradGradGradGradGradGradGradGradGradGradGradGradGradGradGradGradGrad
 Berny optimization.
 Red2BG is reusing G-inverse.
 Internal  Forces:  Max     0.306073373 RMS     0.045026308
 Search for a saddle point.
 Step number   1 out of a maximum of   83
 All quantities printed in internal units (Hartrees-Bohrs-Radians)
 Swapping is turned off.
 Second derivative matrix not updated -- analytic derivatives used.
 ITU=  0
     Eigenvalues ---   -0.23342  -0.04776  -0.00962  -0.00013   0.00171
     Eigenvalues ---    0.00371   0.01100   0.01952   0.02627   0.03322
     Eigenvalues ---    0.04250   0.04875   0.05229   0.05467   0.06455
     Eigenvalues ---    0.07487   0.07621   0.08099   0.08934   0.09484
     Eigenvalues ---    0.09961   0.13890   0.14955   0.16283   0.19774
     Eigenvalues ---    0.24385   0.33968   0.34830   0.38574   0.38694
     Eigenvalues ---    0.38940   0.39146   0.39380   0.39503   0.45673
     Eigenvalues ---    1.03191
 Eigenvectors required to have negative eigenvalues:
                          R7        R6        R11       D23       D1
   1                   -0.69403   0.39855   0.22968  -0.17567  -0.16516
                          D26       A12       D22       A11       A16
   1                    0.16175  -0.15487  -0.15044  -0.14690  -0.14251
 Eigenvalue     2 is  -4.78D-02 should be greater than     0.000000 Eigenvector:
                          R4        D2        A3        D1        A22
   1                   -0.79191   0.27030   0.23460   0.21759   0.15412
                          D33       D4        D30       D22       A11
   1                   -0.12962   0.10744  -0.09297   0.08975  -0.08878
 Eigenvalue     3 is  -9.62D-03 should be greater than     0.000000 Eigenvector:
                          A22       D30       D33       D11       D8
   1                   -0.34067   0.32994   0.32293  -0.28595  -0.26206
                          A20       D14       D29       A5        D32
   1                    0.19750  -0.19367   0.19066   0.18457   0.18365
 Eigenvalue     4 is  -1.35D-04 should be greater than     0.000000 Eigenvector:
                          D6        A4        D5        D18       D16
   1                   -0.29166  -0.28221  -0.26770   0.26014   0.25524
                          D19       D17       D13       D15       D14
   1                    0.24844   0.24354   0.22958   0.22830   0.20298
 RFO step:  Lambda0=1.991445842D-02 Lambda=-2.08618664D-01.
 Linear search not attempted -- option 19 set.
 Maximum step size (   0.300) exceeded in Quadratic search.
    -- Step size scaled by   0.298
 Iteration  1 RMS(Cart)=  0.05058085 RMS(Int)=  0.00213456
 Iteration  2 RMS(Cart)=  0.00296655 RMS(Int)=  0.00057478
 Iteration  3 RMS(Cart)=  0.00000199 RMS(Int)=  0.00057478
 Iteration  4 RMS(Cart)=  0.00000000 RMS(Int)=  0.00057478
 ITry= 1 IFail=0 DXMaxC= 1.40D-01 DCOld= 1.00D+10 DXMaxT= 3.00D-01 DXLimC= 3.00D+00 Rises=F
 Variable       Old X    -DE/DX   Delta X   Delta X   Delta X     New X
                                 (Linear)    (Quad)   (Total)
    R1        2.02201   0.02760   0.00000   0.01027   0.01027   2.03228
    R2        2.02201   0.01486   0.00000   0.01074   0.01074   2.03275
    R3        2.88365  -0.01188   0.00000   0.00325   0.00346   2.88711
    R4        3.86223  -0.05245   0.00000  -0.21606  -0.21614   3.64609
    R5        2.02201   0.02070   0.00000   0.00778   0.00778   2.02978
    R6        2.73290  -0.07299   0.00000  -0.03221  -0.03215   2.70075
    R7        3.59222  -0.00399   0.00000  -0.12330  -0.12348   3.46874
    R8        3.78770   0.00369   0.00000  -0.00344  -0.00322   3.78448
    R9        2.02201   0.01984   0.00000   0.00738   0.00738   2.02939
   R10        2.02201   0.01823   0.00000   0.01546   0.01540   2.03741
   R11        2.76228   0.00434   0.00000   0.00149   0.00122   2.76350
   R12        2.02201   0.01576   0.00000   0.00692   0.00692   2.02893
   R13        2.37209   0.30607   0.00000   0.06765   0.06775   2.43984
   R14        2.02201   0.02111   0.00000   0.00605   0.00605   2.02806
   R15        2.02201   0.00850   0.00000   0.01861   0.01861   2.04062
    A1        1.90141  -0.00701   0.00000  -0.00418  -0.00533   1.89608
    A2        1.58802   0.04348   0.00000   0.03403   0.03458   1.62260
    A3        1.48020  -0.02209   0.00000   0.03705   0.03714   1.51733
    A4        2.46736  -0.05428   0.00000  -0.06473  -0.06433   2.40303
    A5        1.80718   0.04160   0.00000   0.05759   0.05618   1.86335
    A6        1.93982   0.00715   0.00000  -0.01212  -0.01258   1.92724
    A7        2.07190  -0.00285   0.00000  -0.01619  -0.01662   2.05527
    A8        2.00238   0.04183   0.00000   0.03116   0.03193   2.03431
    A9        1.98491  -0.03695   0.00000  -0.02601  -0.02597   1.95893
   A10        1.98588   0.02844   0.00000  -0.00952  -0.00975   1.97612
   A11        1.75955   0.03361   0.00000  -0.01716  -0.01693   1.74262
   A12        2.22974  -0.01877   0.00000  -0.03647  -0.03643   2.19332
   A13        2.01056  -0.03004   0.00000  -0.02723  -0.02754   1.98302
   A14        1.90576  -0.00707   0.00000  -0.01135  -0.01088   1.89487
   A15        1.85265   0.04583   0.00000   0.03770   0.03727   1.88992
   A16        2.04015  -0.00206   0.00000  -0.01463  -0.01430   2.02585
   A17        1.95262  -0.00820   0.00000  -0.00802  -0.00817   1.94445
   A18        1.81603   0.02600   0.00000   0.01455   0.01501   1.83105
   A19        2.11591   0.00903   0.00000   0.00300   0.00289   2.11880
   A20        1.87101  -0.06319   0.00000   0.00910   0.00906   1.88007
   A21        2.30005  -0.01554   0.00000  -0.03719  -0.03763   2.26243
   A22        1.84737  -0.01756   0.00000  -0.02302  -0.02397   1.82340
   A23        1.88629   0.06708   0.00000   0.03206   0.03239   1.91868
   A24        1.49021   0.05253   0.00000   0.03776   0.03826   1.52847
   A25        1.89806   0.00373   0.00000   0.01143   0.00971   1.90777
    D1       -1.74427   0.00663   0.00000   0.02826   0.02830  -1.71597
    D2        2.10888   0.01805   0.00000   0.05296   0.05268   2.16156
    D3        0.39889   0.01433   0.00000   0.01824   0.01723   0.41612
    D4       -2.03114   0.02574   0.00000   0.04295   0.04161  -1.98953
    D5        3.05860   0.01364   0.00000  -0.02485  -0.02438   3.03422
    D6        0.62857   0.02505   0.00000  -0.00015  -0.00001   0.62856
    D7       -2.62620  -0.00714   0.00000  -0.01668  -0.01637  -2.64257
    D8        1.29353  -0.01344   0.00000  -0.04194  -0.04095   1.25258
    D9       -1.05513   0.02646   0.00000   0.01974   0.01997  -1.03517
   D10        1.76741   0.00569   0.00000  -0.01973  -0.02134   1.74608
   D11       -0.59604  -0.00062   0.00000  -0.04500  -0.04592  -0.64196
   D12       -2.94471   0.03929   0.00000   0.01668   0.01500  -2.92971
   D13       -1.07200   0.03040   0.00000   0.03552   0.03564  -1.03635
   D14        2.84774   0.02409   0.00000   0.01026   0.01106   2.85879
   D15        0.49907   0.06400   0.00000   0.07194   0.07198   0.57105
   D16       -0.53810   0.01840   0.00000  -0.00893  -0.00955  -0.54765
   D17       -1.06816   0.00494   0.00000  -0.01594  -0.01590  -1.08406
   D18       -3.00378   0.01724   0.00000   0.01199   0.01134  -2.99244
   D19        2.74935   0.00378   0.00000   0.00499   0.00498   2.75433
   D20       -3.09486  -0.01536   0.00000  -0.01471  -0.01379  -3.10865
   D21        0.76470  -0.02729   0.00000   0.01349   0.01289   0.77759
   D22        2.77545  -0.00491   0.00000  -0.00638  -0.00652   2.76893
   D23       -1.19398   0.02108   0.00000   0.00309   0.00306  -1.19092
   D24        0.20607   0.00421   0.00000   0.03964   0.03982   0.24589
   D25        2.51983   0.03020   0.00000   0.04911   0.04941   2.56924
   D26       -1.92402  -0.02098   0.00000   0.03465   0.03457  -1.88945
   D27        0.38974   0.00501   0.00000   0.04412   0.04415   0.43389
   D28        1.24127  -0.00309   0.00000   0.00898   0.00865   1.24993
   D29       -2.48340  -0.02247   0.00000  -0.00293  -0.00335  -2.48676
   D30       -0.59438  -0.00038   0.00000   0.02179   0.02179  -0.57259
   D31       -2.82640   0.01700   0.00000   0.01384   0.01379  -2.81261
   D32       -0.26789  -0.00238   0.00000   0.00193   0.00179  -0.26610
   D33        1.62113   0.01970   0.00000   0.02665   0.02693   1.64806
         Item               Value     Threshold  Converged?
 Maximum Force            0.306073     0.000450     NO 
 RMS     Force            0.045026     0.000300     NO 
 Maximum Displacement     0.140333     0.001800     NO 
 RMS     Displacement     0.052274     0.001200     NO 
 Predicted change in Energy=-6.208581D-02
 Lowest energy point so far.  Saving SCF results.
 GradGradGradGradGradGradGradGradGradGradGradGradGradGradGradGradGradGrad

 Leave Link  103 at Tue Oct 15 01:54:30 2019, MaxMem=   280000000 cpu:               3.7 elap:               0.2
 (Enter /home/soft/g16/l202.exe)
                          Input orientation:                          
 ---------------------------------------------------------------------
 Center     Atomic      Atomic             Coordinates (Angstroms)
 Number     Number       Type             X           Y           Z
 ---------------------------------------------------------------------
      1          6           0       -3.669201   -1.233868    0.714117
      2          1           0       -3.664315   -0.621127    1.597910
      3          1           0       -4.597064   -1.776837    0.677386
      4          6           0       -2.944741   -0.177480   -0.118559
      5          1           0       -3.539119    0.454374   -0.751960
      6          8           0       -1.728250   -0.584353   -0.748749
      7          6           0       -0.811159   -1.858380    0.202640
      8          1           0        0.136599   -2.282753   -0.071111
      9          1           0       -0.636410   -1.029772    0.869933
     10          6           0       -1.662112   -2.930229    0.717982
     11          1           0       -1.091878   -3.814077    0.933384
     12          6           0       -2.396526   -2.367490    1.618491
     13          1           0       -2.542566   -3.038469    2.443246
     14          1           0       -1.559684   -1.718612    1.829978
 ---------------------------------------------------------------------
                    Distance matrix (angstroms):
                    1          2          3          4          5
     1  C    0.000000
     2  H    1.075436   0.000000
     3  H    1.075683   1.747298   0.000000
     4  C    1.527791   1.913342   2.433442   0.000000
     5  H    2.239746   2.587328   2.853170   1.074115   0.000000
     6  O    2.515778   3.042451   3.418475   1.429173   2.087633
     7  C    2.969854   3.408529   3.816426   2.735099   3.701603
     8  H    4.025029   4.471418   4.819104   3.732168   4.633176
     9  H    3.043642   3.140884   4.035091   2.651775   3.641284
    10  C    2.627939   3.180415   3.153712   3.150010   4.139978
    11  H    3.653512   4.153788   4.062290   4.214798   5.200870
    12  C    1.929428   2.158123   2.465140   2.848513   3.858429
    13  H    2.741492   2.795792   2.988467   3.861327   4.837604
    14  H    2.435197   2.384911   3.249236   2.844340   3.912344
                    6          7          8          9         10
     6  O    0.000000
     7  C    1.835577   0.000000
     8  H    2.611784   1.073908   0.000000
     9  H    2.002660   1.078151   1.747303   0.000000
    10  C    2.767455   1.462381   2.068153   2.164923   0.000000
    11  H    3.696709   2.106547   2.205249   2.822027   1.073663
    12  C    3.038091   2.185684   3.046089   2.334060   1.291106
    13  H    4.107874   3.067686   3.751137   3.184904   1.939962
    14  H    2.822196   1.796679   2.609554   1.499541   1.647739
                   11         12         13         14
    11  H    0.000000
    12  C    2.064967   0.000000
    13  H    2.232879   1.073202   0.000000
    14  H    2.326735   1.079849   1.756183   0.000000
 Stoichiometry    C5H8O
 Framework group  C1[X(C5H8O)]
 Deg. of freedom    36
 Full point group                 C1      NOp   1
 RotChk:  IX=0 Diff= 2.34D-02
 Largest Abelian subgroup         C1      NOp   1
 Largest concise Abelian subgroup C1      NOp   1
                         Standard orientation:                         
 ---------------------------------------------------------------------
 Center     Atomic      Atomic             Coordinates (Angstroms)
 Number     Number       Type             X           Y           Z
 ---------------------------------------------------------------------
      1          6           0        0.837790    1.282815   -0.171741
      2          1           0        0.952916    1.659702    0.828892
      3          1           0        0.884333    2.109807   -0.858044
      4          6           0        1.638986    0.016923    0.127847
      5          1           0        2.673622   -0.000171   -0.160178
      6          8           0        0.985710   -1.228227   -0.127823
      7          6           0       -0.831801   -1.156063    0.118729
      8          1           0       -1.511629   -1.980301    0.010369
      9          1           0       -0.544872   -1.081688    1.155334
     10          6           0       -1.455178    0.032281   -0.462475
     11          1           0       -2.504352   -0.119169   -0.632914
     12          6           0       -1.025286    1.016859    0.253593
     13          1           0       -1.806715    1.740100    0.387954
     14          1           0       -1.016051    0.340643    1.095448
 ---------------------------------------------------------------------
 Rotational constants (GHZ):           5.2481278           3.7769164           2.3789032
 Leave Link  202 at Tue Oct 15 01:54:30 2019, MaxMem=   280000000 cpu:               0.7 elap:               0.1
 (Enter /home/soft/g16/l301.exe)
 Standard basis: 6-31+G(d) (6D, 7F)
 Ernie: Thresh=  0.10000D-02 Tol=  0.10000D-05 Strict=F.
 There are   130 symmetry adapted cartesian basis functions of A   symmetry.
 There are   130 symmetry adapted basis functions of A   symmetry.
   130 basis functions,   224 primitive gaussians,   130 cartesian basis functions
    23 alpha electrons       23 beta electrons
       nuclear repulsion energy       230.4066960112 Hartrees.
 IExCor=  402 DFT=T Ex+Corr=B3LYP ExCW=0 ScaHFX=  0.200000
 ScaDFX=  0.800000  0.720000  1.000000  0.810000 ScalE2=  1.000000  1.000000
 IRadAn=      5 IRanWt=     -1 IRanGd=            0 ICorTp=0 IEmpDi=  4
 NAtoms=   14 NActive=   14 NUniq=   14 SFac= 1.00D+00 NAtFMM=   60 NAOKFM=F Big=F
 Integral buffers will be    131072 words long.
 Raffenetti 2 integral format.
 Two-electron integral symmetry is turned on.
 Leave Link  301 at Tue Oct 15 01:54:30 2019, MaxMem=   280000000 cpu:               1.6 elap:               0.1
 (Enter /home/soft/g16/l302.exe)
 NPDir=0 NMtPBC=     1 NCelOv=     1 NCel=       1 NClECP=     1 NCelD=      1
         NCelK=      1 NCelE2=     1 NClLst=     1 CellRange=     0.0.
 One-electron integrals computed using PRISM.
 One-electron integral symmetry used in STVInt
 NBasis=   130 RedAO= T EigKep=  7.75D-05  NBF=   130
 NBsUse=   130 1.00D-06 EigRej= -1.00D+00 NBFU=   130
 Precomputing XC quadrature grid using
 IXCGrd= 4 IRadAn=           5 IRanWt=          -1 IRanGd=           0 AccXCQ= 0.00D+00.
 Generated NRdTot=       0 NPtTot=           0 NUsed=           0 NTot=          32
 NSgBfM=   130   130   130   130   130 MxSgAt=    14 MxSgA2=    14.
 Leave Link  302 at Tue Oct 15 01:54:30 2019, MaxMem=   280000000 cpu:               3.6 elap:               0.2
 (Enter /home/soft/g16/l303.exe)
 DipDrv:  MaxL=1.
 Leave Link  303 at Tue Oct 15 01:54:30 2019, MaxMem=   280000000 cpu:               0.7 elap:               0.0
 (Enter /home/soft/g16/l401.exe)
 Initial guess from the checkpoint file:  "ts.chk"
 B after Tr=    -0.000000    0.000000   -0.000000
         Rot=    0.999974    0.003879   -0.001480    0.005827 Ang=   0.82 deg.
 Guess basis will be translated and rotated to current coordinates.
 JPrj=2 DoOrth=T DoCkMO=T.
 Generating alternative initial guess.
 ExpMin= 4.38D-02 ExpMax= 5.48D+03 ExpMxC= 8.25D+02 IAcc=2 IRadAn=         4 AccDes= 0.00D+00
 Harris functional with IExCor=  402 and IRadAn=       4 diagonalized for initial guess.
 HarFok:  IExCor=  402 AccDes= 0.00D+00 IRadAn=         4 IDoV= 1 UseB2=F ITyADJ=14
 ICtDFT=  3500011 ScaDFX=  1.000000  1.000000  1.000000  1.000000
 FoFCou: FMM=F IPFlag=           0 FMFlag=      100000 FMFlg1=           0
         NFxFlg=           0 DoJE=T BraDBF=F KetDBF=T FulRan=T
         wScrn=  0.000000 ICntrl=       500 IOpCl=  0 I1Cent=   200000004 NGrid=           0
         NMat0=    1 NMatS0=      1 NMatT0=    0 NMatD0=    1 NMtDS0=    0 NMtDT0=    0
 Petite list used in FoFCou.
 Harris En= -270.287028016836    
 Leave Link  401 at Tue Oct 15 01:54:31 2019, MaxMem=   280000000 cpu:               5.8 elap:               0.3
 (Enter /home/soft/g16/l502.exe)
 Integral symmetry usage will be decided dynamically.
 Closed shell SCF:
 Using DIIS extrapolation, IDIIS=  1040.
 NGot=   280000000 LenX=   279961518 LenY=   279944177
 Requested convergence on RMS density matrix=1.00D-08 within 128 cycles.
 Requested convergence on MAX density matrix=1.00D-06.
 Requested convergence on             energy=1.00D-06.
 No special actions if energy rises.
 Fock matrices will be formed incrementally for  20 cycles.

 Cycle   1  Pass 1  IDiag  1:
 FoFJK:  IHMeth= 1 ICntrl=       0 DoSepK=F KAlg= 0 I1Cent=           0 FoldK=F
 IRaf= 990000000 NMat=       1 IRICut=       1 DoRegI=T DoRafI=F ISym2E= 0 IDoP0=0 IntGTp=1.
 FoFCou: FMM=F IPFlag=           0 FMFlag=      100000 FMFlg1=           0
         NFxFlg=           0 DoJE=F BraDBF=F KetDBF=F FulRan=T
         wScrn=  0.000000 ICntrl=         0 IOpCl=  0 I1Cent=           0 NGrid=           0
         NMat0=    1 NMatS0=      1 NMatT0=    0 NMatD0=    1 NMtDS0=    0 NMtDT0=    0
 Symmetry not used in FoFCou.
 E= -270.195692319505    
 DIIS: error= 2.13D-03 at cycle   1 NSaved=   1.
 NSaved= 1 IEnMin= 1 EnMin= -270.195692319505     IErMin= 1 ErrMin= 2.13D-03
 ErrMax= 2.13D-03  0.00D+00 EMaxC= 1.00D-01 BMatC= 2.57D-03 BMatP= 2.57D-03
 IDIUse=3 WtCom= 9.79D-01 WtEn= 2.13D-02
 Coeff-Com:  0.100D+01
 Coeff-En:   0.100D+01
 Coeff:      0.100D+01
 Gap=     0.548 Goal=   None    Shift=    0.000
 GapD=    0.548 DampG=2.000 DampE=1.000 DampFc=2.0000 IDamp=-1.
 RMSDP=4.50D-03 MaxDP=2.06D-01              OVMax= 8.14D-02

 Cycle   2  Pass 1  IDiag  1:
 RMSU=  3.98D-03    CP:  9.43D-01
 E= -270.200249209722     Delta-E=       -0.004556890218 Rises=F Damp=F
 DIIS: error= 3.14D-03 at cycle   2 NSaved=   2.
 NSaved= 2 IEnMin= 2 EnMin= -270.200249209722     IErMin= 1 ErrMin= 2.13D-03
 ErrMax= 3.14D-03  0.00D+00 EMaxC= 1.00D-01 BMatC= 1.54D-03 BMatP= 2.57D-03
 IDIUse=3 WtCom= 9.69D-01 WtEn= 3.14D-02
 Coeff-Com:  0.392D+00 0.608D+00
 Coeff-En:   0.000D+00 0.100D+01
 Coeff:      0.380D+00 0.620D+00
 Gap=     0.050 Goal=   None    Shift=    0.000
 RMSDP=3.43D-03 MaxDP=7.93D-02 DE=-4.56D-03 OVMax= 1.29D-01

 Cycle   3  Pass 1  IDiag  1:
 RMSU=  2.61D-03    CP:  9.43D-01  4.39D-01
 E= -270.192145908564     Delta-E=        0.008103301159 Rises=F Damp=F
 DIIS: error= 5.97D-03 at cycle   3 NSaved=   3.
 NSaved= 3 IEnMin= 2 EnMin= -270.200249209722     IErMin= 1 ErrMin= 2.13D-03
 ErrMax= 5.97D-03  0.00D+00 EMaxC= 1.00D-01 BMatC= 7.76D-03 BMatP= 1.54D-03
 IDIUse=3 WtCom= 1.15D-01 WtEn= 8.85D-01
 Coeff-Com:  0.121D-01 0.689D+00 0.299D+00
 Coeff-En:   0.000D+00 0.756D+00 0.244D+00
 Coeff:      0.139D-02 0.748D+00 0.251D+00
 Gap=     0.043 Goal=   None    Shift=    0.000
 RMSDP=2.21D-03 MaxDP=5.75D-02 DE= 8.10D-03 OVMax= 8.89D-02

 Cycle   4  Pass 1  IDiag  1:
 RMSU=  5.89D-04    CP:  9.46D-01  7.85D-01  3.81D-01
 E= -270.201578110166     Delta-E=       -0.009432201602 Rises=F Damp=F
 DIIS: error= 1.34D-03 at cycle   4 NSaved=   4.
 NSaved= 4 IEnMin= 4 EnMin= -270.201578110166     IErMin= 4 ErrMin= 1.34D-03
 ErrMax= 1.34D-03  0.00D+00 EMaxC= 1.00D-01 BMatC= 4.40D-04 BMatP= 1.54D-03
 IDIUse=3 WtCom= 9.87D-01 WtEn= 1.34D-02
 Coeff-Com: -0.236D-01 0.415D+00 0.632D-01 0.546D+00
 Coeff-En:   0.000D+00 0.278D+00 0.000D+00 0.722D+00
 Coeff:     -0.233D-01 0.413D+00 0.623D-01 0.548D+00
 Gap=     0.042 Goal=   None    Shift=    0.000
 RMSDP=7.19D-04 MaxDP=2.37D-02 DE=-9.43D-03 OVMax= 2.42D-02

 Cycle   5  Pass 1  IDiag  1:
 RMSU=  1.41D-04    CP:  9.42D-01  9.27D-01  2.32D-01  9.33D-01
 E= -270.202016228619     Delta-E=       -0.000438118454 Rises=F Damp=F
 DIIS: error= 4.91D-04 at cycle   5 NSaved=   5.
 NSaved= 5 IEnMin= 5 EnMin= -270.202016228619     IErMin= 5 ErrMin= 4.91D-04
 ErrMax= 4.91D-04  0.00D+00 EMaxC= 1.00D-01 BMatC= 6.44D-05 BMatP= 4.40D-04
 IDIUse=3 WtCom= 9.95D-01 WtEn= 4.91D-03
 Coeff-Com: -0.191D-01 0.171D+00 0.276D-01 0.365D+00 0.456D+00
 Coeff-En:   0.000D+00 0.000D+00 0.000D+00 0.157D+00 0.843D+00
 Coeff:     -0.190D-01 0.170D+00 0.274D-01 0.364D+00 0.458D+00
 Gap=     0.042 Goal=   None    Shift=    0.000
 RMSDP=2.22D-04 MaxDP=5.54D-03 DE=-4.38D-04 OVMax= 6.43D-03

 Cycle   6  Pass 1  IDiag  1:
[...]
 ! D8    D(2,1,12,13)           50.2062         -DE/DX =    0.0                 !
 ! D9    D(2,1,12,14)          -65.495          -DE/DX =    0.0                 !
 ! D10   D(3,1,12,10)           48.3226         -DE/DX =    0.0                 !
 ! D11   D(3,1,12,13)          -71.1307         -DE/DX =    0.0                 !
 ! D12   D(3,1,12,14)          173.1681         -DE/DX =    0.0                 !
 ! D13   D(4,1,12,10)          -64.7396         -DE/DX =    0.0                 !
 ! D14   D(4,1,12,13)          175.8071         -DE/DX =    0.0                 !
 ! D15   D(4,1,12,14)           60.1058         -DE/DX =    0.0                 !
 ! D16   D(1,4,6,7)             -2.3972         -DE/DX =    0.0                 !
 ! D17   D(1,4,6,9)            -40.3046         -DE/DX =    0.0                 !
 ! D18   D(5,4,6,7)           -178.0249         -DE/DX =    0.0                 !
 ! D19   D(5,4,6,9)            144.0678         -DE/DX =    0.0                 !
 ! D20   D(4,6,7,8)            118.2747         -DE/DX =    0.0                 !
 ! D21   D(4,6,7,10)            -6.412          -DE/DX =    0.0                 !
 ! D22   D(6,7,10,11)         -153.5407         -DE/DX =    0.0                 !
 ! D23   D(6,7,10,12)          -23.7475         -DE/DX =    0.0                 !
 ! D24   D(8,7,10,11)           88.6117         -DE/DX =    0.0                 !
 ! D25   D(8,7,10,12)         -141.595          -DE/DX =    0.0                 !
 ! D26   D(9,7,10,11)          -38.2717         -DE/DX =    0.0                 !
 ! D27   D(9,7,10,12)           91.5215         -DE/DX =    0.0                 !
 ! D28   D(7,10,12,1)           58.5872         -DE/DX =    0.0                 !
 ! D29   D(7,10,12,13)         176.3085         -DE/DX =    0.0                 !
 ! D30   D(7,10,12,14)         -62.0019         -DE/DX =    0.0                 !
 ! D31   D(11,10,12,1)        -174.1525         -DE/DX =    0.0                 !
 ! D32   D(11,10,12,13)        -56.4312         -DE/DX =    0.0                 !
 ! D33   D(11,10,12,14)         65.2584         -DE/DX =    0.0                 !
 --------------------------------------------------------------------------------
 GradGradGradGradGradGradGradGradGradGradGradGradGradGradGradGradGradGrad

 Leave Link  103 at Tue Oct 15 02:00:18 2019, MaxMem=   280000000 cpu:               3.2 elap:               0.2
 (Enter /home/soft/g16/l9999.exe)

 ----------------------------------------------------------------------

 Electric dipole moment (input orientation):
 (Debye = 10**-18 statcoulomb cm , SI units = C m)
                  (au)            (Debye)         (10**-30 SI)
   Tot        0.114038D+01      0.289855D+01      0.966851D+01
   x         -0.436257D+00     -0.110886D+01     -0.369874D+01
   y          0.104699D+01      0.266119D+01      0.887678D+01
   z         -0.118068D+00     -0.300100D+00     -0.100103D+01

 Dipole polarizability, Alpha (input orientation).
 (esu units = cm**3 , SI units = C**2 m**2 J**-1)
 Alpha(0;0):
               (au)            (10**-24 esu)      (10**-40 SI)
   iso        0.887402D+02      0.131499D+02      0.146313D+02
   aniso      0.543785D+02      0.805806D+01      0.896580D+01
   xx         0.794164D+02      0.117683D+02      0.130940D+02
   yx        -0.182400D+02     -0.270289D+01     -0.300737D+01
   yy         0.116639D+03      0.172842D+02      0.192312D+02
   zx        -0.463670D+00     -0.687088D-01     -0.764488D-01
   zy        -0.689899D+01     -0.102232D+01     -0.113749D+01
   zz         0.701650D+02      0.103974D+02      0.115687D+02

 ----------------------------------------------------------------------

 Dipole orientation:
     6         -7.21461771          1.22294489         -0.02084675
     1         -8.75509936          0.73211265          1.26924293
     1         -7.64689834          3.04418663         -1.03303128
     6         -4.85623644          1.61247992          1.35955271
     1         -4.71081676          1.93430293          3.38768055
     8         -2.71445116          1.78331139          0.21402527
     6         -2.42447456          1.49233293         -2.63880781
     1         -1.67894621          3.33288577         -3.23385480
     1         -0.83593190          0.12660779         -2.72728164
     6         -4.87083526          0.70361256         -3.89609762
     1         -4.44870502         -0.31559346         -5.64684294
     6         -6.69030164         -0.62966937         -2.16780039
     1         -8.47174216         -1.04998252         -3.13131634
     1         -6.00075349         -2.46802851         -1.34427646

 Electric dipole moment (dipole orientation):
 (Debye = 10**-18 statcoulomb cm , SI units = C m)
                  (au)            (Debye)         (10**-30 SI)
   Tot        0.114038D+01      0.289855D+01      0.966851D+01
   x          0.000000D+00      0.000000D+00      0.000000D+00
   y          0.000000D+00      0.000000D+00      0.000000D+00
   z          0.114038D+01      0.289855D+01      0.966851D+01

 Dipole polarizability, Alpha (dipole orientation).
 (esu units = cm**3 , SI units = C**2 m**2 J**-1)
 Alpha(0;0):
               (au)            (10**-24 esu)      (10**-40 SI)
   iso        0.887402D+02      0.131499D+02      0.146313D+02
   aniso      0.543785D+02      0.805806D+01      0.896580D+01
   xx         0.737500D+02      0.109286D+02      0.121597D+02
   yx         0.124231D+01      0.184092D+00      0.204830D+00
   yy         0.676895D+02      0.100305D+02      0.111605D+02
   zx         0.830219D+00      0.123026D+00      0.136885D+00
   zy         0.200833D+00      0.297604D-01      0.331129D-01
   zz         0.124781D+03      0.184907D+02      0.205737D+02

 ----------------------------------------------------------------------
 1\1\GINC-NODE03\Freq\RB3LYP\6-31+G(d)\C5H8O1\ROOT\15-Oct-2019\0\\#P Ge
 om=AllCheck Guess=TCheck SCRF=Check GenChk RB3LYP/6-31+G(d) Freq\\Titl
 e Card Required\\0,1\C,-3.5132535086,-1.3780765573,0.8675070323\H,-4.3
 988296275,-0.9494111665,1.347148285\H,-3.8135055751,-2.1702424687,0.12
 56333506\C,-2.7758149939,-0.3588860692,0.1251936445\H,-3.1738443913,0.
 6107437872,-0.1717185723\O,-1.589610433,-0.5760527494,-0.3286250992\C,
 -0.8299765565,-1.8768841184,-0.0896559439\H,-0.6773136696,-2.270427025
 5,-1.1022014931\H,0.1470949433,-1.48164827,0.2571371449\C,-1.565487078
 4,-2.8011954496,0.8576650331\H,-0.8456497235,-3.4533212834,1.363304949
 8\C,-2.5259380204,-2.1013390033,1.7790748439\H,-3.0777715591,-2.816971
 5418,2.3967055209\H,-2.0665251065,-1.3553634641,2.4875201136\\Version=
 ES64L-G16RevA.03\State=1-A\HF=-270.4035614\RMSD=7.224e-10\RMSF=4.683e-
 05\ZeroPoint=0.1165617\Thermal=0.1217221\Dipole=-0.4362573,1.0469937,-
 0.1180685\DipoleDeriv=0.1246339,-0.2649275,0.0446302,-0.0992152,0.1229
 576,0.2486457,-0.0204141,0.2577969,-0.0313861,-0.0355266,0.0403309,0.0
 43671,0.0923187,0.1072943,-0.0523287,0.1058579,-0.0362862,0.031097,0.0
 363492,0.0718917,-0.0495488,-0.2658703,0.2090012,-0.172627,-0.0806258,
 0.0002195,-0.0887551,0.315328,1.1957011,-0.8555703,0.4168934,-0.563823
 6,0.0140728,-0.0022878,-0.9219628,0.5417253,0.0116803,0.0900647,0.0177
 307,-0.0020964,0.1015772,0.0476063,-0.0147712,0.1245336,0.0826885,-0.4
 152058,-1.2543306,0.8057616,0.0642707,0.2197319,-0.138895,0.0677501,0.
 4993293,-0.4673944,0.860169,0.3192113,-0.1427901,0.1755716,0.0625481,0
 .1626687,-0.3745515,0.5273586,0.2917874,-0.0318244,-0.0615679,0.064068
 ,-0.0270298,0.1810151,-0.069021,0.1414874,-0.0938277,-0.1780652,-0.414
 5098,-0.110936,0.0273353,-0.3172192,0.1375143,-0.0689971,-0.0300392,-0
 .14334,0.0229916,-0.1797775,-0.4571201,0.2404295,-0.0484048,-1.0312794
 ,-0.0285617,0.3000354,-0.7287124,-0.2427697,-0.1184338,0.2702791,-0.05
 92408,0.0479033,0.2471895,0.045011,-0.0949052,0.2476726,-0.0047862,-0.
 2107795,0.4901774,-0.1485562,0.0667502,0.2904609,0.3768055,0.0444702,0
 .3666268,0.3362122,0.0282916,-0.0694464,0.0529858,-0.0583054,0.0259372
 ,0.0644952,0.0507865,0.0110483,-0.0094004,0.0296056,-0.2593277,-0.0409
 057,-0.0455669,-0.1101242,-0.4288747,-0.0927926,-0.1104566,-0.2839449\
 Polar=79.4164251,-18.2400248,116.6392695,-0.4636699,-6.898989,70.16504
 8\Quadrupole=2.7941951,-2.7832695,-0.0109256,-2.2535744,-0.2643232,-1.
 1840165\PG=C01 [X(C5H8O1)]\NImag=1\\0.56074577,-0.04783478,0.46290719,
 -0.09335435,-0.00209921,0.47773248,-0.22139432,0.08288932,0.09697556,0
 .23912937,0.08991764,-0.08609209,-0.04501408,-0.09179652,0.09286102,0.
 09574911,-0.03996543,-0.10393205,-0.10708604,0.04616589,0.10745584,-0.
 05767632,-0.05032574,-0.03234701,0.00876230,0.01609739,0.01509370,0.06
 200556,-0.03803386,-0.12163509,-0.09640805,-0.00216016,-0.00579327,-0.
 00456594,0.05397901,0.15112502,-0.02319952,-0.08050516,-0.12216025,-0.
 00435600,-0.00823032,-0.00816168,0.04507729,0.09954963,0.14422301,-0.1
 0852042,-0.04165770,0.05168360,-0.01500327,-0.02697783,0.01085796,-0.0
 0871188,-0.02503326,-0.00304113,0.60657551,-0.04927634,-0.16057570,0.0
 7990472,0.00709280,0.01316312,-0.01423457,-0.00576044,-0.02923428,0.00
 628636,-0.09657145,0.60717439,0.04599510,0.05774548,-0.11678781,0.0052
 8856,0.01351793,-0.00936211,-0.01096379,-0.00435139,0.01713000,-0.1448
 1137,-0.18004829,0.27461167,0.01465093,-0.00965986,0.00728702,0.000411
 25,-0.00001495,-0.00046332,-0.00039575,-0.00087392,-0.00152866,-0.0825
 6060,0.07922091,-0.01867046,0.09786417,0.01354706,-0.00538389,0.005645
 71,-0.00063956,0.00005514,-0.00003273,-0.00078826,-0.00104611,-0.00100
 899,0.08101995,-0.28173555,0.08290717,-0.10288757,0.28886970,0.0003679
 9,0.01265758,0.00753300,-0.00078831,-0.00175185,0.00025555,0.00025072,
 0.00122627,-0.00383885,-0.02726647,0.08763086,-0.06289275,0.01341697,-
 0.08607809,0.05148313,-0.04770510,-0.00225269,0.02805971,-0.00023692,0
 .00012867,0.00410612,0.00488408,0.01336462,0.00434056,-0.35560945,0.03
 426114,0.11583542,-0.02693412,0.01488708,0.01251802,0.49704352,-0.0205
 7455,0.01615922,0.00619199,-0.00263196,-0.00521747,0.00430622,-0.00129
 725,-0.00085547,-0.00164924,0.05834572,-0.10878781,0.01593069,0.038610
 77,-0.00384282,-0.01691557,-0.10187914,0.22642892,0.02775839,0.0052119
 1,0.00275017,0.00274171,0.00229791,0.00102249,0.00261183,-0.00021763,-
 0.00360356,0.12829376,0.01790184,-0.09430538,-0.00537251,-0.00497288,0
 .00253952,-0.16680925,-0.03187355,0.14418170,0.00383911,0.00132604,-0.
 00360122,0.00099333,-0.00051816,-0.00103461,-0.00170639,-0.00238392,0.
 00009309,-0.04078657,0.03085279,0.00423212,0.00103134,-0.00151830,0.00
 255852,-0.05517444,-0.01322797,0.00754873,0.46706184,-0.00953550,-0.00
 209305,0.00236844,0.00006739,0.00020641,0.00095358,0.00025654,0.005135
 17,0.00322548,0.05329739,-0.01201079,-0.02766656,-0.00360661,0.0063351
 9,0.00440314,-0.03464932,-0.06864666,0.01309554,0.08161790,0.33319053,
 0.00261526,-0.00109522,-0.00851098,0.00028367,-0.00083670,-0.00030962,
 -0.00246762,-0.00611840,0.00046318,-0.03116171,-0.00096830,0.01954548,
 0.00425062,0.00039971,0.00447244,0.04374763,-0.00460246,-0.07220177,-0
 .03158002,0.08225762,0.54372064,-0.00057770,0.00017584,0.00000261,-0.0
 0011878,0.00017127,-0.00002931,-0.00000667,-0.00036117,0.00017488,0.00
 180216,0.00148911,-0.00037961,0.00000915,0.00050295,0.00102299,-0.0102
 2966,0.01858724,0.01442113,-0.05175438,0.00625833,0.01680343,0.0602545
 0,0.00213471,-0.00019207,-0.00009119,0.00009587,-0.00036865,-0.0000349
 2,-0.00037127,-0.00085836,-0.00047645,-0.00996708,-0.00027604,0.003157
 76,0.00008964,-0.00072782,-0.00123080,0.02481330,-0.02455210,-0.019470
 65,0.00541902,-0.07815667,-0.08177207,-0.00960414,0.09290859,-0.001029
 65,-0.00103432,-0.00003831,0.00000419,-0.00003700,-0.00006425,-0.00016
 265,0.00110596,0.00074610,0.00328470,-0.00076640,-0.00426443,-0.000139
 13,0.00017728,0.00007748,-0.00460354,0.00657921,0.01514873,0.02212537,
 -0.09375704,-0.26626752,-0.02813569,0.09111086,0.28250150,0.00154659,0
 .00112787,0.00090690,0.00008246,-0.00006272,0.00008105,0.00011693,-0.0
 0132413,-0.00025289,-0.00531815,0.00209754,-0.00091503,-0.00159344,-0.
 00065215,-0.00151045,-0.01496280,0.01050132,-0.00243958,-0.20683374,-0
 .06411493,-0.06859333,0.00357787,-0.00431260,-0.00176050,0.23511179,0.
 00229800,-0.00016704,-0.00073352,0.00019517,-0.00047867,-0.00005314,-0
 .00066772,-0.00249239,-0.00044571,-0.01160817,0.00282869,0.01001139,0.
 00122527,-0.00083211,-0.00007449,0.05271600,-0.00605305,0.00465482,-0.
 08279967,-0.07387962,-0.03936820,-0.01541888,-0.00038814,-0.00842494,0
 .07096946,0.08604073,-0.00116999,-0.00101267,0.00032147,-0.00014276,0.
 00020379,-0.00004447,0.00017494,0.00084953,0.00015662,0.00577099,-0.00
 252383,-0.00523867,0.00010144,0.00047146,0.00044393,-0.00839091,0.0044
 9262,0.00697087,-0.05772702,-0.02601515,-0.08363891,-0.02711335,-0.012
 57539,-0.01346437,0.07022120,0.02861135,0.08137643,-0.02276806,0.02639
 262,0.01304814,-0.00228730,0.00466762,-0.00171953,0.00482548,-0.000745
 56,0.00151971,0.01556178,-0.01206114,-0.00491774,-0.00014904,0.0009699
 1,-0.00023990,-0.00531264,0.02337929,-0.01007286,-0.11091303,-0.032931
 03,0.04509325,-0.00361194,-0.00621569,0.01077434,-0.01415835,-0.012860
 87,0.01882455,0.41505980,0.01527457,-0.00726904,-0.01375801,0.00123579
 ,-0.00211429,0.00000291,-0.00073090,0.00050033,0.00207933,0.01132068,-
 0.01783256,-0.00584663,0.00132385,0.00225711,0.00097732,-0.01290296,-0
 .01606895,0.01731553,-0.01478916,-0.10934190,0.03371053,-0.00280364,0.
 01618113,0.00262152,-0.01534297,-0.00432379,0.00532663,-0.15802258,0.3
 5377972,-0.01421761,0.01857070,0.00923639,-0.00449546,0.00470396,-0.00
 397249,0.00546635,0.00220568,0.00139186,0.01751938,-0.01468849,-0.0116
 0619,0.00036853,0.00217723,0.00152672,-0.03570432,0.02152808,0.0009221
 2,0.06562856,0.04180105,-0.10168582,0.01752436,0.01801204,-0.01129471,
 0.00409768,0.00692334,0.00826189,-0.07032314,-0.11662865,0.34768936,-0
 .00097010,0.00201803,0.00828733,-0.00083264,0.00144545,-0.00038573,0.0
 0027488,-0.00003545,-0.00078296,-0.00449157,0.00200907,0.00228564,-0.0
 0041811,-0.00097247,-0.00201817,0.00598728,-0.00779179,0.00305108,0.00
 458429,-0.00876244,0.00520956,0.00081207,0.00007725,0.00064698,0.00258
 086,0.00075331,0.00019879,-0.15776057,0.12492870,-0.07607336,0.1642604
 5,0.00621966,-0.00118186,0.00382804,0.00039594,-0.00043480,0.00148362,
 -0.00001160,-0.00066035,-0.00242280,-0.00597919,0.00632680,0.00233200,
 -0.00141493,-0.00189052,-0.00323484,0.00592411,-0.00638906,0.00448764,
 0.01165592,-0.01014945,0.00760759,0.00142745,-0.00321827,0.00118703,0.
 00003964,0.00250496,-0.00070794,0.10125507,-0.11762920,0.07402666,-0.1
 2325174,0.13686867,0.00533520,-0.00229054,0.00193840,0.00101275,-0.000
 52077,0.00142656,0.00035913,0.00003683,-0.00134188,0.00025578,0.002155
 57,-0.00006538,-0.00140965,-0.00122900,-0.00219579,0.00303279,0.002539
 21,-0.00060445,-0.01824787,0.00882485,-0.00865366,0.00312118,-0.002033
 07,-0.00041199,0.00070575,0.00238116,0.00168804,-0.07912980,0.09747468
 ,-0.10630992,0.07428753,-0.09536494,0.10179681,-0.12054223,0.03225276,
 -0.04666584,-0.01007181,0.00697090,-0.01616009,-0.01278595,0.00080977,
 -0.01568434,-0.00148860,0.01212050,0.01551225,-0.00320956,-0.00544025,
 0.00145105,0.01334857,-0.00729557,-0.00715850,-0.01160086,0.01137385,0
 .01050940,0.00093865,-0.00181622,-0.00068757,0.00028314,-0.00547701,0.
 00138274,-0.11837221,0.05529452,0.06872360,-0.01598350,0.00341399,0.01
 113459,0.47626876,0.03452618,-0.09160680,0.03951316,0.00616657,-0.0059
 4449,0.00699081,-0.01292070,0.00832205,-0.01713905,0.02033712,-0.02395
 741,0.03243153,-0.00147976,-0.00133070,0.00182932,-0.00188434,-0.00053
 363,-0.00869338,-0.01897975,0.00946178,0.01309372,-0.00114086,-0.00011
 885,0.00157618,-0.00100602,-0.00326338,0.00400398,0.05363576,-0.095426
 24,-0.02866262,0.01017482,-0.00448678,-0.01277316,0.05383738,0.4871991
 1,-0.04561466,0.03197153,-0.12474950,0.01074244,-0.01011203,0.01433463
 ,-0.02084331,0.00826226,-0.02110079,-0.00427428,0.01869446,-0.00769811
 ,0.00164691,0.00121146,0.00137981,0.00085531,-0.00640374,-0.00230293,0
 .00831005,-0.00572207,-0.02581495,0.00184910,0.00495453,-0.00253553,-0
 .00169819,-0.00407515,0.00367249,0.06580266,-0.01597054,-0.10472082,-0
 .01449389,0.00678744,0.01119100,-0.03675539,-0.06642906,0.49851823,0.0
 0901563,0.01923819,-0.02013356,0.00091957,-0.00008134,0.00057596,0.001
 55436,0.00024464,0.00204882,-0.00646398,-0.00027807,-0.00276146,0.0013
 6202,0.00161716,0.00106455,0.00173899,0.00006845,-0.00013444,-0.003069
 14,0.00328926,0.00246282,-0.00015348,-0.00075145,0.00030074,0.00007051
 ,-0.00024609,-0.00016193,-0.01057432,-0.01366887,0.01254971,0.00097390
 ,0.00047543,-0.00029615,-0.11194727,-0.09435939,0.07784484,0.12464765,
 -0.00612500,-0.01282842,0.01184160,-0.00014713,0.00000826,-0.00029903,
 -0.00010242,0.00054284,-0.00141291,0.00264953,0.00112001,0.00103832,-0
 .00077640,-0.00083327,-0.00029890,0.00060617,0.00003764,0.00022344,0.0
 0365931,-0.00083843,-0.00210298,0.00008924,0.00007143,0.00003266,0.000
 24415,0.00042649,-0.00027155,0.00868698,0.01031203,-0.01170834,-0.0012
 4865,-0.00027471,0.00004063,-0.09283101,-0.15906368,0.10065579,0.09605
 827,0.17504191,0.00832226,0.01521935,-0.01300869,-0.00009335,-0.000092
 30,0.00083475,0.00167188,-0.00041197,0.00075215,-0.00414103,-0.0009633
 4,-0.00300808,0.00090940,0.00091027,0.00025833,-0.00137344,0.00079242,
 0.00172985,0.00267414,-0.00338840,-0.00078981,0.00012097,0.00049535,-0
 .00022780,0.00009730,0.00054386,-0.00050882,0.00898799,0.00930516,-0.0
 1268557,-0.00056458,-0.00017510,0.00092889,0.07486864,0.09832598,-0.12
 494017,-0.08075182,-0.10670249,0.13978025,-0.00964376,-0.01368991,-0.0
 1014889,-0.00035324,0.00005255,0.00041473,-0.00114063,0.00255339,-0.00
 440885,0.00501502,-0.00519642,-0.00572962,-0.00006822,0.00035444,-0.00
 082752,-0.00683732,0.00520545,0.00556050,0.00432866,-0.00256083,0.0028
 2705,-0.00094178,0.00040867,-0.00061760,-0.00050368,0.00092119,-0.0019
 6870,0.01046040,0.00888295,0.00893571,0.00098276,-0.00014974,-0.000161
 23,-0.08483713,-0.04690703,-0.04337159,-0.00807444,-0.01076304,-0.0107
 2836,0.09161336,0.00746220,0.00995865,0.00881039,-0.00076353,0.0001497
 6,-0.00071727,0.00264337,-0.00305009,0.00214983,-0.00917571,0.00379712
 ,-0.00115940,0.00024356,0.00010565,0.00086006,0.00686737,-0.00167878,0
 .00003947,-0.00031407,0.00078747,-0.00020484,0.00062726,-0.00030418,-0
 .00037099,0.00183554,0.00007733,-0.00085284,0.00384961,-0.01302435,-0.
 01826062,0.00065591,0.00061458,0.00075855,-0.06321361,-0.11925098,-0.0
 6382486,-0.01160620,-0.01372208,-0.01385879,0.06088831,0.13553991,-0.0
 0755753,-0.01337399,-0.01032434,-0.00008698,-0.00029443,0.00051685,-0.
 00392148,-0.00116277,-0.00465591,-0.00297017,0.00161941,0.00394178,-0.
 00039718,-0.00057860,-0.00104251,0.00438590,-0.00091588,-0.00224736,-0
 .00097986,-0.00038048,-0.00032871,0.00061731,-0.00004601,0.00009511,0.
 00106011,0.00004923,0.00000350,0.00235234,-0.01660977,-0.01675282,0.00
 035177,0.00016561,0.00061337,-0.06047054,-0.06406741,-0.11523335,0.007
 39193,0.00896377,0.01088473,0.06022438,0.08663132,0.13452967\\0.000005
 89,0.00000725,-0.00002057,-0.00000677,0.00000102,0.00000579,0.00001215
 ,0.00000745,-0.00001885,0.00001019,0.00004451,0.00008541,0.00000450,-0
 .00000726,-0.00002379,-0.00005607,0.00001626,-0.00004331,0.00010212,-0
 .00007287,-0.00000363,-0.00000279,0.00002017,-0.00002534,-0.00002716,-
 0.00001215,-0.00000872,-0.00009392,0.00011341,0.00011017,0.00001129,0.
 00000998,0.00000832,0.00006227,-0.00011737,-0.00005674,-0.00000287,0.0
 0001284,0.00002566,-0.00001883,-0.00002325,-0.00003439\\\@


 KNOWING HOW CONTENTED, FREE, AND JOYFUL IS LIFE IN
 THE REALMS OF SCIENCE, ONE FERVENTLY WISHES THAT
 MANY WOULD ENTER HER PORTALS.
   --  DMITRI IVANOVICH MENDELEEV
 "FIRST PRINCIPLES OF CHEMISTRY", LONGMANS, GREEN,
 AND CO.  LONDON, 1891
 Job cpu time:       0 days  0 hours  9 minutes 30.9 seconds.
 Elapsed time:       0 days  0 hours  0 minutes 24.5 seconds.
 File lengths (MBytes):  RWF=    332 Int=      0 D2E=      0 Chk=      8 Scr=      8
 Normal termination of Gaussian 16 at Tue Oct 15 02:00:18 2019.
