 Entering Gaussian System, Link 0=g16
 Input=ts3.gjf
 Output=ts3.log
 Initial command:
 /home/soft/g16/l1.exe "/tmp/gaussian/Gau-186876.inp" -scrdir="/tmp/gaussian/"
 Entering Link 1 = /home/soft/g16/l1.exe PID=    186877.
  
 Copyright (c) 1988,1990,1992,1993,1995,1998,2003,2009,2016,
            Gaussian, Inc.  All Rights Reserved.
  
 This is part of the Gaussian(R) 16 program.  It is based on
 the Gaussian(R) 09 system (copyright 2009, Gaussian, Inc.),
 the Gaussian(R) 03 system (copyright 2003, Gaussian, Inc.),
 the Gaussian(R) 98 system (copyright 1998, Gaussian, Inc.),
 the Gaussian(R) 94 system (copyright 1995, Gaussian, Inc.),
 the Gaussian 92(TM) system (copyright 1992, Gaussian, Inc.),
 the Gaussian 90(TM) system (copyright 1990, Gaussian, Inc.),
 the Gaussian 88(TM) system (copyright 1988, Gaussian, Inc.),
 the Gaussian 86(TM) system (copyright 1986, Carnegie Mellon
 University), and the Gaussian 82(TM) system (copyright 1983,
 Carnegie Mellon University). Gaussian is a federally registered
 trademark of Gaussian, Inc.
  
 This software contains proprietary and confidential information,
 including trade secrets, belonging to Gaussian, Inc.
  
 This software is provided under written license and may be
 used, copied, transmitted, or stored only in accord with that
 written license.
  
 The following legend is applicable only to US Government
 contracts under FAR:
  
                    RESTRICTED RIGHTS LEGEND
  
 Use, reproduction and disclosure by the US Government is
 subject to restrictions as set forth in subparagraphs (a)
 and (c) of the Commercial Computer Software - Restricted
 Rights clause in FAR 52.227-19.
  
 Gaussian, Inc.
 340 Quinnipiac St., Bldg. 40, Wallingford CT 06492
  
  
 ---------------------------------------------------------------
 Warning -- This program may not be used in any manner that
 competes with the business of Gaussian, Inc. or will provide
 assistance to any competitor of Gaussian, Inc.  The licensee
 of this program is prohibited from giving any competitor of
 Gaussian, Inc. access to this program.  By using this program,
 the user acknowledges that Gaussian, Inc. is engaged in the
 business of creating and licensing software in the field of
 computational chemistry and represents and warrants to the
 licensee that it is not a competitor of Gaussian, Inc. and that
 it will not use this program in any manner prohibited above.
 ---------------------------------------------------------------
  

 Cite this work as:
 Gaussian 16, Revision A.03,
 M. J. Frisch, G. W. Trucks, H. B. Schlegel, G. E. Scuseria, 
 M. A. Robb, J. R. Cheeseman, G. Scalmani, V. Barone, 
 G. A. Petersson, H. Nakatsuji, X. Li, M. Caricato, A. V. Marenich, 
 J. Bloino, B. G. Janesko, R. Gomperts, B. Mennucci, H. P. Hratchian, 
 J. V. Ortiz, A. F. Izmaylov, J. L. Sonnenberg, D. Williams-Young, 
 F. Ding, F. Lipparini, F. Egidi, J. Goings, B. Peng, A. Petrone, 
 T. Henderson, D. Ranasinghe, V. G. Zakrzewski, J. Gao, N. Rega, 
 G. Zheng, W. Liang, M. Hada, M. Ehara, K. Toyota, R. Fukuda, 
 J. Hasegawa, M. Ishida, T. Nakajima, Y. Honda, O. Kitao, H. Nakai, 
 T. Vreven, K. Throssell, J. A. Montgomery, Jr., J. E. Peralta, 
 F. Ogliaro, M. J. Bearpark, J. J. Heyd, E. N. Brothers, K. N. Kudin, 
 V. N. Staroverov, T. A. Keith, R. Kobayashi, J. Normand, 
 K. Raghavachari, A. P. Rendell, J. C. Burant, S. S. Iyengar, 
 J. Tomasi, M. Cossi, J. M. Millam, M. Klene, C. Adamo, R. Cammi, 
 J. W. Ochterski, R. L. Martin, K. Morokuma, O. Farkas, 
 J. B. Foresman, and D. J. Fox, Gaussian, Inc., Wallingford CT, 2016.
 
 ******************************************
 Gaussian 16:  ES64L-G16RevA.03 25-Dec-2016
                15-Oct-2019 
 ******************************************
 %chk=ts3.chk
 %nprocshared=24
 Will use up to   24 processors via shared memory.
 --------------------------------------------------------
 #p opt=(calcfc,ts,noeigen,recalc=5) freq b3lyp/6-31+g(d)
 --------------------------------------------------------
 1/5=1,10=4,11=1,18=20,26=3,38=1,71=5/1,3;
 2/9=110,12=2,17=6,18=5,40=1/2;
 3/5=1,6=6,7=11,11=2,25=1,30=1,71=2,74=-5,140=1/1,2,3;
 4//1;
 5/5=2,38=5/2;
 8/6=4,10=90,11=11/1;
 11/6=1,8=1,9=11,15=111,16=1/1,2,10;
 10/6=1,13=1/2;
 6/7=2,8=2,9=2,10=2,28=1/1;
 7/10=1,18=20,25=1/1,2,3,16;
 1/5=1,10=4,11=1,18=20,26=3,71=5/3(2);
 2/9=110/2;
 99//99;
 2/9=110/2;
 3/5=1,6=6,7=11,11=2,25=1,30=1,71=1,74=-5/1,2,3;
 4/5=5,16=3,69=1/1;
 5/5=2,38=5/2;
 7//1,2,3,16;
 1/5=1,11=1,18=20,26=3,71=5/3(-5);
 2/9=110/2;
 6/7=2,8=2,9=2,10=2,19=2,28=1/1;
 99/9=1/99;
 Leave Link    1 at Tue Oct 15 02:14:46 2019, MaxMem=           0 cpu:               2.8 elap:               0.1
 (Enter /home/soft/g16/l101.exe)
 -------------------
 Title Card Required
 -------------------
 Symbolic Z-matrix:
 Charge =  0 Multiplicity = 1
 C                    -1.43283   0.15712  -0.35235 
 H                    -2.49819   0.32204  -0.16294 
 H                    -1.25195  -0.01829  -1.44988 
 C                    -0.64713   1.32911   0.02543 
 H                    -1.05072   2.32757   0.1896 
 O                     0.63819   1.28674   0.10505 
 C                     1.52968  -0.14506  -0.04105 
 H                     2.15644   0.10839  -0.90498 
 H                     2.18715  -0.13506   0.85269 
 C                     0.64369  -1.35971  -0.22096 
 H                     1.19133  -2.25861   0.08099 
 C                    -0.72013  -1.2242    0.39782 
 H                    -1.34225  -2.09933   0.18515 
 H                    -0.73695  -1.08417   1.51565 
 
 ITRead=  0  0  0  0  0  0  0  0  0  0  0  0  0  0
 MicOpt= -1 -1 -1 -1 -1 -1 -1 -1 -1 -1 -1 -1 -1 -1
 NAtoms=     14 NQM=       14 NQMF=       0 NMMI=      0 NMMIF=      0
                NMic=       0 NMicF=      0.
                    Isotopes and Nuclear Properties:
 (Nuclear quadrupole moments (NQMom) in fm**2, nuclear magnetic moments (NMagM)
  in nuclear magnetons)

  Atom         1           2           3           4           5           6           7           8           9          10
 IAtWgt=          12           1           1          12           1          16          12           1           1          12
 AtmWgt=  12.0000000   1.0078250   1.0078250  12.0000000   1.0078250  15.9949146  12.0000000   1.0078250   1.0078250  12.0000000
 NucSpn=           0           1           1           0           1           0           0           1           1           0
 AtZEff=  -0.0000000  -0.0000000  -0.0000000  -0.0000000  -0.0000000  -0.0000000  -0.0000000  -0.0000000  -0.0000000  -0.0000000
 NQMom=    0.0000000   0.0000000   0.0000000   0.0000000   0.0000000   0.0000000   0.0000000   0.0000000   0.0000000   0.0000000
 NMagM=    0.0000000   2.7928460   2.7928460   0.0000000   2.7928460   0.0000000   0.0000000   2.7928460   2.7928460   0.0000000
 AtZNuc=   6.0000000   1.0000000   1.0000000   6.0000000   1.0000000   8.0000000   6.0000000   1.0000000   1.0000000   6.0000000

  Atom        11          12          13          14
 IAtWgt=           1          12           1           1
 AtmWgt=   1.0078250  12.0000000   1.0078250   1.0078250
 NucSpn=           1           0           1           1
 AtZEff=  -0.0000000  -0.0000000  -0.0000000  -0.0000000
 NQMom=    0.0000000   0.0000000   0.0000000   0.0000000
 NMagM=    2.7928460   0.0000000   2.7928460   2.7928460
 AtZNuc=   1.0000000   6.0000000   1.0000000   1.0000000
 Leave Link  101 at Tue Oct 15 02:14:47 2019, MaxMem=   280000000 cpu:               4.3 elap:               0.2
 (Enter /home/soft/g16/l103.exe)

 GradGradGradGradGradGradGradGradGradGradGradGradGradGradGradGradGradGrad
 Berny optimization.
 Initialization pass.
                           ----------------------------
                           !    Initial Parameters    !
                           ! (Angstroms and Degrees)  !
 --------------------------                            --------------------------
 ! Name  Definition              Value          Derivative Info.                !
 --------------------------------------------------------------------------------
 ! R1    R(1,2)                  1.0946         calculate D2E/DX2 analytically  !
 ! R2    R(1,3)                  1.1261         calculate D2E/DX2 analytically  !
 ! R3    R(1,4)                  1.4607         calculate D2E/DX2 analytically  !
 ! R4    R(1,12)                 1.7259         calculate D2E/DX2 analytically  !
 ! R5    R(4,5)                  1.0894         calculate D2E/DX2 analytically  !
 ! R6    R(4,6)                  1.2885         calculate D2E/DX2 analytically  !
 ! R7    R(7,8)                  1.097          calculate D2E/DX2 analytically  !
 ! R8    R(7,9)                  1.1096         calculate D2E/DX2 analytically  !
 ! R9    R(7,10)                 1.5142         calculate D2E/DX2 analytically  !
 ! R10   R(10,11)                1.095          calculate D2E/DX2 analytically  !
 ! R11   R(10,12)                1.5037         calculate D2E/DX2 analytically  !
 ! R12   R(12,13)                1.0946         calculate D2E/DX2 analytically  !
 ! R13   R(12,14)                1.1267         calculate D2E/DX2 analytically  !
 ! A1    A(2,1,3)              110.3939         calculate D2E/DX2 analytically  !
 ! A2    A(2,1,4)              110.9713         calculate D2E/DX2 analytically  !
 ! A3    A(2,1,12)             116.5707         calculate D2E/DX2 analytically  !
 ! A4    A(3,1,4)              106.8972         calculate D2E/DX2 analytically  !
 ! A5    A(3,1,12)             103.452          calculate D2E/DX2 analytically  !
 ! A6    A(4,1,12)             107.9163         calculate D2E/DX2 analytically  !
 ! A7    A(1,4,5)              125.1061         calculate D2E/DX2 analytically  !
 ! A8    A(1,4,6)              121.7473         calculate D2E/DX2 analytically  !
 ! A9    A(5,4,6)              112.9786         calculate D2E/DX2 analytically  !
 ! A10   A(8,7,9)              107.081          calculate D2E/DX2 analytically  !
 ! A11   A(8,7,10)             115.2185         calculate D2E/DX2 analytically  !
 ! A12   A(9,7,10)             116.7209         calculate D2E/DX2 analytically  !
 ! A13   A(7,10,11)            109.4576         calculate D2E/DX2 analytically  !
 ! A14   A(7,10,12)            114.1734         calculate D2E/DX2 analytically  !
 ! A15   A(11,10,12)           114.4618         calculate D2E/DX2 analytically  !
 ! A16   A(1,12,10)            105.5326         calculate D2E/DX2 analytically  !
 ! A17   A(1,12,13)            108.7078         calculate D2E/DX2 analytically  !
 ! A18   A(1,12,14)            109.0022         calculate D2E/DX2 analytically  !
 ! A19   A(10,12,13)           111.3133         calculate D2E/DX2 analytically  !
 ! A20   A(10,12,14)           115.6576         calculate D2E/DX2 analytically  !
 ! A21   A(13,12,14)           106.4777         calculate D2E/DX2 analytically  !
 ! D1    D(2,1,4,5)            -16.9833         calculate D2E/DX2 analytically  !
 ! D2    D(2,1,4,6)            168.0636         calculate D2E/DX2 analytically  !
 ! D3    D(3,1,4,5)            103.4452         calculate D2E/DX2 analytically  !
 ! D4    D(3,1,4,6)            -71.5079         calculate D2E/DX2 analytically  !
 ! D5    D(12,1,4,5)          -145.8393         calculate D2E/DX2 analytically  !
 ! D6    D(12,1,4,6)            39.2076         calculate D2E/DX2 analytically  !
 ! D7    D(2,1,12,10)          169.6707         calculate D2E/DX2 analytically  !
 ! D8    D(2,1,12,13)           50.1718         calculate D2E/DX2 analytically  !
 ! D9    D(2,1,12,14)          -65.5079         calculate D2E/DX2 analytically  !
 ! D10   D(3,1,12,10)           48.3224         calculate D2E/DX2 analytically  !
 ! D11   D(3,1,12,13)          -71.1765         calculate D2E/DX2 analytically  !
 ! D12   D(3,1,12,14)          173.1438         calculate D2E/DX2 analytically  !
 ! D13   D(4,1,12,10)          -64.7203         calculate D2E/DX2 analytically  !
 ! D14   D(4,1,12,13)          175.7808         calculate D2E/DX2 analytically  !
 ! D15   D(4,1,12,14)           60.1011         calculate D2E/DX2 analytically  !
 ! D16   D(8,7,10,11)           88.5997         calculate D2E/DX2 analytically  !
 ! D17   D(8,7,10,12)         -141.6118         calculate D2E/DX2 analytically  !
 ! D18   D(9,7,10,11)          -38.3109         calculate D2E/DX2 analytically  !
 ! D19   D(9,7,10,12)           91.4776         calculate D2E/DX2 analytically  !
 ! D20   D(7,10,12,1)           58.5653         calculate D2E/DX2 analytically  !
 ! D21   D(7,10,12,13)         176.3259         calculate D2E/DX2 analytically  !
 ! D22   D(7,10,12,14)         -61.9936         calculate D2E/DX2 analytically  !
 ! D23   D(11,10,12,1)        -174.1821         calculate D2E/DX2 analytically  !
 ! D24   D(11,10,12,13)        -56.4215         calculate D2E/DX2 analytically  !
 ! D25   D(11,10,12,14)         65.259          calculate D2E/DX2 analytically  !
 --------------------------------------------------------------------------------
 Trust Radius=3.00D-01 FncErr=1.00D-07 GrdErr=1.00D-06 EigMax=2.50D+02 EigMin=1.00D-04
 Number of steps in this run=     69 maximum allowed number of steps=    100.
 Search for a saddle point of order  1.
 Step   0 in ReCalcFC= 5 IGetFC= 4 compute analytic Hessian.
 GradGradGradGradGradGradGradGradGradGradGradGradGradGradGradGradGradGrad

 Leave Link  103 at Tue Oct 15 02:14:47 2019, MaxMem=   280000000 cpu:               0.6 elap:               0.1
 (Enter /home/soft/g16/l202.exe)
                          Input orientation:                          
 ---------------------------------------------------------------------
 Center     Atomic      Atomic             Coordinates (Angstroms)
 Number     Number       Type             X           Y           Z
 ---------------------------------------------------------------------
      1          6           0       -1.432831    0.157121   -0.352349
      2          1           0       -2.498187    0.322040   -0.162944
      3          1           0       -1.251947   -0.018290   -1.449876
      4          6           0       -0.647134    1.329109    0.025431
      5          1           0       -1.050718    2.327575    0.189603
      6          8           0        0.638191    1.286738    0.105046
      7          6           0        1.529681   -0.145058   -0.041053
      8          1           0        2.156438    0.108394   -0.904979
      9          1           0        2.187150   -0.135065    0.852692
     10          6           0        0.643686   -1.359714   -0.220960
     11          1           0        1.191328   -2.258614    0.080990
     12          6           0       -0.720134   -1.224197    0.397821
     13          1           0       -1.342247   -2.099335    0.185155
     14          1           0       -0.736949   -1.084171    1.515652
 ---------------------------------------------------------------------
                    Distance matrix (angstroms):
                    1          2          3          4          5
     1  C    0.000000
     2  H    1.094557   0.000000
     3  H    1.126079   1.823495   0.000000
     4  C    1.460683   2.115673   2.087538   0.000000
     5  H    2.269492   2.498325   2.869053   1.089388   0.000000
     6  O    2.402993   3.292313   2.773716   1.288485   1.985675
     7  C    2.994111   4.056694   3.120626   2.629851   3.581282
     8  H    3.631891   4.718241   3.453991   3.196221   4.050769
     9  H    3.826456   4.815896   4.140392   3.295654   4.121659
    10  C    2.574874   3.564131   2.627371   2.992774   4.078685
    11  H    3.593017   4.509080   3.651328   4.031722   5.106045
    12  C    1.725900   2.422144   2.269586   2.581351   3.573195
    13  H    2.321359   2.705629   2.648061   3.501845   4.436501
    14  H    2.348294   2.810173   3.193067   2.837735   3.673808
                    6          7          8          9         10
     6  O    0.000000
     7  C    1.692968   0.000000
     8  H    2.171111   1.097010   0.000000
     9  H    2.231540   1.109570   1.774718   0.000000
    10  C    2.666461   1.514181   2.216222   2.243830   0.000000
    11  H    3.588323   2.143944   2.739763   2.469139   1.095037
    12  C    2.869766   2.533539   3.427500   3.137741   1.503749
    13  H    3.923524   3.481140   4.278230   4.093972   2.157753
    14  H    3.082535   2.905663   3.956432   3.144944   2.235598
                   11         12         13         14
    11  H    0.000000
    12  C    2.196381   0.000000
    13  H    2.540713   1.094586   0.000000
    14  H    2.675037   1.126693   1.779653   0.000000
 Stoichiometry    C5H8O
 Framework group  C1[X(C5H8O)]
 Deg. of freedom    36
 Full point group                 C1      NOp   1
 Largest Abelian subgroup         C1      NOp   1
 Largest concise Abelian subgroup C1      NOp   1
                         Standard orientation:                         
 ---------------------------------------------------------------------
 Center     Atomic      Atomic             Coordinates (Angstroms)
 Number     Number       Type             X           Y           Z
 ---------------------------------------------------------------------
      1          6           0        1.096420    0.948276   -0.316983
      2          1           0        1.927834    1.626250   -0.099826
      3          1           0        0.892038    0.919972   -1.423997
      4          6           0        1.415398   -0.417544    0.090915
      5          1           0        2.416856   -0.790491    0.302477
      6          8           0        0.514670   -1.337424    0.142931
      7          6           0       -1.135971   -1.032576   -0.077504
      8          1           0       -1.334414   -1.676522   -0.943174
      9          1           0       -1.609800   -1.514409    0.802536
     10          6           0       -1.427296    0.438416   -0.287391
     11          1           0       -2.472293    0.643339   -0.032254
     12          6           0       -0.434807    1.361719    0.363560
     13          1           0       -0.652090    2.408577    0.129049
     14          1           0       -0.367947    1.292927    1.486161
 ---------------------------------------------------------------------
 Rotational constants (GHZ):           4.7960610           4.3021540           2.4961318
 Leave Link  202 at Tue Oct 15 02:14:47 2019, MaxMem=   280000000 cpu:               0.7 elap:               0.1
 (Enter /home/soft/g16/l301.exe)
 Standard basis: 6-31+G(d) (6D, 7F)
 Ernie: Thresh=  0.10000D-02 Tol=  0.10000D-05 Strict=F.
 There are   130 symmetry adapted cartesian basis functions of A   symmetry.
 There are   130 symmetry adapted basis functions of A   symmetry.
   130 basis functions,   224 primitive gaussians,   130 cartesian basis functions
    23 alpha electrons       23 beta electrons
       nuclear repulsion energy       231.7573638971 Hartrees.
 IExCor=  402 DFT=T Ex+Corr=B3LYP ExCW=0 ScaHFX=  0.200000
 ScaDFX=  0.800000  0.720000  1.000000  0.810000 ScalE2=  1.000000  1.000000
 IRadAn=      5 IRanWt=     -1 IRanGd=            0 ICorTp=0 IEmpDi=  4
 NAtoms=   14 NActive=   14 NUniq=   14 SFac= 1.00D+00 NAtFMM=   60 NAOKFM=F Big=F
 Integral buffers will be    131072 words long.
 Raffenetti 2 integral format.
 Two-electron integral symmetry is turned on.
 Leave Link  301 at Tue Oct 15 02:14:47 2019, MaxMem=   280000000 cpu:               2.0 elap:               0.1
 (Enter /home/soft/g16/l302.exe)
 NPDir=0 NMtPBC=     1 NCelOv=     1 NCel=       1 NClECP=     1 NCelD=      1
         NCelK=      1 NCelE2=     1 NClLst=     1 CellRange=     0.0.
 One-electron integrals computed using PRISM.
 One-electron integral symmetry used in STVInt
 NBasis=   130 RedAO= T EigKep=  7.97D-05  NBF=   130
 NBsUse=   130 1.00D-06 EigRej= -1.00D+00 NBFU=   130
 Precomputing XC quadrature grid using
 IXCGrd= 4 IRadAn=           5 IRanWt=          -1 IRanGd=           0 AccXCQ= 0.00D+00.
 Generated NRdTot=       0 NPtTot=           0 NUsed=           0 NTot=          32
 NSgBfM=   130   130   130   130   130 MxSgAt=    14 MxSgA2=    14.
 Leave Link  302 at Tue Oct 15 02:14:47 2019, MaxMem=   280000000 cpu:               4.7 elap:               0.3
 (Enter /home/soft/g16/l303.exe)
 DipDrv:  MaxL=1.
 Leave Link  303 at Tue Oct 15 02:14:47 2019, MaxMem=   280000000 cpu:               1.3 elap:               0.1
 (Enter /home/soft/g16/l401.exe)
 ExpMin= 4.38D-02 ExpMax= 5.48D+03 ExpMxC= 8.25D+02 IAcc=3 IRadAn=         5 AccDes= 0.00D+00
 Harris functional with IExCor=  402 and IRadAn=       5 diagonalized for initial guess.
 HarFok:  IExCor=  402 AccDes= 0.00D+00 IRadAn=         5 IDoV= 1 UseB2=F ITyADJ=14
 ICtDFT=  3500011 ScaDFX=  1.000000  1.000000  1.000000  1.000000
 FoFCou: FMM=F IPFlag=           0 FMFlag=      100000 FMFlg1=           0
         NFxFlg=           0 DoJE=T BraDBF=F KetDBF=T FulRan=T
         wScrn=  0.000000 ICntrl=       500 IOpCl=  0 I1Cent=   200000004 NGrid=           0
         NMat0=    1 NMatS0=      1 NMatT0=    0 NMatD0=    1 NMtDS0=    0 NMtDT0=    0
 Petite list used in FoFCou.
 Harris En= -270.441209382250    
 JPrj=0 DoOrth=F DoCkMO=F.
 Leave Link  401 at Tue Oct 15 02:14:48 2019, MaxMem=   280000000 cpu:               9.1 elap:               0.5
 (Enter /home/soft/g16/l502.exe)
 Integral symmetry usage will be decided dynamically.
 Closed shell SCF:
 Using DIIS extrapolation, IDIIS=  1040.
 NGot=   280000000 LenX=   279961518 LenY=   279944177
 Requested convergence on RMS density matrix=1.00D-08 within 128 cycles.
 Requested convergence on MAX density matrix=1.00D-06.
 Requested convergence on             energy=1.00D-06.
 No special actions if energy rises.
 Fock matrices will be formed incrementally for  20 cycles.

 Cycle   1  Pass 1  IDiag  1:
 FoFJK:  IHMeth= 1 ICntrl=       0 DoSepK=F KAlg= 0 I1Cent=           0 FoldK=F
 IRaf= 990000000 NMat=       1 IRICut=       1 DoRegI=T DoRafI=F ISym2E= 0 IDoP0=0 IntGTp=1.
 FoFCou: FMM=F IPFlag=           0 FMFlag=      100000 FMFlg1=           0
         NFxFlg=           0 DoJE=F BraDBF=F KetDBF=F FulRan=T
         wScrn=  0.000000 ICntrl=         0 IOpCl=  0 I1Cent=           0 NGrid=           0
         NMat0=    1 NMatS0=      1 NMatT0=    0 NMatD0=    1 NMtDS0=    0 NMtDT0=    0
 Symmetry not used in FoFCou.
 E= -270.145655086289    
 DIIS: error= 2.27D-02 at cycle   1 NSaved=   1.
 NSaved= 1 IEnMin= 1 EnMin= -270.145655086289     IErMin= 1 ErrMin= 2.27D-02
 ErrMax= 2.27D-02  0.00D+00 EMaxC= 1.00D-01 BMatC= 2.01D-01 BMatP= 2.01D-01
 IDIUse=3 WtCom= 7.73D-01 WtEn= 2.27D-01
 Coeff-Com:  0.100D+01
 Coeff-En:   0.100D+01
 Coeff:      0.100D+01
 Gap=    -0.261 Goal=   None    Shift=    0.000
 GapD=   -0.261 DampG=0.250 DampE=0.500 DampFc=0.2500 IDamp=-1.
 Damping current iteration by 2.50D-01
 RMSDP=2.67D-02 MaxDP=8.95D-01              OVMax= 6.55D-01

 Cycle   2  Pass 1  IDiag  1:
 RMSU=  6.68D-03    CP:  9.90D-01
 E= -270.243496730715     Delta-E=       -0.097841644426 Rises=F Damp=T
 DIIS: error= 1.16D-02 at cycle   2 NSaved=   2.
 NSaved= 2 IEnMin= 2 EnMin= -270.243496730715     IErMin= 2 ErrMin= 1.16D-02
 ErrMax= 1.16D-02  0.00D+00 EMaxC= 1.00D-01 BMatC= 3.79D-02 BMatP= 2.01D-01
 IDIUse=3 WtCom= 8.84D-01 WtEn= 1.16D-01
 Coeff-Com: -0.138D+00 0.114D+01
 Coeff-En:   0.163D+00 0.837D+00
 Coeff:     -0.103D+00 0.110D+01
 Gap=     0.234 Goal=   None    Shift=    0.000
 RMSDP=7.89D-03 MaxDP=2.14D-01 DE=-9.78D-02 OVMax= 9.85D-01

 Cycle   3  Pass 1  IDiag  1:
 RMSU=  6.21D-03    CP:  9.71D-01  2.75D-01
 E= -270.267236916106     Delta-E=       -0.023740185391 Rises=F Damp=F
 DIIS: error= 1.60D-02 at cycle   3 NSaved=   3.
 NSaved= 3 IEnMin= 3 EnMin= -270.267236916106     IErMin= 2 ErrMin= 1.16D-02
 ErrMax= 1.60D-02  0.00D+00 EMaxC= 1.00D-01 BMatC= 1.00D-01 BMatP= 3.79D-02
 IDIUse=2 WtCom= 0.00D+00 WtEn= 1.00D+00
 Coeff-En:   0.000D+00 0.429D+00 0.571D+00
 Coeff:      0.000D+00 0.429D+00 0.571D+00
 Gap=    -0.074 Goal=   None    Shift=    0.000
 RMSDP=1.56D-02 MaxDP=3.97D-01 DE=-2.37D-02 OVMax= 9.85D-01

 Cycle   4  Pass 1  IDiag  1:
 RMSU=  8.11D-03    CP:  9.38D-01  1.86D+00 -2.90D-01
 E= -269.466184497926     Delta-E=        0.801052418180 Rises=F Damp=F
 DIIS: error= 4.15D-02 at cycle   4 NSaved=   4.
 NSaved= 4 IEnMin= 3 EnMin= -270.267236916106     IErMin= 2 ErrMin= 1.16D-02
 ErrMax= 4.15D-02  0.00D+00 EMaxC= 1.00D-01 BMatC= 5.57D-01 BMatP= 3.79D-02
 IDIUse=2 WtCom= 0.00D+00 WtEn= 1.00D+00
 EnCoef did     4 forward-backward iterations
 Coeff-En:   0.838D-02 0.000D+00 0.769D+00 0.223D+00
 Coeff:      0.838D-02 0.000D+00 0.769D+00 0.223D+00
 Gap=    -0.007 Goal=   None    Shift=    0.000
 RMSDP=1.40D-02 MaxDP=4.15D-01 DE= 8.01D-01 OVMax= 9.23D-01

 Cycle   5  Pass 1  IDiag  1:
 RMSU=  4.55D-03    CP:  9.76D-01  2.26D-01  2.00D-01  1.58D-01
 E= -270.363427185746     Delta-E=       -0.897242687820 Rises=F Damp=F
 DIIS: error= 8.84D-03 at cycle   5 NSaved=   5.
 NSaved= 5 IEnMin= 5 EnMin= -270.363427185746     IErMin= 5 ErrMin= 8.84D-03
 ErrMax= 8.84D-03  0.00D+00 EMaxC= 1.00D-01 BMatC= 2.91D-02 BMatP= 3.79D-02
 IDIUse=3 WtCom= 9.12D-01 WtEn= 8.84D-02
 EnCoef did     4 forward-backward iterations
 Coeff-Com: -0.307D+00 0.585D+00 0.334D+00-0.256D-01 0.414D+00
 Coeff-En:   0.000D+00 0.000D+00 0.148D+00 0.316D-01 0.820D+00
 Coeff:     -0.280D+00 0.533D+00 0.318D+00-0.206D-01 0.450D+00
 Gap=     0.025 Goal=   None    Shift=    0.000
 RMSDP=1.86D-03 MaxDP=4.01D-02 DE=-8.97D-01 OVMax= 5.05D-02

 Cycle   6  Pass 1  IDiag  1:
 RMSU=  1.43D-03    CP:  9.68D-01  3.31D-01  3.16D-01  1.56D-01  1.13D+00
 E= -270.387658164310     Delta-E=       -0.024230978564 Rises=F Damp=F
 DIIS: error= 4.54D-03 at cycle   6 NSaved=   6.
 NSaved= 6 IEnMin= 6 EnMin= -270.387658164310     IErMin= 6 ErrMin= 4.54D-03
 ErrMax= 4.54D-03  0.00D+00 EMaxC= 1.00D-01 BMatC= 3.58D-03 BMatP= 2.91D-02
 IDIUse=3 WtCom= 9.55D-01 WtEn= 4.54D-02
 Coeff-Com: -0.198D+00 0.303D+00 0.152D+00-0.236D-01 0.327D+00 0.438D+00
 Coeff-En:   0.000D+00 0.000D+00 0.000D+00 0.000D+00 0.000D+00 0.100D+01
 Coeff:     -0.189D+00 0.290D+00 0.145D+00-0.225D-01 0.312D+00 0.464D+00
 Gap=     0.032 Goal=   None    Shift=    0.000
 RMSDP=9.89D-04 MaxDP=1.95D-02 DE=-2.42D-02 OVMax= 5.11D-02

 Cycle   7  Pass 1  IDiag  1:
 RMSU=  5.99D-04    CP:  9.67D-01  4.06D-01  2.58D-01  1.86D-01  1.22D+00
                    CP:  1.06D+00
 E= -270.390284202287     Delta-E=       -0.002626037977 Rises=F Damp=F
 DIIS: error= 1.24D-03 at cycle   7 NSaved=   7.
 NSaved= 7 IEnMin= 7 EnMin= -270.390284202287     IErMin= 7 ErrMin= 1.24D-03
 ErrMax= 1.24D-03  0.00D+00 EMaxC= 1.00D-01 BMatC= 5.46D-04 BMatP= 3.58D-03
 IDIUse=3 WtCom= 9.88D-01 WtEn= 1.24D-02
 Coeff-Com: -0.493D-01 0.740D-01 0.595D-01-0.107D-01 0.113D+00 0.227D+00
 Coeff-Com:  0.586D+00
 Coeff-En:   0.000D+00 0.000D+00 0.000D+00 0.000D+00 0.000D+00 0.149D+00
 Coeff-En:   0.851D+00
 Coeff:     -0.487D-01 0.731D-01 0.588D-01-0.106D-01 0.112D+00 0.226D+00
 Coeff:      0.590D+00
 Gap=     0.038 Goal=   None    Shift=    0.000
 RMSDP=3.32D-04 MaxDP=8.01D-03 DE=-2.63D-03 OVMax= 1.51D-02

 Cycle   8  Pass 1  IDiag  1:
 RMSU=  1.95D-04    CP:  9.66D-01  4.20D-01  2.40D-01  2.01D-01  1.23D+00
                    CP:  1.17D+00  1.16D+00
 E= -270.390209265582     Delta-E=        0.000074936706 Rises=F Damp=F
 DIIS: error= 1.47D-03 at cycle   8 NSaved=   8.
 NSaved= 8 IEnMin= 7 EnMin= -270.390284202287     IErMin= 7 ErrMin= 1.24D-03
 ErrMax= 1.47D-03  0.00D+00 EMaxC= 1.00D-01 BMatC= 4.86D-04 BMatP= 5.46D-04
 IDIUse=3 WtCom= 9.88D-01 WtEn= 1.24D-02
 Rare condition: small coef for last iteration:  0.000D+00
 Coeff-Com: -0.364D-01 0.553D-01 0.581D-01-0.945D-02 0.101D+00 0.163D+00
 Coeff-Com:  0.357D+00 0.311D+00
 Coeff-En:   0.000D+00 0.000D+00 0.000D+00 0.000D+00 0.000D+00 0.137D+00
 Coeff-En:   0.664D+00 0.200D+00
 Coeff:     -0.364D-01 0.553D-01 0.581D-01-0.945D-02 0.101D+00 0.163D+00
 Coeff:      0.357D+00 0.311D+00
 Gap=     0.040 Goal=   None    Shift=    0.000
 RMSDP=9.83D-05 MaxDP=1.58D-03 DE= 7.49D-05 OVMax= 5.57D-03

 Cycle   9  Pass 1  IDiag  1:
 RMSU=  3.42D-05    CP:  9.66D-01  4.12D-01  2.47D-01  1.98D-01  1.22D+00
                    CP:  1.16D+00  1.16D+00  9.94D-01
 E= -270.390494248689     Delta-E=       -0.000284983108 Rises=F Damp=F
 DIIS: error= 1.04D-03 at cycle   9 NSaved=   9.
 NSaved= 9 IEnMin= 9 EnMin= -270.390494248689     IErMin= 9 ErrMin= 1.04D-03
 ErrMax= 1.04D-03  0.00D+00 EMaxC= 1.00D-01 BMatC= 2.71D-04 BMatP= 4.86D-04
 IDIUse=3 WtCom= 9.90D-01 WtEn= 1.04D-02
 Coeff-Com: -0.194D-01 0.310D-01 0.271D-01-0.334D-02 0.513D-01 0.413D-02
 Coeff-Com: -0.472D+00-0.175D+01 0.313D+01
 Coeff-En:   0.000D+00 0.000D+00 0.000D+00 0.000D+00 0.000D+00 0.172D-01
 Coeff-En:   0.000D+00 0.000D+00 0.983D+00
 Coeff:     -0.192D-01 0.307D-01 0.269D-01-0.331D-02 0.508D-01 0.427D-02
 Coeff:     -0.468D+00-0.173D+01 0.311D+01
 Gap=     0.043 Goal=   None    Shift=    0.000
 RMSDP=4.13D-04 MaxDP=6.98D-03 DE=-2.85D-04 OVMax= 2.29D-02

 Cycle  10  Pass 1  IDiag  1:
 RMSU=  1.09D-04    CP:  9.67D-01  3.78D-01  2.75D-01  1.85D-01  1.17D+00
                    CP:  1.10D+00  1.11D+00  1.19D+00  3.00D+00
 E= -270.390801018796     Delta-E=       -0.000306770107 Rises=F Damp=F
 DIIS: error= 3.12D-04 at cycle  10 NSaved=  10.
 NSaved=10 IEnMin=10 EnMin= -270.390801018796     IErMin=10 ErrMin= 3.12D-04
 ErrMax= 3.12D-04  0.00D+00 EMaxC= 1.00D-01 BMatC= 2.79D-05 BMatP= 2.71D-04
 IDIUse=3 WtCom= 9.97D-01 WtEn= 3.12D-03
 Coeff-Com: -0.115D-02 0.580D-03 0.138D-02-0.133D-03 0.726D-02-0.331D-02
 Coeff-Com: -0.171D+00-0.799D+00 0.143D+01 0.532D+00
 Coeff-En:   0.000D+00 0.000D+00 0.000D+00 0.000D+00 0.000D+00 0.000D+00
 Coeff-En:   0.000D+00 0.000D+00 0.195D+00 0.805D+00
 Coeff:     -0.115D-02 0.578D-03 0.137D-02-0.133D-03 0.724D-02-0.330D-02
 Coeff:     -0.170D+00-0.796D+00 0.143D+01 0.533D+00
 Gap=     0.043 Goal=   None    Shift=    0.000
 RMSDP=1.63D-04 MaxDP=3.40D-03 DE=-3.07D-04 OVMax= 7.69D-03

 Cycle  11  Pass 1  IDiag  1:
 RMSU=  1.85D-05    CP:  9.67D-01  3.89D-01  2.63D-01  1.91D-01  1.19D+00
                    CP:  1.13D+00  1.17D+00  1.28D+00  3.00D+00  4.63D-01
 E= -270.390839863885     Delta-E=       -0.000038845089 Rises=F Damp=F
 DIIS: error= 2.87D-05 at cycle  11 NSaved=  11.
 NSaved=11 IEnMin=11 EnMin= -270.390839863885     IErMin=11 ErrMin= 2.87D-05
 ErrMax= 2.87D-05  0.00D+00 EMaxC= 1.00D-01 BMatC= 1.76D-07 BMatP= 2.79D-05
 IDIUse=1 WtCom= 1.00D+00 WtEn= 0.00D+00
 Coeff-Com: -0.126D-03-0.118D-03 0.627D-04 0.158D-04 0.175D-02-0.222D-02
 Coeff-Com: -0.706D-01-0.337D+00 0.593D+00 0.246D+00 0.569D+00
 Coeff:     -0.126D-03-0.118D-03 0.627D-04 0.158D-04 0.175D-02-0.222D-02
 Coeff:     -0.706D-01-0.337D+00 0.593D+00 0.246D+00 0.569D+00
 Gap=     0.043 Goal=   None    Shift=    0.000
 RMSDP=1.09D-05 MaxDP=1.60D-04 DE=-3.88D-05 OVMax= 5.04D-04

 Cycle  12  Pass 1  IDiag  1:
 RMSU=  4.61D-06    CP:  9.67D-01  3.89D-01  2.64D-01  1.90D-01  1.19D+00
                    CP:  1.13D+00  1.17D+00  1.28D+00  3.00D+00  5.05D-01
                    CP:  9.37D-01
 E= -270.390840071101     Delta-E=       -0.000000207215 Rises=F Damp=F
 DIIS: error= 7.40D-06 at cycle  12 NSaved=  12.
 NSaved=12 IEnMin=12 EnMin= -270.390840071101     IErMin=12 ErrMin= 7.40D-06
 ErrMax= 7.40D-06  0.00D+00 EMaxC= 1.00D-01 BMatC= 1.82D-08 BMatP= 1.76D-07
 IDIUse=1 WtCom= 1.00D+00 WtEn= 0.00D+00
 Coeff-Com: -0.355D-04 0.365D-04-0.647D-04 0.276D-05 0.248D-03-0.596D-03
 Coeff-Com: -0.197D-01-0.963D-01 0.170D+00 0.721D-01 0.279D+00 0.596D+00
 Coeff:     -0.355D-04 0.365D-04-0.647D-04 0.276D-05 0.248D-03-0.596D-03
 Coeff:     -0.197D-01-0.963D-01 0.170D+00 0.721D-01 0.279D+00 0.596D+00
 Gap=     0.043 Goal=   None    Shift=    0.000
 RMSDP=2.22D-06 MaxDP=4.54D-05 DE=-2.07D-07 OVMax= 5.68D-05

 Cycle  13  Pass 1  IDiag  1:
 RMSU=  1.31D-06    CP:  9.67D-01  3.89D-01  2.64D-01  1.90D-01  1.19D+00
                    CP:  1.13D+00  1.17D+00  1.29D+00  3.00D+00  5.16D-01
                    CP:  9.62D-01  9.14D-01
 E= -270.390840079114     Delta-E=       -0.000000008014 Rises=F Damp=F
 DIIS: error= 6.08D-06 at cycle  13 NSaved=  13.
 NSaved=13 IEnMin=13 EnMin= -270.390840079114     IErMin=13 ErrMin= 6.08D-06
 ErrMax= 6.08D-06  0.00D+00 EMaxC= 1.00D-01 BMatC= 9.15D-09 BMatP= 1.82D-08
 IDIUse=1 WtCom= 1.00D+00 WtEn= 0.00D+00
 Coeff-Com:  0.119D-04-0.507D-05-0.405D-04-0.388D-05-0.725D-04-0.256D-05
 Coeff-Com: -0.347D-03-0.162D-02 0.707D-02-0.104D-02 0.274D-01 0.109D+00
 Coeff-Com:  0.860D+00
 Coeff:      0.119D-04-0.507D-05-0.405D-04-0.388D-05-0.725D-04-0.256D-05
 Coeff:     -0.347D-03-0.162D-02 0.707D-02-0.104D-02 0.274D-01 0.109D+00
 Coeff:      0.860D+00
 Gap=     0.043 Goal=   None    Shift=    0.000
 RMSDP=3.13D-06 MaxDP=7.04D-05 DE=-8.01D-09 OVMax= 1.19D-04

 Cycle  14  Pass 1  IDiag  1:
 RMSU=  4.33D-07    CP:  9.67D-01  3.89D-01  2.64D-01  1.90D-01  1.19D+00
                    CP:  1.13D+00  1.17D+00  1.29D+00  3.00D+00  5.12D-01
                    CP:  9.98D-01  9.55D-01  1.10D+00
 E= -270.390840091737     Delta-E=       -0.000000012623 Rises=F Damp=F
 DIIS: error= 3.35D-07 at cycle  14 NSaved=  14.
 NSaved=14 IEnMin=14 EnMin= -270.390840091737     IErMin=14 ErrMin= 3.35D-07
 ErrMax= 3.35D-07  0.00D+00 EMaxC= 1.00D-01 BMatC= 2.55D-11 BMatP= 9.15D-09
 IDIUse=1 WtCom= 1.00D+00 WtEn= 0.00D+00
 Coeff-Com:  0.382D-05-0.346D-05-0.326D-05 0.157D-06-0.287D-04 0.225D-04
 Coeff-Com:  0.135D-02 0.701D-02-0.120D-01-0.598D-02-0.198D-01-0.356D-01
 Coeff-Com:  0.138D+00 0.927D+00
 Coeff:      0.382D-05-0.346D-05-0.326D-05 0.157D-06-0.287D-04 0.225D-04
 Coeff:      0.135D-02 0.701D-02-0.120D-01-0.598D-02-0.198D-01-0.356D-01
 Coeff:      0.138D+00 0.927D+00
 Gap=     0.043 Goal=   None    Shift=    0.000
 RMSDP=4.56D-07 MaxDP=1.34D-05 DE=-1.26D-08 OVMax= 1.24D-05

 Cycle  15  Pass 1  IDiag  1:
 RMSU=  9.70D-08    CP:  9.67D-01  3.89D-01  2.64D-01  1.90D-01  1.19D+00
                    CP:  1.13D+00  1.17D+00  1.29D+00  3.00D+00  5.14D-01
                    CP:  1.01D+00  9.88D-01  1.22D+00  1.17D+00
 E= -270.390840091807     Delta-E=       -0.000000000070 Rises=F Damp=F
 DIIS: error= 1.18D-07 at cycle  15 NSaved=  15.
 NSaved=15 IEnMin=15 EnMin= -270.390840091807     IErMin=15 ErrMin= 1.18D-07
 ErrMax= 1.18D-07  0.00D+00 EMaxC= 1.00D-01 BMatC= 3.17D-12 BMatP= 2.55D-11
 IDIUse=1 WtCom= 1.00D+00 WtEn= 0.00D+00
 Coeff-Com:  0.891D-06-0.906D-06-0.147D-07 0.694D-07-0.779D-05 0.704D-05
 Coeff-Com:  0.452D-03 0.237D-02-0.426D-02-0.190D-02-0.804D-02-0.177D-01
 Coeff-Com:  0.133D-01 0.326D+00 0.689D+00
 Coeff:      0.891D-06-0.906D-06-0.147D-07 0.694D-07-0.779D-05 0.704D-05
 Coeff:      0.452D-03 0.237D-02-0.426D-02-0.190D-02-0.804D-02-0.177D-01
 Coeff:      0.133D-01 0.326D+00 0.689D+00
 Gap=     0.043 Goal=   None    Shift=    0.000
 RMSDP=6.87D-08 MaxDP=1.59D-06 DE=-6.99D-11 OVMax= 3.23D-06

 Cycle  16  Pass 1  IDiag  1:
 RMSU=  2.34D-08    CP:  9.67D-01  3.89D-01  2.64D-01  1.90D-01  1.19D+00
                    CP:  1.13D+00  1.17D+00  1.29D+00  3.00D+00  5.14D-01
                    CP:  1.01D+00  9.93D-01  1.24D+00  1.22D+00  1.20D+00
 E= -270.390840091811     Delta-E=       -0.000000000004 Rises=F Damp=F
 DIIS: error= 4.16D-08 at cycle  16 NSaved=  16.
 NSaved=16 IEnMin=16 EnMin= -270.390840091811     IErMin=16 ErrMin= 4.16D-08
 ErrMax= 4.16D-08  0.00D+00 EMaxC= 1.00D-01 BMatC= 4.39D-13 BMatP= 3.17D-12
 IDIUse=1 WtCom= 1.00D+00 WtEn= 0.00D+00
 Coeff-Com: -0.432D-06 0.321D-06 0.106D-05-0.319D-07 0.303D-05 0.244D-05
 Coeff-Com: -0.565D-04-0.326D-03 0.475D-03 0.375D-03 0.129D-03-0.166D-02
 Coeff-Com: -0.218D-01-0.593D-01 0.333D+00 0.749D+00
 Coeff:     -0.432D-06 0.321D-06 0.106D-05-0.319D-07 0.303D-05 0.244D-05
 Coeff:     -0.565D-04-0.326D-03 0.475D-03 0.375D-03 0.129D-03-0.166D-02
 Coeff:     -0.218D-01-0.593D-01 0.333D+00 0.749D+00
 Gap=     0.043 Goal=   None    Shift=    0.000
 RMSDP=4.24D-08 MaxDP=9.97D-07 DE=-3.98D-12 OVMax= 1.78D-06

 Cycle  17  Pass 1  IDiag  1:
 RMSU=  1.28D-08    CP:  9.67D-01  3.89D-01  2.64D-01  1.90D-01  1.19D+00
                    CP:  1.13D+00  1.17D+00  1.29D+00  3.00D+00  5.14D-01
                    CP:  1.01D+00  9.94D-01  1.25D+00  1.26D+00  1.35D+00
                    CP:  1.28D+00
 E= -270.390840091820     Delta-E=       -0.000000000009 Rises=F Damp=F
 DIIS: error= 2.04D-08 at cycle  17 NSaved=  17.
 NSaved=17 IEnMin=17 EnMin= -270.390840091820     IErMin=17 ErrMin= 2.04D-08
 ErrMax= 2.04D-08  0.00D+00 EMaxC= 1.00D-01 BMatC= 1.09D-13 BMatP= 4.39D-13
 IDIUse=1 WtCom= 1.00D+00 WtEn= 0.00D+00
 Coeff-Com:  0.272D-06-0.522D-06-0.878D-07 0.381D-07 0.848D-06-0.160D-06
 Coeff-Com: -0.541D-04-0.294D-03 0.508D-03 0.273D-03 0.771D-03 0.142D-02
 Coeff-Com: -0.400D-02-0.510D-01-0.217D-01 0.147D+00 0.928D+00
 Coeff:      0.272D-06-0.522D-06-0.878D-07 0.381D-07 0.848D-06-0.160D-06
 Coeff:     -0.541D-04-0.294D-03 0.508D-03 0.273D-03 0.771D-03 0.142D-02
 Coeff:     -0.400D-02-0.510D-01-0.217D-01 0.147D+00 0.928D+00
 Gap=     0.043 Goal=   None    Shift=    0.000
 RMSDP=1.40D-08 MaxDP=2.72D-07 DE=-8.81D-12 OVMax= 6.48D-07

 Cycle  18  Pass 1  IDiag  1:
 RMSU=  3.34D-09    CP:  9.67D-01  3.89D-01  2.64D-01  1.90D-01  1.19D+00
                    CP:  1.13D+00  1.17D+00  1.29D+00  3.00D+00  5.14D-01
                    CP:  1.01D+00  9.95D-01  1.25D+00  1.27D+00  1.43D+00
                    CP:  1.44D+00  1.12D+00
 E= -270.390840091817     Delta-E=        0.000000000002 Rises=F Damp=F
 DIIS: error= 1.76D-08 at cycle  18 NSaved=  18.
 NSaved=18 IEnMin=17 EnMin= -270.390840091820     IErMin=18 ErrMin= 1.76D-08
 ErrMax= 1.76D-08  0.00D+00 EMaxC= 1.00D-01 BMatC= 5.54D-14 BMatP= 1.09D-13
 IDIUse=1 WtCom= 1.00D+00 WtEn= 0.00D+00
 Large coefficients: NSaved= 18 BigCof=    0.00 CofMax=   10.00 Det=-8.84D-15
 Inversion failed.  Reducing to 17 matrices.
 Large coefficients: NSaved= 17 BigCof=    0.00 CofMax=   10.00 Det=-8.94D-15
 Inversion failed.  Reducing to 16 matrices.
 Large coefficients: NSaved= 16 BigCof=    0.00 CofMax=   10.00 Det=-9.32D-15
 Inversion failed.  Reducing to 15 matrices.
 Coeff-Com: -0.368D-07 0.232D-06-0.223D-06-0.154D-04-0.828D-04 0.141D-03
 Coeff-Com:  0.709D-04 0.255D-03 0.620D-03 0.746D-03-0.100D-01-0.300D-01
 Coeff-Com: -0.124D-01 0.241D+00 0.809D+00
 Coeff:     -0.368D-07 0.232D-06-0.223D-06-0.154D-04-0.828D-04 0.141D-03
 Coeff:      0.709D-04 0.255D-03 0.620D-03 0.746D-03-0.100D-01-0.300D-01
 Coeff:     -0.124D-01 0.241D+00 0.809D+00
 Gap=     0.043 Goal=   None    Shift=    0.000
 RMSDP=6.59D-09 MaxDP=1.34D-07 DE= 2.33D-12 OVMax= 3.65D-07

 SCF Done:  E(RB3LYP) =  -270.390840092     A.U. after   18 cycles
            NFock= 18  Conv=0.66D-08     -V/T= 2.0112
 KE= 2.673886561834D+02 PE=-1.091227698099D+03 EE= 3.216908379270D+02
 Leave Link  502 at Tue Oct 15 02:14:53 2019, MaxMem=   280000000 cpu:             133.2 elap:               5.6
 (Enter /home/soft/g16/l801.exe)
 DoSCS=F DFT=T ScalE2(SS,OS)=  1.000000  1.000000
 Range of M.O.s used for correlation:     1   130
 NBasis=   130 NAE=    23 NBE=    23 NFC=     0 NFV=     0
 NROrb=    130 NOA=    23 NOB=    23 NVA=   107 NVB=   107

 **** Warning!!: The largest alpha MO coefficient is  0.45346434D+02


 **** Warning!!: The smallest alpha delta epsilon is  0.43363554D-01

 Leave Link  801 at Tue Oct 15 02:14:54 2019, MaxMem=   280000000 cpu:               0.4 elap:               0.0
 (Enter /home/soft/g16/l1101.exe)
 Using compressed storage, NAtomX=    14.
 Will process     15 centers per pass.
 Leave Link 1101 at Tue Oct 15 02:14:54 2019, MaxMem=   280000000 cpu:               3.7 elap:               0.2
 (Enter /home/soft/g16/l1102.exe)
 Symmetrizing basis deriv contribution to polar:
 IMax=3 JMax=2 DiffMx= 0.00D+00
 Leave Link 1102 at Tue Oct 15 02:14:54 2019, MaxMem=   280000000 cpu:               0.6 elap:               0.0
 (Enter /home/soft/g16/l1110.exe)
 Forming Gx(P) for the SCF density, NAtomX=    14.
 Integral derivatives from FoFJK, PRISM(SPDF).
 Do as many integral derivatives as possible in FoFJK.
 G2DrvN: MDV=     279998856.
 G2DrvN: will do    15 centers at a time, making    1 passes.
 Calling FoFCou, ICntrl=  3107 FMM=F I1Cent=   0 AccDes= 0.00D+00.
 FoFJK:  IHMeth= 1 ICntrl=    3107 DoSepK=F KAlg= 0 I1Cent=           0 FoldK=F
 IRaf=         0 NMat=       1 IRICut=       1 DoRegI=T DoRafI=F ISym2E= 0 IDoP0=0 IntGTp=1.
 FoFCou: FMM=F IPFlag=           0 FMFlag=      100000 FMFlg1=           0
         NFxFlg=           0 DoJE=F BraDBF=F KetDBF=F FulRan=T
         wScrn=  0.000000 ICntrl=      3107 IOpCl=  0 I1Cent=           0 NGrid=           0
         NMat0=    1 NMatS0=      1 NMatT0=    0 NMatD0=    1 NMtDS0=    0 NMtDT0=    0
 Symmetry not used in FoFCou.
 End of G2Drv F.D. properties file   721 does not exist.
 End of G2Drv F.D. properties file   722 does not exist.
 End of G2Drv F.D. properties file   788 does not exist.
 Leave Link 1110 at Tue Oct 15 02:14:59 2019, MaxMem=   280000000 cpu:             132.6 elap:               5.6
 (Enter /home/soft/g16/l1002.exe)
 Minotr:  Closed shell wavefunction.
          IDoAtm=11111111111111
          Direct CPHF calculation.
          Differentiating once with respect to nuclear coordinates.
          Requested convergence is 1.0D-08 RMS, and 1.0D-07 maximum.
          Secondary convergence is 1.0D-12 RMS, and 1.0D-12 maximum.
          NewPWx=T KeepS1=F KeepF1=F KeepIn=T MapXYZ=F SortEE=F KeepMc=T.
         4236 words used for storage of precomputed grid.
 Keep R1 ints in memory in canonical form, NReq=59094296.
 FoFCou: FMM=F IPFlag=           0 FMFlag=           0 FMFlg1=           0
         NFxFlg=           0 DoJE=F BraDBF=F KetDBF=F FulRan=T
         wScrn=  0.000000 ICntrl=       600 IOpCl=  0 I1Cent=           0 NGrid=           0
         NMat0=    1 NMatS0=   8515 NMatT0=    0 NMatD0=    1 NMtDS0=    0 NMtDT0=    0
 Symmetry not used in FoFCou.
 Two-electron integral symmetry not used.
          MDV=     280000000 using IRadAn=       1.
          Solving linear equations simultaneously, MaxMat=       0.
          There are    45 degrees of freedom in the 1st order CPHF.  IDoFFX=6 NUNeed=     0.
     39 vectors produced by pass  0 Test12= 5.47D-15 2.22D-09 XBig12= 2.08D-01 2.16D-01.
 AX will form    39 AO Fock derivatives at one time.
     39 vectors produced by pass  1 Test12= 5.47D-15 2.22D-09 XBig12= 5.81D-02 4.02D-02.
     39 vectors produced by pass  2 Test12= 5.47D-15 2.22D-09 XBig12= 4.26D-04 2.60D-03.
     39 vectors produced by pass  3 Test12= 5.47D-15 2.22D-09 XBig12= 1.56D-06 1.90D-04.
     39 vectors produced by pass  4 Test12= 5.47D-15 2.22D-09 XBig12= 3.02D-09 6.63D-06.
     33 vectors produced by pass  5 Test12= 5.47D-15 2.22D-09 XBig12= 3.02D-12 2.45D-07.
      1 vectors produced by pass  6 Test12= 5.47D-15 2.22D-09 XBig12= 2.57D-15 1.05D-08.
 InvSVY:  IOpt=1 It=  1 EMax= 3.77D-15
 Solved reduced A of dimension   229 with    39 vectors.
 End of Minotr F.D. properties file   721 does not exist.
 End of Minotr F.D. properties file   722 does not exist.
 End of Minotr F.D. properties file   788 does not exist.
 Leave Link 1002 at Tue Oct 15 02:15:07 2019, MaxMem=   280000000 cpu:             178.3 elap:               7.6
 (Enter /home/soft/g16/l601.exe)
 Copying SCF densities to generalized density rwf, IOpCl= 0 IROHF=0.

 **********************************************************************

            Population analysis using the SCF density.

 **********************************************************************

 Orbital symmetries:
       Occupied  (A) (A) (A) (A) (A) (A) (A) (A) (A) (A) (A) (A)
                 (A) (A) (A) (A) (A) (A) (A) (A) (A) (A) (A)
       Virtual   (A) (A) (A) (A) (A) (A) (A) (A) (A) (A) (A) (A)
                 (A) (A) (A) (A) (A) (A) (A) (A) (A) (A) (A) (A)
                 (A) (A) (A) (A) (A) (A) (A) (A) (A) (A) (A) (A)
                 (A) (A) (A) (A) (A) (A) (A) (A) (A) (A) (A) (A)
                 (A) (A) (A) (A) (A) (A) (A) (A) (A) (A) (A) (A)
                 (A) (A) (A) (A) (A) (A) (A) (A) (A) (A) (A) (A)
                 (A) (A) (A) (A) (A) (A) (A) (A) (A) (A) (A) (A)
                 (A) (A) (A) (A) (A) (A) (A) (A) (A) (A) (A) (A)
                 (A) (A) (A) (A) (A) (A) (A) (A) (A) (A) (A)
 The electronic state is 1-A.
 Alpha  occ. eigenvalues --  -19.23267 -10.30008 -10.26673 -10.21493 -10.20146
 Alpha  occ. eigenvalues --  -10.13618  -1.09136  -0.78459  -0.76576  -0.66568
 Alpha  occ. eigenvalues --   -0.62088  -0.54362  -0.50492  -0.48570  -0.47015
 Alpha  occ. eigenvalues --   -0.43141  -0.41744  -0.39653  -0.37722  -0.35571
 Alpha  occ. eigenvalues --   -0.33708  -0.30928  -0.13042
 Alpha virt. eigenvalues --   -0.08705  -0.00823   0.00218   0.02127   0.02672
 Alpha virt. eigenvalues --    0.03215   0.04826   0.06235   0.06685   0.07274
 Alpha virt. eigenvalues --    0.07779   0.09815   0.10336   0.10779   0.11138
 Alpha virt. eigenvalues --    0.11848   0.12669   0.13114   0.14313   0.16723
 Alpha virt. eigenvalues --    0.17509   0.18370   0.20009   0.20546   0.23214
 Alpha virt. eigenvalues --    0.24443   0.25342   0.26168   0.26860   0.28862
 Alpha virt. eigenvalues --    0.29468   0.29984   0.31884   0.32249   0.33372
 Alpha virt. eigenvalues --    0.34781   0.37832   0.38220   0.40458   0.61756
 Alpha virt. eigenvalues --    0.63195   0.64203   0.65325   0.66997   0.68811
 Alpha virt. eigenvalues --    0.69886   0.72619   0.74693   0.75764   0.78853
 Alpha virt. eigenvalues --    0.81130   0.82690   0.90791   0.94024   0.95464
 Alpha virt. eigenvalues --    0.99640   1.01399   1.02739   1.05718   1.07212
 Alpha virt. eigenvalues --    1.10187   1.12119   1.13375   1.16256   1.19700
 Alpha virt. eigenvalues --    1.24640   1.38236   1.39502   1.40034   1.42662
 Alpha virt. eigenvalues --    1.46491   1.48793   1.53964   1.62751   1.66377
 Alpha virt. eigenvalues --    1.68279   1.73976   1.78265   1.84565   1.85658
 Alpha virt. eigenvalues --    1.86353   1.94451   1.99161   2.04167   2.07036
 Alpha virt. eigenvalues --    2.09783   2.13185   2.22579   2.25439   2.31316
 Alpha virt. eigenvalues --    2.32572   2.39544   2.40862   2.45483   2.53323
 Alpha virt. eigenvalues --    2.60469   2.65481   2.66141   2.75775   2.90640
 Alpha virt. eigenvalues --    2.92709   4.11082   4.19614   4.28312   4.35782
 Alpha virt. eigenvalues --    4.46061   4.53617
          Condensed to atoms (all electrons):
               1          2          3          4          5          6
     1  C    5.967319   0.338787   0.405349   0.103957  -0.066466  -0.079854
     2  H    0.338787   0.535277  -0.031404  -0.052758  -0.003213   0.010527
     3  H    0.405349  -0.031404   0.459856  -0.035905   0.002880  -0.008358
     4  C    0.103957  -0.052758  -0.035905   5.331451   0.398801   0.239112
     5  H   -0.066466  -0.003213   0.002880   0.398801   0.524092  -0.069761
     6  O   -0.079854   0.010527  -0.008358   0.239112  -0.069761   8.137939
     7  C    0.066078   0.000558   0.003909  -0.154278   0.013213   0.114260
     8  H   -0.004898  -0.000031   0.000747   0.002241  -0.000085  -0.026970
     9  H    0.001556   0.000040  -0.000181  -0.016125  -0.000102  -0.005917
    10  C   -0.234479   0.014192  -0.032982   0.201414  -0.008743  -0.095857
    11  H    0.024328  -0.000088   0.000300  -0.003109   0.000015   0.004733
    12  C    0.079365  -0.006254  -0.033726  -0.160429   0.005670   0.030963
    13  H   -0.019420  -0.003157  -0.000590   0.012908  -0.000060  -0.001102
    14  H   -0.063616   0.002649   0.001094  -0.045355  -0.000045   0.014391
               7          8          9         10         11         12
     1  C    0.066078  -0.004898   0.001556  -0.234479   0.024328   0.079365
     2  H    0.000558  -0.000031   0.000040   0.014192  -0.000088  -0.006254
     3  H    0.003909   0.000747  -0.000181  -0.032982   0.000300  -0.033726
     4  C   -0.154278   0.002241  -0.016125   0.201414  -0.003109  -0.160429
     5  H    0.013213  -0.000085  -0.000102  -0.008743   0.000015   0.005670
     6  O    0.114260  -0.026970  -0.005917  -0.095857   0.004733   0.030963
     7  C    5.710648   0.379660   0.388919   0.005539  -0.049252  -0.100505
     8  H    0.379660   0.529931  -0.054325  -0.062941   0.000516   0.005020
     9  H    0.388919  -0.054325   0.561281  -0.106615  -0.001411   0.017401
    10  C    0.005539  -0.062941  -0.106615   6.176423   0.388871   0.152394
    11  H   -0.049252   0.000516  -0.001411   0.388871   0.541388  -0.065095
    12  C   -0.100505   0.005020   0.017401   0.152394  -0.065095   5.681515
    13  H    0.012150   0.000019  -0.000328  -0.050672  -0.003915   0.362158
    14  H    0.007713  -0.000383   0.003148  -0.136012   0.000785   0.479706
              13         14
     1  C   -0.019420  -0.063616
     2  H   -0.003157   0.002649
     3  H   -0.000590   0.001094
     4  C    0.012908  -0.045355
     5  H   -0.000060  -0.000045
     6  O   -0.001102   0.014391
     7  C    0.012150   0.007713
     8  H    0.000019  -0.000383
     9  H   -0.000328   0.003148
    10  C   -0.050672  -0.136012
    11  H   -0.003915   0.000785
    12  C    0.362158   0.479706
    13  H    0.544113  -0.051281
    14  H   -0.051281   0.598814
 Mulliken charges:
               1
     1  C   -0.518004
     2  H    0.194878
     3  H    0.269011
     4  C    0.178075
     5  H    0.203806
     6  O   -0.264105
     7  C   -0.398610
     8  H    0.231499
     9  H    0.212659
    10  C   -0.210533
    11  H    0.161935
    12  C   -0.448181
    13  H    0.199176
    14  H    0.188393
 Sum of Mulliken charges =  -0.00000
 Mulliken charges with hydrogens summed into heavy atoms:
               1
     1  C   -0.054116
     4  C    0.381882
     6  O   -0.264105
     7  C    0.045549
    10  C   -0.048598
    12  C   -0.060612
 APT charges:
               1
     1  C   -0.979532
     2  H    0.532922
     3  H    0.431099
     4  C   -0.179518
     5  H    0.615120
     6  O   -0.312044
     7  C   -0.872517
     8  H    0.547369
     9  H    0.499681
    10  C   -0.653430
    11  H    0.503413
    12  C   -1.067696
    13  H    0.543536
    14  H    0.391597
 Sum of APT charges =  -0.00000
 APT charges with hydrogens summed into heavy atoms:
               1
     1  C   -0.015511
     4  C    0.435602
     6  O   -0.312044
     7  C    0.174533
    10  C   -0.150017
    12  C   -0.132563
 Electronic spatial extent (au):  <R**2>=            543.7290
 Charge=              0.0000 electrons
 Dipole moment (field-independent basis, Debye):
    X=              2.2980    Y=             -0.7142    Z=              1.1193  Tot=              2.6540
 Quadrupole moment (field-independent basis, Debye-Ang):
   XX=            -35.4055   YY=            -38.6372   ZZ=            -40.4912
   XY=              3.4141   XZ=             -2.5314   YZ=              1.3421
 Traceless Quadrupole moment (field-independent basis, Debye-Ang):
   XX=              2.7724   YY=             -0.4592   ZZ=             -2.3133
   XY=              3.4141   XZ=             -2.5314   YZ=              1.3421
 Octapole moment (field-independent basis, Debye-Ang**2):
  XXX=             16.8219  YYY=             -3.2645  ZZZ=              5.3355  XYY=             -1.1088
  XXY=             -9.5561  XXZ=              7.3672  XZZ=              6.7783  YZZ=             -5.2568
  YYZ=             -0.7782  XYZ=             -2.9317
 Hexadecapole moment (field-independent basis, Debye-Ang**3):
 XXXX=           -349.6313 YYYY=           -316.5408 ZZZZ=            -95.4092 XXXY=              2.6994
 XXXZ=             -6.6804 YYYX=              6.1807 YYYZ=              2.3751 ZZZX=            -11.9181
 ZZZY=              2.8194 XXYY=           -106.9307 XXZZ=            -87.1159 YYZZ=            -68.7709
 XXYZ=              2.9432 YYXZ=             -1.5818 ZZXY=              6.0433
 N-N= 2.317573638971D+02 E-N=-1.091227697216D+03  KE= 2.673886561834D+02
  Exact polarizability:   0.000   0.000   0.000   0.000   0.000   0.000
 Approx polarizability: 377.475 -83.228 128.954  52.899 -17.736  93.070
 No NMR shielding tensors so no spin-rotation constants.
 Leave Link  601 at Tue Oct 15 02:15:07 2019, MaxMem=   280000000 cpu:               2.1 elap:               0.1
 (Enter /home/soft/g16/l701.exe)
 ... and contract with generalized density number  0.
 Compute integral second derivatives.
 Leave Link  701 at Tue Oct 15 02:15:07 2019, MaxMem=   280000000 cpu:               4.8 elap:               0.3
 (Enter /home/soft/g16/l702.exe)
 L702 exits ... SP integral derivatives will be done elsewhere.
 Leave Link  702 at Tue Oct 15 02:15:07 2019, MaxMem=   280000000 cpu:               0.5 elap:               0.0
 (Enter /home/soft/g16/l703.exe)
 Integral derivatives from FoFJK, PRISM(SPDF).
 Compute integral second derivatives, UseDBF=F ICtDFT=           0.
 Calling FoFJK, ICntrl=    100147 FMM=F ISym2X=0 I1Cent= 0 IOpClX= 0 NMat=1 NMatS=1 NMatT=0.
 FoFJK:  IHMeth= 1 ICntrl=  100147 DoSepK=F KAlg= 0 I1Cent=           0 FoldK=F
 IRaf=         0 NMat=       1 IRICut=       1 DoRegI=T DoRafI=F ISym2E= 0 IDoP0=0 IntGTp=1.
 FoFCou: FMM=F IPFlag=           0 FMFlag=      100000 FMFlg1=         800
         NFxFlg=           0 DoJE=F BraDBF=F KetDBF=F FulRan=T
         wScrn=  0.000000 ICntrl=    100147 IOpCl=  0 I1Cent=           0 NGrid=           0
         NMat0=    1 NMatS0=      1 NMatT0=    0 NMatD0=    1 NMtDS0=    0 NMtDT0=    0
 Symmetry not used in FoFCou.
 Leave Link  703 at Tue Oct 15 02:15:15 2019, MaxMem=   280000000 cpu:             183.9 elap:               7.7
 (Enter /home/soft/g16/l716.exe)
 Dipole        = 9.04105975D-01-2.80981060D-01 4.40384603D-01
 Polarizability= 0.00000000D+00 0.00000000D+00 0.00000000D+00
                 0.00000000D+00 0.00000000D+00 0.00000000D+00
 ***** Axes restored to original set *****
 -------------------------------------------------------------------
 Center     Atomic                   Forces (Hartrees/Bohr)
 Number     Number              X              Y              Z
 -------------------------------------------------------------------
      1        6           0.011121220   -0.023634687   -0.002319812
      2        1          -0.000484749   -0.002127690    0.000920217
      3        1          -0.010880420   -0.001763089    0.021549723
      4        6           0.014255218   -0.013650507   -0.012217437
      5        1          -0.001813903   -0.000122427    0.004892390
      6        8           0.035471383   -0.020558605    0.005014149
      7        6          -0.029441285   -0.000608153   -0.000455845
      8        1          -0.005465353    0.006842356   -0.000177778
      9        1          -0.009498190    0.012978767    0.001930778
     10        6           0.002273407    0.020152218    0.013140977
     11        1          -0.000857964   -0.002706272   -0.006263678
     12        6           0.002208575    0.017120837   -0.010515593
     13        1          -0.000263238   -0.000207154   -0.001348447
     14        1          -0.006624700    0.008284407   -0.014149642
 -------------------------------------------------------------------
 Cartesian Forces:  Max     0.035471383 RMS     0.012063523
 FormGI is forming the generalized inverse of G from B-inverse, IUseBI=4.
 Leave Link  716 at Tue Oct 15 02:15:15 2019, MaxMem=   280000000 cpu:               1.1 elap:               0.1
 (Enter /home/soft/g16/l103.exe)

 GradGradGradGradGradGradGradGradGradGradGradGradGradGradGradGradGradGrad
 Berny optimization.
 Red2BG is reusing G-inverse.
 Internal  Forces:  Max     0.125132759 RMS     0.036513769
 Step   1 in ReCalcFC= 5 IGetFC= 4 recover analytic Hessian.
 Search for a saddle point.
 Step number   1 out of a maximum of   69
 All quantities printed in internal units (Hartrees-Bohrs-Radians)
 Swapping is turned off.
 Second derivative matrix not updated -- analytic derivatives used.
 ITU=  0
     Eigenvalues ---   -0.03333  -0.00999   0.00106   0.00770   0.01314
     Eigenvalues ---    0.01471   0.02516   0.03187   0.04461   0.05027
     Eigenvalues ---    0.05746   0.06824   0.07435   0.09582   0.09708
     Eigenvalues ---    0.10445   0.10823   0.12382   0.13067   0.17964
     Eigenvalues ---    0.20612   0.24861   0.26414   0.28185   0.29158
     Eigenvalues ---    0.30141   0.32114   0.33774   0.33958   0.34006
     Eigenvalues ---    0.34331   0.35285   0.47205   0.77587   1.26479
     Eigenvalues ---    1.47775
 Eigenvectors required to have negative eigenvalues:
                          D16       D25       D17       D18       D23
   1                   -0.58947   0.28826  -0.26144  -0.25327   0.21147
                          D24       A11       A15       D10       R4
   1                    0.20778  -0.18710   0.16175   0.15066   0.14574
 Eigenvalue     2 is  -9.99D-03 should be greater than     0.000000 Eigenvector:
                          D19       D18       D17       D20       D21
   1                    0.63936   0.37451   0.36605  -0.24100  -0.17332
                          D25       R4        D5        A12       D22
   1                    0.16275   0.14877  -0.14686  -0.12156  -0.11211
 RFO step:  Lambda0=2.563796220D-02 Lambda=-7.95370126D-02.
 Linear search not attempted -- option 19 set.
 Maximum step size (   0.300) exceeded in Quadratic search.
    -- Step size scaled by   0.749
 Iteration  1 RMS(Cart)=  0.16066200 RMS(Int)=  0.04025507
 Iteration  2 RMS(Cart)=  0.04243009 RMS(Int)=  0.00302278
 Iteration  3 RMS(Cart)=  0.00286445 RMS(Int)=  0.00093261
 Iteration  4 RMS(Cart)=  0.00001106 RMS(Int)=  0.00093256
 Iteration  5 RMS(Cart)=  0.00000001 RMS(Int)=  0.00093256
 ITry= 1 IFail=0 DXMaxC= 5.86D-01 DCOld= 1.00D+10 DXMaxT= 3.00D-01 DXLimC= 3.00D+00 Rises=F
 Variable       Old X    -DE/DX   Delta X   Delta X   Delta X     New X
                                 (Linear)    (Quad)   (Total)
    R1        2.06841   0.00031   0.00000   0.00230   0.00230   2.07072
    R2        2.12798  -0.02248   0.00000  -0.04078  -0.04078   2.08720
    R3        2.76029  -0.00237   0.00000   0.02708   0.02708   2.78737
    R4        3.26148  -0.07694   0.00000  -0.21511  -0.21511   3.04637
    R5        2.05865   0.00130   0.00000  -0.00953  -0.00953   2.04912
    R6        2.43488   0.03637   0.00000   0.05964   0.05964   2.49452
    R7        2.07305  -0.00140   0.00000   0.00063   0.00063   2.07367
    R8        2.09678  -0.00396   0.00000  -0.01423  -0.01423   2.08255
    R9        2.86139  -0.01042   0.00000   0.01918   0.01918   2.88057
   R10        2.06932   0.00007   0.00000  -0.00181  -0.00181   2.06751
   R11        2.84167  -0.04566   0.00000  -0.00600  -0.00600   2.83567
   R12        2.06847   0.00058   0.00000   0.00516   0.00516   2.07363
   R13        2.12914  -0.01291   0.00000  -0.03117  -0.03117   2.09797
    A1        1.92674  -0.01704   0.00000  -0.03846  -0.03856   1.88818
    A2        1.93681   0.05949   0.00000   0.03074   0.03118   1.96799
    A3        2.03454   0.03619   0.00000   0.04952   0.04966   2.08421
    A4        1.86571   0.01457   0.00000  -0.00821  -0.00824   1.85747
    A5        1.80558   0.02041   0.00000   0.01296   0.01240   1.81798
    A6        1.88349  -0.11883   0.00000  -0.05263  -0.05251   1.83099
    A7        2.18351   0.01377   0.00000  -0.00222  -0.00231   2.18120
    A8        2.12489  -0.02852   0.00000   0.01199   0.01189   2.13678
    A9        1.97185   0.01521   0.00000  -0.01161  -0.01170   1.96014
   A10        1.86892  -0.00048   0.00000  -0.01102  -0.01413   1.85478
   A11        2.01094   0.00625   0.00000  -0.00765  -0.00940   2.00154
   A12        2.03716   0.01579   0.00000  -0.08067  -0.08249   1.95467
   A13        1.91040   0.05194   0.00000   0.02359   0.02076   1.93116
   A14        1.99270  -0.11100   0.00000  -0.04386  -0.04511   1.94759
   A15        1.99774   0.03375   0.00000  -0.05502  -0.05565   1.94208
   A16        1.84189  -0.12513   0.00000  -0.01102  -0.01286   1.82903
   A17        1.89731   0.05051   0.00000   0.06860   0.06806   1.96537
   A18        1.90245   0.01777   0.00000  -0.04242  -0.04339   1.85906
   A19        1.94278   0.05026   0.00000   0.03780   0.03675   1.97953
   A20        2.01861   0.02660   0.00000  -0.03593  -0.03730   1.98131
   A21        1.85839  -0.01615   0.00000  -0.01112  -0.00974   1.84865
    D1       -0.29641  -0.00496   0.00000  -0.09671  -0.09669  -0.39310
    D2        2.93326  -0.01250   0.00000  -0.06850  -0.06848   2.86479
    D3        1.80546   0.01774   0.00000  -0.13086  -0.13111   1.67435
    D4       -1.24805   0.01020   0.00000  -0.10265  -0.10290  -1.35095
    D5       -2.54538  -0.00536   0.00000  -0.14336  -0.14313  -2.68851
    D6        0.68430  -0.01291   0.00000  -0.11515  -0.11493   0.56937
    D7        2.96131   0.03265   0.00000   0.02259   0.02267   2.98398
    D8        0.87566   0.01626   0.00000  -0.05077  -0.05118   0.82448
    D9       -1.14333  -0.00170   0.00000  -0.05198  -0.05123  -1.19456
   D10        0.84339   0.01806   0.00000   0.03268   0.03254   0.87593
   D11       -1.24226   0.00167   0.00000  -0.04068  -0.04131  -1.28358
   D12        3.02193  -0.01629   0.00000  -0.04190  -0.04136   2.98057
   D13       -1.12958   0.03967   0.00000   0.05695   0.05682  -1.07276
   D14        3.06795   0.02328   0.00000  -0.01642  -0.01704   3.05092
   D15        1.04896   0.00532   0.00000  -0.01763  -0.01708   1.03188
   D16        1.54636   0.00792   0.00000   0.33232   0.33404   1.88040
   D17       -2.47159   0.00749   0.00000   0.24072   0.24134  -2.23026
   D18       -0.66865  -0.01277   0.00000   0.43416   0.43355  -0.23510
   D19        1.59659  -0.01321   0.00000   0.34257   0.34085   1.93743
   D20        1.02216  -0.03404   0.00000  -0.11765  -0.11836   0.90379
   D21        3.07747  -0.02118   0.00000  -0.02267  -0.02327   3.05420
   D22       -1.08199   0.01770   0.00000  -0.03428  -0.03576  -1.11775
   D23       -3.04005  -0.03058   0.00000  -0.17409  -0.17294   3.07019
   D24       -0.98474  -0.01772   0.00000  -0.07911  -0.07785  -1.06259
   D25        1.13898   0.02117   0.00000  -0.09072  -0.09033   1.04865
         Item               Value     Threshold  Converged?
 Maximum Force            0.125133     0.000450     NO 
 RMS     Force            0.036514     0.000300     NO 
 Maximum Displacement     0.585626     0.001800     NO 
 RMS     Displacement     0.177821     0.001200     NO 
 Predicted change in Energy=-3.418782D-02
 Lowest energy point so far.  Saving SCF results.
 Step   1 in ReCalcFC= 5 IGetFC= 0 compute gradient.
 GradGradGradGradGradGradGradGradGradGradGradGradGradGradGradGradGradGrad

 Leave Link  103 at Tue Oct 15 02:15:15 2019, MaxMem=   280000000 cpu:               2.3 elap:               0.1
 (Enter /home/soft/g16/l202.exe)
                          Input orientation:                          
 ---------------------------------------------------------------------
 Center     Atomic      Atomic             Coordinates (Angstroms)
 Number     Number       Type             X           Y           Z
 ---------------------------------------------------------------------
      1          6           0       -1.389005    0.089964   -0.356360
      2          1           0       -2.455743    0.311187   -0.238656
      3          1           0       -1.184752   -0.060519   -1.431324
      4          6           0       -0.524050    1.201876    0.080874
      5          1           0       -0.831934    2.239411    0.148230
      6          8           0        0.765841    1.045835    0.313996
      7          6           0        1.388725   -0.019757   -0.050701
      8          1           0        1.846538    0.350861   -0.976555
      9          1           0        2.204079   -0.099874    0.686367
     10          6           0        0.622746   -1.329255   -0.199274
     11          1           0        1.170860   -2.152105    0.269227
     12          6           0       -0.769396   -1.219954    0.350015
     13          1           0       -1.376905   -2.117883    0.180435
     14          1           0       -0.800676   -1.033254    1.443956
 ---------------------------------------------------------------------
                    Distance matrix (angstroms):
                    1          2          3          4          5
     1  C    0.000000
     2  H    1.095775   0.000000
     3  H    1.104497   1.782145   0.000000
     4  C    1.475015   2.151015   2.077717   0.000000
     5  H    2.277073   2.550389   2.812321   1.084348   0.000000
     6  O    2.450802   3.350185   2.841650   1.320043   2.001247
     7  C    2.796651   3.863262   2.920714   2.273413   3.174074
     8  H    3.304762   4.365283   3.092696   2.731679   3.464965
     9  H    3.746142   4.768499   3.996292   3.082834   3.870301
    10  C    2.466982   3.488509   2.528772   2.792892   3.869397
    11  H    3.459934   4.413390   3.579877   3.762630   4.828172
    12  C    1.612069   2.352593   2.165636   2.449059   3.465810
    13  H    2.272199   2.690709   2.620580   3.429005   4.391361
    14  H    2.202019   2.716239   3.059570   2.632550   3.519975
                    6          7          8          9         10
     6  O    0.000000
     7  C    1.287040   0.000000
     8  H    1.821103   1.097341   0.000000
     9  H    1.876123   1.102039   1.759633   0.000000
    10  C    2.434126   1.524331   2.219149   2.190058   0.000000
    11  H    3.223796   2.167193   2.876343   2.335208   1.094078
    12  C    2.737160   2.501706   3.327215   3.195194   1.500574
    13  H    3.823390   3.479119   4.221837   4.141470   2.182823
    14  H    2.837851   2.838072   3.844788   3.236309   2.194072
                   11         12         13         14
    11  H    0.000000
    12  C    2.154072   0.000000
    13  H    2.549541   1.097315   0.000000
    14  H    2.553188   1.110199   1.762085   0.000000
 Stoichiometry    C5H8O
 Framework group  C1[X(C5H8O)]
 Deg. of freedom    36
 Full point group                 C1      NOp   1
 RotChk:  IX=2 Diff= 1.58D+00
 Largest Abelian subgroup         C1      NOp   1
 Largest concise Abelian subgroup C1      NOp   1
                         Standard orientation:                         
 ---------------------------------------------------------------------
 Center     Atomic      Atomic             Coordinates (Angstroms)
 Number     Number       Type             X           Y           Z
 ---------------------------------------------------------------------
      1          6           0        1.287820   -0.619984   -0.310285
      2          1           0        2.204253   -1.193463   -0.131411
      3          1           0        1.200381   -0.439893   -1.396487
      4          6           0        0.070478   -1.349977    0.090784
      5          1           0       -0.004974   -2.427452    0.186510
      6          8           0       -1.094400   -0.749944    0.250578
      7          6           0       -1.289926    0.454173   -0.159722
      8          1           0       -1.803042    0.237914   -1.105291
      9          1           0       -2.060968    0.833521    0.530262
     10          6           0       -0.110450    1.412242   -0.280241
     11          1           0       -0.360260    2.387477    0.148148
     12          6           0        1.128908    0.843729    0.346265
     13          1           0        2.017971    1.470181    0.200574
     14          1           0        1.040870    0.690163    1.442262
 ---------------------------------------------------------------------
 Rotational constants (GHZ):           5.2123652           4.8093960           2.7937787
 Leave Link  202 at Tue Oct 15 02:15:15 2019, MaxMem=   280000000 cpu:               0.3 elap:               0.0
 (Enter /home/soft/g16/l301.exe)
 Standard basis: 6-31+G(d) (6D, 7F)
 Ernie: Thresh=  0.10000D-02 Tol=  0.10000D-05 Strict=F.
 There are   130 symmetry adapted cartesian basis functions of A   symmetry.
 There are   130 symmetry adapted basis functions of A   symmetry.
   130 basis functions,   224 primitive gaussians,   130 cartesian basis functions
    23 alpha electrons       23 beta electrons
       nuclear repulsion energy       242.9760546039 Hartrees.
 IExCor=  402 DFT=T Ex+Corr=B3LYP ExCW=0 ScaHFX=  0.200000
 ScaDFX=  0.800000  0.720000  1.000000  0.810000 ScalE2=  1.000000  1.000000
 IRadAn=      5 IRanWt=     -1 IRanGd=            0 ICorTp=0 IEmpDi=  4
 NAtoms=   14 NActive=   14 NUniq=   14 SFac= 1.00D+00 NAtFMM=   60 NAOKFM=F Big=F
 Integral buffers will be    131072 words long.
 Raffenetti 2 integral format.
 Two-electron integral symmetry is turned on.
 Leave Link  301 at Tue Oct 15 02:15:15 2019, MaxMem=   280000000 cpu:               1.2 elap:               0.1
 (Enter /home/soft/g16/l302.exe)
 NPDir=0 NMtPBC=     1 NCelOv=     1 NCel=       1 NClECP=     1 NCelD=      1
         NCelK=      1 NCelE2=     1 NClLst=     1 CellRange=     0.0.
 One-electron integrals computed using PRISM.
 One-electron integral symmetry used in STVInt
 NBasis=   130 RedAO= T EigKep=  6.60D-05  NBF=   130
 NBsUse=   130 1.00D-06 EigRej= -1.00D+00 NBFU=   130
 Precomputing XC quadrature grid using
 IXCGrd= 4 IRadAn=           5 IRanWt=          -1 IRanGd=           0 AccXCQ= 0.00D+00.
 Generated NRdTot=       0 NPtTot=           0 NUsed=           0 NTot=          32
 NSgBfM=   130   130   130   130   130 MxSgAt=    14 MxSgA2=    14.
 Leave Link  302 at Tue Oct 15 02:15:16 2019, MaxMem=   280000000 cpu:               3.1 elap:               0.2
 (Enter /home/soft/g16/l303.exe)
 DipDrv:  MaxL=1.
 Leave Link  303 at Tue Oct 15 02:15:16 2019, MaxMem=   280000000 cpu:               1.0 elap:               0.1
 (Enter /home/soft/g16/l401.exe)
 Initial guess from the checkpoint file:  "ts3.chk"
 B after Tr=     0.000000    0.000000    0.000000
         Rot=    0.825155    0.002549    0.011255    0.564789 Ang=  68.79 deg.
 Guess basis will be translated and rotated to current coordinates.
 JPrj=2 DoOrth=T DoCkMO=T.
 Generating alternative initial guess.
 ExpMin= 4.38D-02 ExpMax= 5.48D+03 ExpMxC= 8.25D+02 IAcc=2 IRadAn=         4 AccDes= 0.00D+00
 Harris functional with IExCor=  402 and IRadAn=       4 diagonalized for initial guess.
 HarFok:  IExCor=  402 AccDes= 0.00D+00 IRadAn=         4 IDoV= 1 UseB2=F ITyADJ=14
 ICtDFT=  3500011 ScaDFX=  1.000000  1.000000  1.000000  1.000000
 FoFCou: FMM=F IPFlag=           0 FMFlag=      100000 FMFlg1=           0
         NFxFlg=           0 DoJE=T BraDBF=F KetDBF=T FulRan=T
         wScrn=  0.000000 ICntrl=       500 IOpCl=  0 I1Cent=   200000004 NGrid=           0
         NMat0=    1 NMatS0=      1 NMatT0=    0 NMatD0=    1 NMtDS0=    0 NMtDT0=    0
 Petite list used in FoFCou.
 Harris En= -270.435832970852    
 Leave Link  401 at Tue Oct 15 02:15:16 2019, MaxMem=   280000000 cpu:               6.2 elap:               0.3
 (Enter /home/soft/g16/l502.exe)
 Integral symmetry usage will be decided dynamically.
 Closed shell SCF:
 Using DIIS extrapolation, IDIIS=  1040.
 NGot=   280000000 LenX=   279961518 LenY=   279944177
 Requested convergence on RMS density matrix=1.00D-08 within 128 cycles.
 Requested convergence on MAX density matrix=1.00D-06.
 Requested convergence on             energy=1.00D-06.
 No special actions if energy rises.
 Fock matrices will be formed incrementally for  20 cycles.

 Cycle   1  Pass 1  IDiag  1:
 FoFJK:  IHMeth= 1 ICntrl=       0 DoSepK=F KAlg= 0 I1Cent=           0 FoldK=F
 IRaf= 990000000 NMat=       1 IRICut=       1 DoRegI=T DoRafI=F ISym2E= 0 IDoP0=0 IntGTp=1.
 FoFCou: FMM=F IPFlag=           0 FMFlag=      100000 FMFlg1=           0
         NFxFlg=           0 DoJE=F BraDBF=F KetDBF=F FulRan=T
         wScrn=  0.000000 ICntrl=         0 IOpCl=  0 I1Cent=           0 NGrid=           0
         NMat0=    1 NMatS0=      1 NMatT0=    0 NMatD0=    1 NMtDS0=    0 NMtDT0=    0
 Symmetry not used in FoFCou.
 E= -270.279603827287    
 DIIS: error= 1.32D-02 at cycle   1 NSaved=   1.
 NSaved= 1 IEnMin= 1 EnMin= -270.279603827287     IErMin= 1 ErrMin= 1.32D-02
 ErrMax= 1.32D-02  0.00D+00 EMaxC= 1.00D-01 BMatC= 5.87D-02 BMatP= 5.87D-02
 IDIUse=3 WtCom= 8.68D-01 WtEn= 1.32D-01
 Coeff-Com:  0.100D+01
 Coeff-En:   0.100D+01
 Coeff:      0.100D+01
 Recover alternate guess density for next cycle.
 RMSDP=8.14D-03 MaxDP=1.37D-01              OVMax= 0.00D+00

 Cycle   2  Pass 1  IDiag  1:
 RMSU=  8.07D-03    CP:  9.61D-01
 E= -270.089923531107     Delta-E=        0.189680296179 Rises=F Damp=F
 Switch densities from cycles 1 and 2 for lowest energy.
 DIIS: error= 2.13D-02 at cycle   2 NSaved=   2.
 NSaved= 2 IEnMin= 1 EnMin= -270.279603827287     IErMin= 1 ErrMin= 1.32D-02
 ErrMax= 2.13D-02  0.00D+00 EMaxC= 1.00D+00 BMatC= 2.33D-01 BMatP= 5.87D-02
 IDIUse=1 WtCom= 1.00D+00 WtEn= 0.00D+00
 Coeff-Com:  0.782D+00 0.218D+00
 Coeff:      0.782D+00 0.218D+00
 Gap=    -0.067 Goal=   None    Shift=    0.000
 RMSDP=1.59D-02 MaxDP=3.96D-01 DE= 1.90D-01 OVMax= 9.51D-01

 Cycle   3  Pass 1  IDiag  1:
 RMSU=  1.58D-02    CP:  9.73D-01  2.31D-01
 E= -269.814526950629     Delta-E=        0.275396580479 Rises=F Damp=F
 DIIS: error= 3.56D-02 at cycle   3 NSaved=   3.
 NSaved= 3 IEnMin= 1 EnMin= -270.279603827287     IErMin= 1 ErrMin= 1.32D-02
 ErrMax= 3.56D-02  0.00D+00 EMaxC= 1.00D+00 BMatC= 3.45D-01 BMatP= 5.87D-02
 IDIUse=1 WtCom= 1.00D+00 WtEn= 0.00D+00
 Coeff-Com:  0.499D+00 0.289D+00 0.212D+00
 Coeff:      0.499D+00 0.289D+00 0.212D+00
 Gap=    -0.030 Goal=   None    Shift=    0.000
 RMSDP=1.66D-02 MaxDP=4.29D-01 DE= 2.75D-01 OVMax= 8.99D-01

 Cycle   4  Pass 1  IDiag  1:
 RMSU=  5.09D-03    CP:  9.66D-01  5.66D-01  1.64D-02
 E= -270.321861734473     Delta-E=       -0.507334783844 Rises=F Damp=F
 DIIS: error= 1.11D-02 at cycle   4 NSaved=   4.
 NSaved= 4 IEnMin= 4 EnMin= -270.321861734473     IErMin= 4 ErrMin= 1.11D-02
 ErrMax= 1.11D-02  0.00D+00 EMaxC= 1.00D+00 BMatC= 3.96D-02 BMatP= 5.87D-02
 IDIUse=1 WtCom= 1.00D+00 WtEn= 0.00D+00
 Coeff-Com:  0.918D-01 0.129D+00 0.220D+00 0.559D+00
 Coeff:      0.918D-01 0.129D+00 0.220D+00 0.559D+00
 Gap=     0.022 Goal=   None    Shift=    0.000
 RMSDP=5.48D-03 MaxDP=9.44D-02 DE=-5.07D-01 OVMax= 3.26D-01

 Cycle   5  Pass 1  IDiag  1:
 RMSU=  3.59D-03    CP:  9.79D-01  3.52D-01  1.92D-01  5.02D-01
 E= -270.377304522969     Delta-E=       -0.055442788496 Rises=F Damp=F
 DIIS: error= 3.78D-03 at cycle   5 NSaved=   5.
 NSaved= 5 IEnMin= 5 EnMin= -270.377304522969     IErMin= 5 ErrMin= 3.78D-03
 ErrMax= 3.78D-03  0.00D+00 EMaxC= 1.00D+00 BMatC= 3.05D-03 BMatP= 3.96D-02
 IDIUse=1 WtCom= 1.00D+00 WtEn= 0.00D+00
 Coeff-Com: -0.111D-01 0.126D-02 0.307D-01 0.244D+00 0.736D+00
 Coeff:     -0.111D-01 0.126D-02 0.307D-01 0.244D+00 0.736D+00
 Gap=     0.038 Goal=   None    Shift=    0.000
 RMSDP=9.12D-04 MaxDP=1.61D-02 DE=-5.54D-02 OVMax= 2.00D-02

 Cycle   6  Pass 1  IDiag  1:
 RMSU=  7.58D-04    CP:  9.80D-01  3.39D-01  1.94D-01  5.96D-01  9.63D-01
 E= -270.379402093882     Delta-E=       -0.002097570913 Rises=F Damp=F
 DIIS: error= 1.88D-03 at cycle   6 NSaved=   6.
 NSaved= 6 IEnMin= 6 EnMin= -270.379402093882     IErMin= 6 ErrMin= 1.88D-03
 ErrMax= 1.88D-03  0.00D+00 EMaxC= 1.00D+00 BMatC= 1.24D-03 BMatP= 3.05D-03
 IDIUse=1 WtCom= 1.00D+00 WtEn= 0.00D+00
 Coeff-Com: -0.219D-02-0.502D-02-0.626D-02 0.128D+00 0.413D+00 0.473D+00
 Coeff:     -0.219D-02-0.502D-02-0.626D-02 0.128D+00 0.413D+00 0.473D+00
 Gap=     0.041 Goal=   None    Shift=    0.000
 RMSDP=3.81D-04 MaxDP=9.94D-03 DE=-2.10D-03 OVMax= 1.94D-02

 Cycle   7  Pass 1  IDiag  1:
 RMSU=  2.26D-04    CP:  9.79D-01  3.36D-01  2.02D-01  5.77D-01  9.86D-01
                    CP:  6.76D-01
 E= -270.379105366012     Delta-E=        0.000296727870 Rises=F Damp=F
 DIIS: error= 1.98D-03 at cycle   7 NSaved=   7.
 NSaved= 7 IEnMin= 6 EnMin= -270.379402093882     IErMin= 6 ErrMin= 1.88D-03
 ErrMax= 1.98D-03  0.00D+00 EMaxC= 1.00D+00 BMatC= 1.13D-03 BMatP= 1.24D-03
 IDIUse=1 WtCom= 1.00D+00 WtEn= 0.00D+00
 Coeff-Com: -0.157D-02 0.238D-02-0.117D-01 0.104D+00 0.247D+00 0.346D+00
 Coeff-Com:  0.313D+00
 Coeff:     -0.157D-02 0.238D-02-0.117D-01 0.104D+00 0.247D+00 0.346D+00
 Coeff:      0.313D+00
 Gap=     0.042 Goal=   None    Shift=    0.000
 RMSDP=1.99D-04 MaxDP=3.42D-03 DE= 2.97D-04 OVMax= 1.00D-02

 Cycle   8  Pass 1  IDiag  1:
 RMSU=  7.73D-05    CP:  9.79D-01  3.43D-01  1.93D-01  5.81D-01  9.66D-01
                    CP:  6.61D-01  8.80D-01
 E= -270.379805690532     Delta-E=       -0.000700324519 Rises=F Damp=F
 DIIS: error= 1.39D-03 at cycle   8 NSaved=   8.
 NSaved= 8 IEnMin= 8 EnMin= -270.379805690532     IErMin= 8 ErrMin= 1.39D-03
 ErrMax= 1.39D-03  0.00D+00 EMaxC= 1.00D+00 BMatC= 6.02D-04 BMatP= 1.13D-03
 IDIUse=1 WtCom= 1.00D+00 WtEn= 0.00D+00
 Coeff-Com:  0.262D-04 0.779D-02-0.767D-02 0.412D-01-0.641D-01-0.122D+00
 Coeff-Com: -0.109D+01 0.224D+01
 Coeff:      0.262D-04 0.779D-02-0.767D-02 0.412D-01-0.641D-01-0.122D+00
 Coeff:     -0.109D+01 0.224D+01
 Gap=     0.043 Goal=   None    Shift=    0.000
 RMSDP=2.96D-04 MaxDP=5.20D-03 DE=-7.00D-04 OVMax= 1.78D-02

 Cycle   9  Pass 1  IDiag  1:
 RMSU=  5.30D-05    CP:  9.78D-01  3.56D-01  1.78D-01  5.93D-01  9.30D-01
                    CP:  6.43D-01  8.55D-01  1.48D+00
 E= -270.380494020766     Delta-E=       -0.000688330234 Rises=F Damp=F
 DIIS: error= 5.31D-04 at cycle   9 NSaved=   9.
 NSaved= 9 IEnMin= 9 EnMin= -270.380494020766     IErMin= 9 ErrMin= 5.31D-04
 ErrMax= 5.31D-04  0.00D+00 EMaxC= 1.00D+00 BMatC= 8.16D-05 BMatP= 6.02D-04
 IDIUse=1 WtCom= 1.00D+00 WtEn= 0.00D+00
 Coeff-Com:  0.175D-02 0.314D-02-0.432D-03 0.204D-02-0.880D-01-0.174D+00
 Coeff-Com: -0.100D+01 0.138D+01 0.879D+00
 Coeff:      0.175D-02 0.314D-02-0.432D-03 0.204D-02-0.880D-01-0.174D+00
 Coeff:     -0.100D+01 0.138D+01 0.879D+00
 Gap=     0.044 Goal=   None    Shift=    0.000
 RMSDP=2.14D-04 MaxDP=3.46D-03 DE=-6.88D-04 OVMax= 1.27D-02

 Cycle  10  Pass 1  IDiag  1:
 RMSU=  4.06D-05    CP:  9.77D-01  3.66D-01  1.68D-01  6.03D-01  9.04D-01
                    CP:  6.26D-01  8.35D-01  1.88D+00  1.04D+00
 E= -270.380595679115     Delta-E=       -0.000101658349 Rises=F Damp=F
 DIIS: error= 1.43D-04 at cycle  10 NSaved=  10.
 NSaved=10 IEnMin=10 EnMin= -270.380595679115     IErMin=10 ErrMin= 1.43D-04
 ErrMax= 1.43D-04  0.00D+00 EMaxC= 1.00D+00 BMatC= 5.85D-06 BMatP= 8.16D-05
 IDIUse=1 WtCom= 1.00D+00 WtEn= 0.00D+00
 Coeff-Com:  0.798D-04-0.345D-05 0.166D-03 0.541D-03-0.769D-02-0.240D-01
 Coeff-Com: -0.218D+00 0.277D+00 0.313D+00 0.660D+00
 Coeff:      0.798D-04-0.345D-05 0.166D-03 0.541D-03-0.769D-02-0.240D-01
 Coeff:     -0.218D+00 0.277D+00 0.313D+00 0.660D+00
 Gap=     0.044 Goal=   None    Shift=    0.000
 RMSDP=3.63D-05 MaxDP=7.00D-04 DE=-1.02D-04 OVMax= 1.39D-03

 Cycle  11  Pass 1  IDiag  1:
 RMSU=  1.21D-05    CP:  9.77D-01  3.64D-01  1.69D-01  6.01D-01  9.08D-01
                    CP:  6.29D-01  7.95D-01  1.91D+00  9.60D-01  6.53D-01
 E= -270.380602037998     Delta-E=       -0.000006358883 Rises=F Damp=F
 DIIS: error= 4.75D-05 at cycle  11 NSaved=  11.
 NSaved=11 IEnMin=11 EnMin= -270.380602037998     IErMin=11 ErrMin= 4.75D-05
 ErrMax= 4.75D-05  0.00D+00 EMaxC= 1.00D+00 BMatC= 7.13D-07 BMatP= 5.85D-06
 IDIUse=1 WtCom= 1.00D+00 WtEn= 0.00D+00
 Coeff-Com: -0.480D-04-0.134D-03 0.561D-04 0.314D-03 0.357D-03-0.266D-02
 Coeff-Com: -0.503D-01 0.823D-01 0.860D-01 0.230D+00 0.654D+00
 Coeff:     -0.480D-04-0.134D-03 0.561D-04 0.314D-03 0.357D-03-0.266D-02
 Coeff:     -0.503D-01 0.823D-01 0.860D-01 0.230D+00 0.654D+00
 Gap=     0.044 Goal=   None    Shift=    0.000
 RMSDP=1.13D-05 MaxDP=2.10D-04 DE=-6.36D-06 OVMax= 5.46D-04

 Cycle  12  Pass 1  IDiag  1:
 RMSU=  2.36D-06    CP:  9.78D-01  3.64D-01  1.70D-01  6.01D-01  9.10D-01
                    CP:  6.30D-01  7.89D-01  1.88D+00  9.29D-01  6.33D-01
                    CP:  1.03D+00
 E= -270.380602812059     Delta-E=       -0.000000774061 Rises=F Damp=F
 DIIS: error= 1.91D-05 at cycle  12 NSaved=  12.
 NSaved=12 IEnMin=12 EnMin= -270.380602812059     IErMin=12 ErrMin= 1.91D-05
 ErrMax= 1.91D-05  0.00D+00 EMaxC= 1.00D+00 BMatC= 9.57D-08 BMatP= 7.13D-07
 IDIUse=1 WtCom= 1.00D+00 WtEn= 0.00D+00
 Coeff-Com: -0.884D-05-0.683D-04 0.628D-05 0.184D-05 0.492D-03 0.794D-03
 Coeff-Com: -0.456D-02 0.216D-01 0.107D-01 0.408D-01 0.284D+00 0.646D+00
 Coeff:     -0.884D-05-0.683D-04 0.628D-05 0.184D-05 0.492D-03 0.794D-03
[...]
   D25        0.97564  -0.00036   0.00000   0.00619   0.00619   0.98184
         Item               Value     Threshold  Converged?
 Maximum Force            0.002040     0.000450     NO 
 RMS     Force            0.000578     0.000300     NO 
 Maximum Displacement     0.049304     0.001800     NO 
 RMS     Displacement     0.017720     0.001200     NO 
 Predicted change in Energy=-4.097014D-07
 Optimization stopped.
    -- Number of steps exceeded,  NStep=  69
    -- Flag reset to prevent archiving.
                           ----------------------------
                           ! Non-Optimized Parameters !
                           ! (Angstroms and Degrees)  !
 --------------------------                            --------------------------
 ! Name  Definition              Value          Derivative Info.                !
 --------------------------------------------------------------------------------
 ! R1    R(1,2)                  1.0997         -DE/DX =    0.0                 !
 ! R2    R(1,3)                  1.0945         -DE/DX =    0.0                 !
 ! R3    R(1,4)                  1.5127         -DE/DX =    0.0001              !
 ! R4    R(1,12)                 1.5678         -DE/DX =   -0.0007              !
 ! R5    R(4,5)                  1.1109         -DE/DX =    0.0                 !
 ! R6    R(4,6)                  1.2145         -DE/DX =    0.0005              !
 ! R7    R(7,8)                  1.0846         -DE/DX =    0.0                 !
 ! R8    R(7,9)                  1.0871         -DE/DX =    0.0                 !
 ! R9    R(7,10)                 1.3357         -DE/DX =   -0.0002              !
 ! R10   R(10,11)                1.0926         -DE/DX =    0.0001              !
 ! R11   R(10,12)                1.5111         -DE/DX =   -0.0004              !
 ! R12   R(12,13)                1.099          -DE/DX =    0.0                 !
 ! R13   R(12,14)                1.0986         -DE/DX =    0.0                 !
 ! A1    A(2,1,3)              107.3203         -DE/DX =   -0.0002              !
 ! A2    A(2,1,4)              105.0281         -DE/DX =    0.0008              !
 ! A3    A(2,1,12)             107.809          -DE/DX =    0.0007              !
 ! A4    A(3,1,4)              106.9493         -DE/DX =    0.0003              !
 ! A5    A(3,1,12)             109.187          -DE/DX =    0.0005              !
 ! A6    A(4,1,12)             119.8972         -DE/DX =   -0.002               !
 ! A7    A(1,4,5)              115.7481         -DE/DX =    0.0003              !
 ! A8    A(1,4,6)              124.4604         -DE/DX =   -0.0006              !
 ! A9    A(5,4,6)              119.6984         -DE/DX =    0.0003              !
 ! A10   A(8,7,9)              115.6562         -DE/DX =   -0.0001              !
 ! A11   A(8,7,10)             124.2333         -DE/DX =    0.0001              !
 ! A12   A(9,7,10)             120.1004         -DE/DX =    0.0                 !
 ! A13   A(7,10,11)            116.6287         -DE/DX =    0.0009              !
 ! A14   A(7,10,12)            132.152          -DE/DX =   -0.0013              !
 ! A15   A(11,10,12)           111.1904         -DE/DX =    0.0004              !
 ! A16   A(1,12,10)            123.3525         -DE/DX =   -0.002               !
 ! A17   A(1,12,13)            107.0813         -DE/DX =    0.0011              !
 ! A18   A(1,12,14)            107.8052         -DE/DX =    0.0004              !
 ! A19   A(10,12,13)           105.8884         -DE/DX =    0.0005              !
 ! A20   A(10,12,14)           106.923          -DE/DX =    0.0005              !
 ! A21   A(13,12,14)           104.2813         -DE/DX =   -0.0003              !
 ! D1    D(2,1,4,5)             47.8886         -DE/DX =    0.0                 !
 ! D2    D(2,1,4,6)           -128.5798         -DE/DX =    0.0001              !
 ! D3    D(3,1,4,5)            161.7217         -DE/DX =    0.0003              !
 ! D4    D(3,1,4,6)            -14.7467         -DE/DX =    0.0004              !
 ! D5    D(12,1,4,5)           -73.4202         -DE/DX =   -0.0003              !
 ! D6    D(12,1,4,6)           110.1114         -DE/DX =   -0.0002              !
 ! D7    D(2,1,12,10)         -115.5857         -DE/DX =    0.0002              !
 ! D8    D(2,1,12,13)          121.3816         -DE/DX =    0.0                 !
 ! D9    D(2,1,12,14)            9.6821         -DE/DX =   -0.0003              !
 ! D10   D(3,1,12,10)          128.127          -DE/DX =   -0.0002              !
 ! D11   D(3,1,12,13)            5.0943         -DE/DX =   -0.0004              !
 ! D12   D(3,1,12,14)         -106.6052         -DE/DX =   -0.0007              !
 ! D13   D(4,1,12,10)            4.3382         -DE/DX =    0.0005              !
 ! D14   D(4,1,12,13)         -118.6945         -DE/DX =    0.0003              !
 ! D15   D(4,1,12,14)          129.606          -DE/DX =    0.0                 !
 ! D16   D(8,7,10,11)          177.2314         -DE/DX =    0.0007              !
 ! D17   D(8,7,10,12)           -0.612          -DE/DX =    0.0002              !
 ! D18   D(9,7,10,11)           -1.5616         -DE/DX =    0.0006              !
 ! D19   D(9,7,10,12)         -179.4049         -DE/DX =    0.0                 !
 ! D20   D(7,10,12,1)           -0.1575         -DE/DX =   -0.0004              !
 ! D21   D(7,10,12,13)         123.4126         -DE/DX =    0.0001              !
 ! D22   D(7,10,12,14)        -125.8126         -DE/DX =    0.0002              !
 ! D23   D(11,10,12,1)        -178.0898         -DE/DX =   -0.0009              !
 ! D24   D(11,10,12,13)        -54.5197         -DE/DX =   -0.0005              !
 ! D25   D(11,10,12,14)         56.2551         -DE/DX =   -0.0004              !
 --------------------------------------------------------------------------------
 Lowest energy point so far.  Saving SCF results.
 Largest change from initial coordinates is atom    6       1.402 Angstoms.
 Step  69 in ReCalcFC= 5 IGetFC= 0 compute gradient.
 GradGradGradGradGradGradGradGradGradGradGradGradGradGradGradGradGradGrad

 Leave Link  103 at Tue Oct 15 02:21:43 2019, MaxMem=   280000000 cpu:               6.8 elap:               0.3
 (Enter /home/soft/g16/l202.exe)
                          Input orientation:                          
 ---------------------------------------------------------------------
 Center     Atomic      Atomic             Coordinates (Angstroms)
 Number     Number       Type             X           Y           Z
 ---------------------------------------------------------------------
      1          6           0       -1.396241    0.171396   -0.253489
      2          1           0       -2.118796    0.378265    0.549874
      3          1           0       -1.965194    0.057483   -1.181180
      4          6           0       -0.587684    1.442122   -0.381843
      5          1           0       -0.179782    1.853485    0.565908
      6          8           0       -0.424097    2.047764   -1.421404
      7          6           0        1.781647   -0.391822    0.379163
      8          1           0        1.642839    0.664005    0.173674
      9          1           0        2.802549   -0.701197    0.588681
     10          6           0        0.798373   -1.297080    0.362527
     11          1           0        1.087349   -2.334538    0.546120
     12          6           0       -0.683285   -1.182317    0.089128
     13          1           0       -0.889452   -1.869292   -0.743632
     14          1           0       -1.201898   -1.631742    0.946701
 ---------------------------------------------------------------------
                    Distance matrix (angstroms):
                    1          2          3          4          5
     1  C    0.000000
     2  H    1.100123   0.000000
     3  H    1.094210   1.767213   0.000000
     4  C    1.511616   2.084272   2.110379   0.000000
     5  H    2.231728   2.436454   3.076628   1.110782   0.000000
     6  O    2.414508   3.089525   2.528618   1.214186   2.011677
     7  C    3.288835   3.979401   4.083548   3.091313   2.987220
     8  H    3.108237   3.791183   3.901461   2.426788   2.211483
     9  H    4.370413   5.038490   5.141924   4.126671   3.926986
    10  C    2.711500   3.369237   3.443134   3.158872   3.305180
    11  H    3.617638   4.199843   4.245392   4.234385   4.375563
    12  C    1.567875   2.169883   2.189537   2.668076   3.113989
    13  H    2.159047   2.869835   2.249695   3.344759   4.009688
    14  H    2.174749   2.244617   2.822052   3.404546   3.651922
                    6          7          8          9         10
     6  O    0.000000
     7  C    3.749524   0.000000
     8  H    2.954875   1.084558   0.000000
     9  H    4.691319   1.087130   1.838732   0.000000
    10  C    3.983067   1.336636   2.143512   2.103079   0.000000
    11  H    5.035891   2.069799   3.072222   2.368866   1.092489
    12  C    3.575235   2.604783   2.971011   3.554163   1.511036
    13  H    4.002406   3.252438   3.697505   4.095165   2.097563
    14  H    4.444284   3.280402   3.736383   4.126704   2.110532
                   11         12         13         14
    11  H    0.000000
    12  C    2.161389   0.000000
    13  H    2.405756   1.099058   0.000000
    14  H    2.427970   1.098350   1.735303   0.000000
 Stoichiometry    C5H8O
 Framework group  C1[X(C5H8O)]
 Deg. of freedom    36
 Full point group                 C1      NOp   1
 RotChk:  IX=0 Diff= 8.78D-16
 Largest Abelian subgroup         C1      NOp   1
 Largest concise Abelian subgroup C1      NOp   1
                         Standard orientation:                         
 ---------------------------------------------------------------------
 Center     Atomic      Atomic             Coordinates (Angstroms)
 Number     Number       Type             X           Y           Z
 ---------------------------------------------------------------------
      1          6           0        0.689988    1.087155    0.147433
      2          1           0        0.901120    1.652067    1.067525
      3          1           0        1.219203    1.586836   -0.669601
      4          6           0        1.358274   -0.252673    0.355368
      5          1           0        1.134989   -0.760181    1.317874
      6          8           0        2.148647   -0.751455   -0.419729
      7          6           0       -1.519216   -1.348267    0.079797
      8          1           0       -0.537801   -1.765339    0.277639
      9          1           0       -2.333215   -2.066300    0.019094
     10          6           0       -1.759386   -0.047132   -0.109841
     11          1           0       -2.790149    0.229677   -0.343157
     12          6           0       -0.854757    1.163189   -0.109881
     13          1           0       -0.990038    1.639628   -1.091021
     14          1           0       -1.282707    1.881621    0.602219
 ---------------------------------------------------------------------
 Rotational constants (GHZ):           5.5204310           2.4644388           1.8268670
 Leave Link  202 at Tue Oct 15 02:21:43 2019, MaxMem=   280000000 cpu:               0.9 elap:               0.1
 (Enter /home/soft/g16/l601.exe)
 Copying SCF densities to generalized density rwf, IOpCl= 0 IROHF=0.

 **********************************************************************

            Population analysis using the SCF density.

 **********************************************************************

 Orbital symmetries:
       Occupied  (A) (A) (A) (A) (A) (A) (A) (A) (A) (A) (A) (A)
                 (A) (A) (A) (A) (A) (A) (A) (A) (A) (A) (A)
       Virtual   (A) (A) (A) (A) (A) (A) (A) (A) (A) (A) (A) (A)
                 (A) (A) (A) (A) (A) (A) (A) (A) (A) (A) (A) (A)
                 (A) (A) (A) (A) (A) (A) (A) (A) (A) (A) (A) (A)
                 (A) (A) (A) (A) (A) (A) (A) (A) (A) (A) (A) (A)
                 (A) (A) (A) (A) (A) (A) (A) (A) (A) (A) (A) (A)
                 (A) (A) (A) (A) (A) (A) (A) (A) (A) (A) (A) (A)
                 (A) (A) (A) (A) (A) (A) (A) (A) (A) (A) (A) (A)
                 (A) (A) (A) (A) (A) (A) (A) (A) (A) (A) (A) (A)
                 (A) (A) (A) (A) (A) (A) (A) (A) (A) (A) (A)
 The electronic state is 1-A.
 Alpha  occ. eigenvalues --  -19.16452 -10.28936 -10.21914 -10.21238 -10.21143
 Alpha  occ. eigenvalues --  -10.19361  -1.05736  -0.82006  -0.75961  -0.68939
 Alpha  occ. eigenvalues --   -0.59111  -0.55896  -0.49377  -0.48211  -0.45506
 Alpha  occ. eigenvalues --   -0.44229  -0.42670  -0.40468  -0.38433  -0.37179
 Alpha  occ. eigenvalues --   -0.34455  -0.26983  -0.26440
 Alpha virt. eigenvalues --   -0.04093  -0.00375   0.00281   0.02083   0.02372
 Alpha virt. eigenvalues --    0.03847   0.04550   0.04901   0.06410   0.07686
 Alpha virt. eigenvalues --    0.08021   0.09462   0.09762   0.11165   0.12788
 Alpha virt. eigenvalues --    0.13005   0.13721   0.14424   0.14664   0.15990
 Alpha virt. eigenvalues --    0.17983   0.18413   0.19201   0.20359   0.21858
 Alpha virt. eigenvalues --    0.22765   0.23790   0.25504   0.27148   0.28326
 Alpha virt. eigenvalues --    0.28946   0.29942   0.31478   0.33772   0.35078
 Alpha virt. eigenvalues --    0.37290   0.37695   0.42333   0.45609   0.56141
 Alpha virt. eigenvalues --    0.62428   0.64136   0.67780   0.68574   0.69597
 Alpha virt. eigenvalues --    0.71894   0.73240   0.74579   0.76971   0.79875
 Alpha virt. eigenvalues --    0.81303   0.86820   0.90016   0.91304   0.91658
 Alpha virt. eigenvalues --    0.94365   0.97827   0.98916   1.05010   1.05709
 Alpha virt. eigenvalues --    1.07257   1.11153   1.14655   1.16819   1.20091
 Alpha virt. eigenvalues --    1.25232   1.27980   1.30143   1.35954   1.41585
 Alpha virt. eigenvalues --    1.46796   1.52569   1.56354   1.60006   1.67236
 Alpha virt. eigenvalues --    1.68752   1.73107   1.75786   1.82941   1.84337
 Alpha virt. eigenvalues --    1.86913   1.90512   1.96561   1.98321   2.06021
 Alpha virt. eigenvalues --    2.10658   2.17472   2.18414   2.22060   2.27345
 Alpha virt. eigenvalues --    2.34083   2.43041   2.45201   2.47690   2.55520
 Alpha virt. eigenvalues --    2.57792   2.64233   2.77724   2.89364   2.96168
 Alpha virt. eigenvalues --    3.04922   4.10195   4.20706   4.24588   4.28432
 Alpha virt. eigenvalues --    4.39622   4.61739
          Condensed to atoms (all electrons):
               1          2          3          4          5          6
     1  C    6.285182   0.400060   0.424803   0.010544  -0.132802  -0.142298
     2  H    0.400060   0.517475  -0.030425  -0.015846   0.001066   0.002148
     3  H    0.424803  -0.030425   0.479003  -0.055121   0.003995  -0.001476
     4  C    0.010544  -0.015846  -0.055121   4.965766   0.373971   0.533335
     5  H   -0.132802   0.001066   0.003995   0.373971   0.639482  -0.072598
     6  O   -0.142298   0.002148  -0.001476   0.533335  -0.072598   8.041427
     7  C   -0.077566  -0.005705   0.001041   0.002206   0.007752  -0.013607
     8  H   -0.022046  -0.000029  -0.000032   0.011389  -0.000313  -0.001696
     9  H   -0.005779   0.000001   0.000003   0.002575   0.000139   0.000075
    10  C    0.023410   0.011025   0.008303   0.041579  -0.013978   0.010895
    11  H    0.006244  -0.000111  -0.000095  -0.008087  -0.000015  -0.000045
    12  C   -0.265353  -0.086260  -0.057156   0.014728   0.030020  -0.012237
    13  H   -0.062664   0.003445  -0.009055   0.011103  -0.000160  -0.000284
    14  H   -0.039459  -0.009903   0.002727  -0.003334  -0.000258  -0.000123
               7          8          9         10         11         12
     1  C   -0.077566  -0.022046  -0.005779   0.023410   0.006244  -0.265353
     2  H   -0.005705  -0.000029   0.000001   0.011025  -0.000111  -0.086260
     3  H    0.001041  -0.000032   0.000003   0.008303  -0.000095  -0.057156
     4  C    0.002206   0.011389   0.002575   0.041579  -0.008087   0.014728
     5  H    0.007752  -0.000313   0.000139  -0.013978  -0.000015   0.030020
     6  O   -0.013607  -0.001696   0.000075   0.010895  -0.000045  -0.012237
     7  C    5.208049   0.453100   0.383932   0.397148   0.042261   0.135779
     8  H    0.453100   0.512141  -0.034244  -0.118323   0.004901   0.009195
     9  H    0.383932  -0.034244   0.502530  -0.045411  -0.008385   0.016914
    10  C    0.397148  -0.118323  -0.045411   5.327562   0.290281  -0.033603
    11  H    0.042261   0.004901  -0.008385   0.290281   0.548170  -0.046193
    12  C    0.135779   0.009195   0.016914  -0.033603  -0.046193   6.124854
    13  H   -0.011957   0.000030  -0.000136  -0.050823  -0.002423   0.419367
    14  H   -0.016517   0.000020  -0.000108  -0.066811  -0.002204   0.428248
              13         14
     1  C   -0.062664  -0.039459
     2  H    0.003445  -0.009903
     3  H   -0.009055   0.002727
     4  C    0.011103  -0.003334
     5  H   -0.000160  -0.000258
     6  O   -0.000284  -0.000123
     7  C   -0.011957  -0.016517
     8  H    0.000030   0.000020
     9  H   -0.000136  -0.000108
    10  C   -0.050823  -0.066811
    11  H   -0.002423  -0.002204
    12  C    0.419367   0.428248
    13  H    0.522519  -0.040467
    14  H   -0.040467   0.533366
 Mulliken charges:
               1
     1  C   -0.402277
     2  H    0.213059
     3  H    0.233485
     4  C    0.115191
     5  H    0.163697
     6  O   -0.343517
     7  C   -0.505915
     8  H    0.185906
     9  H    0.187895
    10  C    0.218747
    11  H    0.175701
    12  C   -0.678302
    13  H    0.221505
    14  H    0.214824
 Sum of Mulliken charges =  -0.00000
 Mulliken charges with hydrogens summed into heavy atoms:
               1
     1  C    0.044267
     4  C    0.278889
     6  O   -0.343517
     7  C   -0.132114
    10  C    0.394448
    12  C   -0.241973
 Electronic spatial extent (au):  <R**2>=            677.9367
 Charge=             -0.0000 electrons
 Dipole moment (field-independent basis, Debye):
    X=             -2.1705    Y=              2.0073    Z=              1.3593  Tot=              3.2539
 Quadrupole moment (field-independent basis, Debye-Ang):
   XX=            -42.4358   YY=            -35.9904   ZZ=            -38.6318
   XY=              2.7559   XZ=              3.7372   YZ=             -1.2689
 Traceless Quadrupole moment (field-independent basis, Debye-Ang):
   XX=             -3.4164   YY=              3.0289   ZZ=              0.3876
   XY=              2.7559   XZ=              3.7372   YZ=             -1.2689
 Octapole moment (field-independent basis, Debye-Ang**2):
  XXX=            -13.4567  YYY=             -0.8475  ZZZ=             -0.6575  XYY=             -2.0092
  XXY=              7.2200  XXZ=              3.3312  XZZ=              5.5871  YZZ=              3.0864
  YYZ=              0.9028  XYZ=             -1.8549
 Hexadecapole moment (field-independent basis, Debye-Ang**3):
 XXXX=           -571.9313 YYYY=           -282.3521 ZZZZ=            -79.3489 XXXY=             14.7712
 XXXZ=             15.8786 YYYX=              2.3267 YYYZ=              0.0058 ZZZX=              0.8367
 ZZZY=             -0.0278 XXYY=           -139.2941 XXZZ=           -111.9120 YYZZ=            -59.5261
 XXYZ=             -2.8073 YYXZ=             -0.0799 ZZXY=             -5.1956
 N-N= 2.183255613656D+02 E-N=-1.064918619518D+03  KE= 2.678633913997D+02
 No NMR shielding tensors so no spin-rotation constants.
 Leave Link  601 at Tue Oct 15 02:21:43 2019, MaxMem=   280000000 cpu:               3.8 elap:               0.2
 (Enter /home/soft/g16/l9999.exe)


 MICRO CREDO - NEVER TRUST A COMPUTER BIGGER
               BIGGER THAN YOU CAN LIFT.
 Error termination request processed by link 9999.
 Error termination via Lnk1e in /home/soft/g16/l9999.exe at Tue Oct 15 02:21:43 2019.
 Job cpu time:       0 days  2 hours 35 minutes 43.4 seconds.
 Elapsed time:       0 days  0 hours  6 minutes 53.9 seconds.
 File lengths (MBytes):  RWF=    332 Int=      0 D2E=      0 Chk=      8 Scr=      8
