 Entering Gaussian System, Link 0=g16
 Input=ts4.gjf
 Output=ts4.log
 Initial command:
 /home/soft/g16/l1.exe "/tmp/gaussian/Gau-151865.inp" -scrdir="/tmp/gaussian/"
 Entering Link 1 = /home/soft/g16/l1.exe PID=    151866.
  
 Copyright (c) 1988,1990,1992,1993,1995,1998,2003,2009,2016,
            Gaussian, Inc.  All Rights Reserved.
  
 This is part of the Gaussian(R) 16 program.  It is based on
 the Gaussian(R) 09 system (copyright 2009, Gaussian, Inc.),
 the Gaussian(R) 03 system (copyright 2003, Gaussian, Inc.),
 the Gaussian(R) 98 system (copyright 1998, Gaussian, Inc.),
 the Gaussian(R) 94 system (copyright 1995, Gaussian, Inc.),
 the Gaussian 92(TM) system (copyright 1992, Gaussian, Inc.),
 the Gaussian 90(TM) system (copyright 1990, Gaussian, Inc.),
 the Gaussian 88(TM) system (copyright 1988, Gaussian, Inc.),
 the Gaussian 86(TM) system (copyright 1986, Carnegie Mellon
 University), and the Gaussian 82(TM) system (copyright 1983,
 Carnegie Mellon University). Gaussian is a federally registered
 trademark of Gaussian, Inc.
  
 This software contains proprietary and confidential information,
 including trade secrets, belonging to Gaussian, Inc.
  
 This software is provided under written license and may be
 used, copied, transmitted, or stored only in accord with that
 written license.
  
 The following legend is applicable only to US Government
 contracts under FAR:
  
                    RESTRICTED RIGHTS LEGEND
  
 Use, reproduction and disclosure by the US Government is
 subject to restrictions as set forth in subparagraphs (a)
 and (c) of the Commercial Computer Software - Restricted
 Rights clause in FAR 52.227-19.
  
 Gaussian, Inc.
 340 Quinnipiac St., Bldg. 40, Wallingford CT 06492
  
  
 ---------------------------------------------------------------
 Warning -- This program may not be used in any manner that
 competes with the business of Gaussian, Inc. or will provide
 assistance to any competitor of Gaussian, Inc.  The licensee
 of this program is prohibited from giving any competitor of
 Gaussian, Inc. access to this program.  By using this program,
 the user acknowledges that Gaussian, Inc. is engaged in the
 business of creating and licensing software in the field of
 computational chemistry and represents and warrants to the
 licensee that it is not a competitor of Gaussian, Inc. and that
 it will not use this program in any manner prohibited above.
 ---------------------------------------------------------------
  

 Cite this work as:
 Gaussian 16, Revision A.03,
 M. J. Frisch, G. W. Trucks, H. B. Schlegel, G. E. Scuseria, 
 M. A. Robb, J. R. Cheeseman, G. Scalmani, V. Barone, 
 G. A. Petersson, H. Nakatsuji, X. Li, M. Caricato, A. V. Marenich, 
 J. Bloino, B. G. Janesko, R. Gomperts, B. Mennucci, H. P. Hratchian, 
 J. V. Ortiz, A. F. Izmaylov, J. L. Sonnenberg, D. Williams-Young, 
 F. Ding, F. Lipparini, F. Egidi, J. Goings, B. Peng, A. Petrone, 
 T. Henderson, D. Ranasinghe, V. G. Zakrzewski, J. Gao, N. Rega, 
 G. Zheng, W. Liang, M. Hada, M. Ehara, K. Toyota, R. Fukuda, 
 J. Hasegawa, M. Ishida, T. Nakajima, Y. Honda, O. Kitao, H. Nakai, 
 T. Vreven, K. Throssell, J. A. Montgomery, Jr., J. E. Peralta, 
 F. Ogliaro, M. J. Bearpark, J. J. Heyd, E. N. Brothers, K. N. Kudin, 
 V. N. Staroverov, T. A. Keith, R. Kobayashi, J. Normand, 
 K. Raghavachari, A. P. Rendell, J. C. Burant, S. S. Iyengar, 
 J. Tomasi, M. Cossi, J. M. Millam, M. Klene, C. Adamo, R. Cammi, 
 J. W. Ochterski, R. L. Martin, K. Morokuma, O. Farkas, 
 J. B. Foresman, and D. J. Fox, Gaussian, Inc., Wallingford CT, 2016.
 
 ******************************************
 Gaussian 16:  ES64L-G16RevA.03 25-Dec-2016
                15-Oct-2019 
 ******************************************
 %chk=ts.chk
 %nprocshared=24
 Will use up to   24 processors via shared memory.
 -----------------------------------------------
 #p opt=(calcfc,ts,noeigen) freq b3lyp/6-31+g(d)
 -----------------------------------------------
 1/5=1,10=4,11=1,18=20,26=3,38=1/1,3;
 2/9=110,12=2,17=6,18=5,40=1/2;
 3/5=1,6=6,7=11,11=2,25=1,30=1,71=2,74=-5,140=1/1,2,3;
 4//1;
 5/5=2,38=5/2;
 8/6=4,10=90,11=11/1;
 11/6=1,8=1,9=11,15=111,16=1/1,2,10;
 10/6=1,13=1/2;
 6/7=2,8=2,9=2,10=2,28=1/1;
 7/10=1,18=20,25=1/1,2,3,16;
 1/5=1,10=4,11=1,18=20,26=3/3(2);
 2/9=110/2;
 99//99;
 2/9=110/2;
 3/5=1,6=6,7=11,11=2,25=1,30=1,71=1,74=-5/1,2,3;
 4/5=5,16=3,69=1/1;
 5/5=2,38=5/2;
 7//1,2,3,16;
 1/5=1,11=1,18=20,26=3/3(-5);
 2/9=110/2;
 6/7=2,8=2,9=2,10=2,19=2,28=1/1;
 99/9=1/99;
 Leave Link    1 at Tue Oct 15 10:08:21 2019, MaxMem=           0 cpu:               2.6 elap:               0.1
 (Enter /home/soft/g16/l101.exe)
 -------------------
 Title Card Required
 -------------------
 Symbolic Z-matrix:
 Charge =  0 Multiplicity = 1
 C                    -1.39157   0.07715  -0.30892 
 H                    -2.45693   0.24207  -0.11951 
 H                    -1.21069  -0.09826  -1.40645 
 C                    -0.60587   1.24914   0.06886 
 H                    -1.00946   2.2476    0.23303 
 O                     0.67945   1.20677   0.14848 
 C                     1.48842  -0.06509  -0.08448 
 H                     2.11518   0.18837  -0.94841 
 H                     2.14589  -0.05509   0.80926 
 C                     0.60243  -1.27974  -0.26439 
 H                     1.15007  -2.17864   0.03756 
 C                    -0.7614   -1.14423   0.35439 
 H                    -1.38351  -2.01936   0.14172 
 H                    -0.77821  -1.0042    1.47222 
 
 ITRead=  0  0  0  0  0  0  0  0  0  0  0  0  0  0
 MicOpt= -1 -1 -1 -1 -1 -1 -1 -1 -1 -1 -1 -1 -1 -1
 NAtoms=     14 NQM=       14 NQMF=       0 NMMI=      0 NMMIF=      0
                NMic=       0 NMicF=      0.
                    Isotopes and Nuclear Properties:
 (Nuclear quadrupole moments (NQMom) in fm**2, nuclear magnetic moments (NMagM)
  in nuclear magnetons)

  Atom         1           2           3           4           5           6           7           8           9          10
 IAtWgt=          12           1           1          12           1          16          12           1           1          12
 AtmWgt=  12.0000000   1.0078250   1.0078250  12.0000000   1.0078250  15.9949146  12.0000000   1.0078250   1.0078250  12.0000000
 NucSpn=           0           1           1           0           1           0           0           1           1           0
 AtZEff=  -0.0000000  -0.0000000  -0.0000000  -0.0000000  -0.0000000  -0.0000000  -0.0000000  -0.0000000  -0.0000000  -0.0000000
 NQMom=    0.0000000   0.0000000   0.0000000   0.0000000   0.0000000   0.0000000   0.0000000   0.0000000   0.0000000   0.0000000
 NMagM=    0.0000000   2.7928460   2.7928460   0.0000000   2.7928460   0.0000000   0.0000000   2.7928460   2.7928460   0.0000000
 AtZNuc=   6.0000000   1.0000000   1.0000000   6.0000000   1.0000000   8.0000000   6.0000000   1.0000000   1.0000000   6.0000000

  Atom        11          12          13          14
 IAtWgt=           1          12           1           1
 AtmWgt=   1.0078250  12.0000000   1.0078250   1.0078250
 NucSpn=           1           0           1           1
 AtZEff=  -0.0000000  -0.0000000  -0.0000000  -0.0000000
 NQMom=    0.0000000   0.0000000   0.0000000   0.0000000
 NMagM=    2.7928460   0.0000000   2.7928460   2.7928460
 AtZNuc=   1.0000000   6.0000000   1.0000000   1.0000000
 Leave Link  101 at Tue Oct 15 10:08:22 2019, MaxMem=   280000000 cpu:               4.4 elap:               0.3
 (Enter /home/soft/g16/l103.exe)

 GradGradGradGradGradGradGradGradGradGradGradGradGradGradGradGradGradGrad
 Berny optimization.
 Initialization pass.
                           ----------------------------
                           !    Initial Parameters    !
                           ! (Angstroms and Degrees)  !
 --------------------------                            --------------------------
 ! Name  Definition              Value          Derivative Info.                !
 --------------------------------------------------------------------------------
 ! R1    R(1,2)                  1.0946         calculate D2E/DX2 analytically  !
 ! R2    R(1,3)                  1.1261         calculate D2E/DX2 analytically  !
 ! R3    R(1,4)                  1.4607         calculate D2E/DX2 analytically  !
 ! R4    R(1,12)                 1.5261         calculate D2E/DX2 analytically  !
 ! R5    R(4,5)                  1.0894         calculate D2E/DX2 analytically  !
 ! R6    R(4,6)                  1.2885         calculate D2E/DX2 analytically  !
 ! R7    R(6,7)                  1.5252         calculate D2E/DX2 analytically  !
 ! R8    R(7,8)                  1.097          calculate D2E/DX2 analytically  !
 ! R9    R(7,9)                  1.1096         calculate D2E/DX2 analytically  !
 ! R10   R(7,10)                 1.5142         calculate D2E/DX2 analytically  !
 ! R11   R(10,11)                1.095          calculate D2E/DX2 analytically  !
 ! R12   R(10,12)                1.5037         calculate D2E/DX2 analytically  !
 ! R13   R(12,13)                1.0946         calculate D2E/DX2 analytically  !
 ! R14   R(12,14)                1.1267         calculate D2E/DX2 analytically  !
 ! A1    A(2,1,3)              110.3939         calculate D2E/DX2 analytically  !
 ! A2    A(2,1,4)              110.9713         calculate D2E/DX2 analytically  !
 ! A3    A(2,1,12)             116.5707         calculate D2E/DX2 analytically  !
 ! A4    A(3,1,4)              106.8972         calculate D2E/DX2 analytically  !
 ! A5    A(3,1,12)             103.452          calculate D2E/DX2 analytically  !
 ! A6    A(4,1,12)             107.9163         calculate D2E/DX2 analytically  !
 ! A7    A(1,4,5)              125.1061         calculate D2E/DX2 analytically  !
 ! A8    A(1,4,6)              121.7473         calculate D2E/DX2 analytically  !
 ! A9    A(5,4,6)              112.9786         calculate D2E/DX2 analytically  !
 ! A10   A(4,6,7)              123.1666         calculate D2E/DX2 analytically  !
 ! A11   A(6,7,8)              103.3358         calculate D2E/DX2 analytically  !
 ! A12   A(6,7,9)              100.5878         calculate D2E/DX2 analytically  !
 ! A13   A(6,7,10)             112.131          calculate D2E/DX2 analytically  !
 ! A14   A(8,7,9)              107.081          calculate D2E/DX2 analytically  !
 ! A15   A(8,7,10)             115.2185         calculate D2E/DX2 analytically  !
 ! A16   A(9,7,10)             116.7209         calculate D2E/DX2 analytically  !
 ! A17   A(7,10,11)            109.4576         calculate D2E/DX2 analytically  !
 ! A18   A(7,10,12)            114.1734         calculate D2E/DX2 analytically  !
 ! A19   A(11,10,12)           114.4618         calculate D2E/DX2 analytically  !
 ! A20   A(1,12,10)            105.5326         calculate D2E/DX2 analytically  !
 ! A21   A(1,12,13)            108.7078         calculate D2E/DX2 analytically  !
 ! A22   A(1,12,14)            109.0022         calculate D2E/DX2 analytically  !
 ! A23   A(10,12,13)           111.3133         calculate D2E/DX2 analytically  !
 ! A24   A(10,12,14)           115.6576         calculate D2E/DX2 analytically  !
 ! A25   A(13,12,14)           106.4777         calculate D2E/DX2 analytically  !
 ! D1    D(2,1,4,5)            -16.9833         calculate D2E/DX2 analytically  !
 ! D2    D(2,1,4,6)            168.0636         calculate D2E/DX2 analytically  !
 ! D3    D(3,1,4,5)            103.4452         calculate D2E/DX2 analytically  !
 ! D4    D(3,1,4,6)            -71.5079         calculate D2E/DX2 analytically  !
 ! D5    D(12,1,4,5)          -145.8393         calculate D2E/DX2 analytically  !
 ! D6    D(12,1,4,6)            39.2076         calculate D2E/DX2 analytically  !
 ! D7    D(2,1,12,10)          169.6707         calculate D2E/DX2 analytically  !
 ! D8    D(2,1,12,13)           50.1718         calculate D2E/DX2 analytically  !
 ! D9    D(2,1,12,14)          -65.5079         calculate D2E/DX2 analytically  !
 ! D10   D(3,1,12,10)           48.3224         calculate D2E/DX2 analytically  !
 ! D11   D(3,1,12,13)          -71.1765         calculate D2E/DX2 analytically  !
 ! D12   D(3,1,12,14)          173.1438         calculate D2E/DX2 analytically  !
 ! D13   D(4,1,12,10)          -64.7203         calculate D2E/DX2 analytically  !
 ! D14   D(4,1,12,13)          175.7808         calculate D2E/DX2 analytically  !
 ! D15   D(4,1,12,14)           60.1011         calculate D2E/DX2 analytically  !
 ! D16   D(1,4,6,7)             -2.5496         calculate D2E/DX2 analytically  !
 ! D17   D(5,4,6,7)           -178.0662         calculate D2E/DX2 analytically  !
 ! D18   D(4,6,7,8)            118.4067         calculate D2E/DX2 analytically  !
 ! D19   D(4,6,7,9)           -131.0202         calculate D2E/DX2 analytically  !
 ! D20   D(4,6,7,10)            -6.2815         calculate D2E/DX2 analytically  !
 ! D21   D(6,7,10,11)         -153.5756         calculate D2E/DX2 analytically  !
 ! D22   D(6,7,10,12)          -23.787          calculate D2E/DX2 analytically  !
 ! D23   D(8,7,10,11)           88.5997         calculate D2E/DX2 analytically  !
 ! D24   D(8,7,10,12)         -141.6118         calculate D2E/DX2 analytically  !
 ! D25   D(9,7,10,11)          -38.3109         calculate D2E/DX2 analytically  !
 ! D26   D(9,7,10,12)           91.4776         calculate D2E/DX2 analytically  !
 ! D27   D(7,10,12,1)           58.5653         calculate D2E/DX2 analytically  !
 ! D28   D(7,10,12,13)         176.3259         calculate D2E/DX2 analytically  !
 ! D29   D(7,10,12,14)         -61.9936         calculate D2E/DX2 analytically  !
 ! D30   D(11,10,12,1)        -174.1821         calculate D2E/DX2 analytically  !
 ! D31   D(11,10,12,13)        -56.4215         calculate D2E/DX2 analytically  !
 ! D32   D(11,10,12,14)         65.259          calculate D2E/DX2 analytically  !
 --------------------------------------------------------------------------------
 Trust Radius=3.00D-01 FncErr=1.00D-07 GrdErr=1.00D-06 EigMax=2.50D+02 EigMin=1.00D-04
 Number of steps in this run=     81 maximum allowed number of steps=    100.
 Search for a saddle point of order  1.
 GradGradGradGradGradGradGradGradGradGradGradGradGradGradGradGradGradGrad

 Leave Link  103 at Tue Oct 15 10:08:22 2019, MaxMem=   280000000 cpu:               0.5 elap:               0.0
 (Enter /home/soft/g16/l202.exe)
                          Input orientation:                          
 ---------------------------------------------------------------------
 Center     Atomic      Atomic             Coordinates (Angstroms)
 Number     Number       Type             X           Y           Z
 ---------------------------------------------------------------------
      1          6           0       -1.391570    0.077150   -0.308918
      2          1           0       -2.456926    0.242069   -0.119513
      3          1           0       -1.210686   -0.098261   -1.406445
      4          6           0       -0.605873    1.249138    0.068862
      5          1           0       -1.009457    2.247604    0.233034
      6          8           0        0.679452    1.206767    0.148477
      7          6           0        1.488420   -0.065087   -0.084484
      8          1           0        2.115177    0.188365   -0.948410
      9          1           0        2.145889   -0.055094    0.809261
     10          6           0        0.602425   -1.279743   -0.264391
     11          1           0        1.150067   -2.178643    0.037559
     12          6           0       -0.761395   -1.144226    0.354390
     13          1           0       -1.383508   -2.019364    0.141724
     14          1           0       -0.778210   -1.004200    1.472221
 ---------------------------------------------------------------------
                    Distance matrix (angstroms):
                    1          2          3          4          5
     1  C    0.000000
     2  H    1.094557   0.000000
     3  H    1.126079   1.823495   0.000000
     4  C    1.460683   2.115673   2.087538   0.000000
     5  H    2.269492   2.498325   2.869053   1.089388   0.000000
     6  O    2.402993   3.292313   2.773716   1.288485   1.985675
     7  C    2.892221   3.957439   3.005637   2.477250   3.418881
     8  H    3.566314   4.646943   3.369468   3.092603   3.924234
     9  H    3.712335   4.704980   4.022165   3.133912   3.948501
    10  C    2.412293   3.420019   2.446949   2.822460   3.909958
    11  H    3.415928   4.346828   3.462122   3.851492   4.928835
    12  C    1.526059   2.240809   2.096770   2.415348   3.403053
    13  H    2.144415   2.516853   2.473324   3.360525   4.284305
    14  H    2.172092   2.627716   3.048685   2.660197   3.487591
                    6          7          8          9         10
     6  O    0.000000
     7  C    1.525225   0.000000
     8  H    2.074032   1.097010   0.000000
     9  H    2.044350   1.109570   1.774718   0.000000
    10  C    2.521731   1.514181   2.216222   2.243830   0.000000
    11  H    3.419763   2.143944   2.739763   2.469139   1.095037
    12  C    2.765069   2.533539   3.427500   3.137741   1.503749
    13  H    3.829330   3.481140   4.278230   4.093972   2.157753
    14  H    2.960651   2.905663   3.956432   3.144944   2.235598
                   11         12         13         14
    11  H    0.000000
    12  C    2.196381   0.000000
    13  H    2.540713   1.094586   0.000000
    14  H    2.675037   1.126693   1.779653   0.000000
 Stoichiometry    C5H8O
 Framework group  C1[X(C5H8O)]
 Deg. of freedom    36
 Full point group                 C1      NOp   1
 Largest Abelian subgroup         C1      NOp   1
 Largest concise Abelian subgroup C1      NOp   1
                         Standard orientation:                         
 ---------------------------------------------------------------------
 Center     Atomic      Atomic             Coordinates (Angstroms)
 Number     Number       Type             X           Y           Z
 ---------------------------------------------------------------------
      1          6           0        1.391570   -0.077150   -0.308918
      2          1           0        2.456926   -0.242068   -0.119513
      3          1           0        1.210686    0.098261   -1.406445
      4          6           0        0.605873   -1.249138    0.068862
      5          1           0        1.009457   -2.247604    0.233034
      6          8           0       -0.679452   -1.206767    0.148477
      7          6           0       -1.488420    0.065087   -0.084484
      8          1           0       -2.115177   -0.188365   -0.948410
      9          1           0       -2.145889    0.055094    0.809261
     10          6           0       -0.602425    1.279743   -0.264391
     11          1           0       -1.150067    2.178643    0.037559
     12          6           0        0.761395    1.144226    0.354390
     13          1           0        1.383508    2.019364    0.141724
     14          1           0        0.778210    1.004200    1.472221
 ---------------------------------------------------------------------
 Rotational constants (GHZ):           4.9705364           4.8140582           2.7016462
 Leave Link  202 at Tue Oct 15 10:08:22 2019, MaxMem=   280000000 cpu:               1.3 elap:               0.1
 (Enter /home/soft/g16/l301.exe)
 Standard basis: 6-31+G(d) (6D, 7F)
 Ernie: Thresh=  0.10000D-02 Tol=  0.10000D-05 Strict=F.
 There are   130 symmetry adapted cartesian basis functions of A   symmetry.
 There are   130 symmetry adapted basis functions of A   symmetry.
   130 basis functions,   224 primitive gaussians,   130 cartesian basis functions
    23 alpha electrons       23 beta electrons
       nuclear repulsion energy       239.3700035905 Hartrees.
 IExCor=  402 DFT=T Ex+Corr=B3LYP ExCW=0 ScaHFX=  0.200000
 ScaDFX=  0.800000  0.720000  1.000000  0.810000 ScalE2=  1.000000  1.000000
 IRadAn=      5 IRanWt=     -1 IRanGd=            0 ICorTp=0 IEmpDi=  4
 NAtoms=   14 NActive=   14 NUniq=   14 SFac= 1.00D+00 NAtFMM=   60 NAOKFM=F Big=F
 Integral buffers will be    131072 words long.
 Raffenetti 2 integral format.
 Two-electron integral symmetry is turned on.
 Leave Link  301 at Tue Oct 15 10:08:22 2019, MaxMem=   280000000 cpu:               1.5 elap:               0.1
 (Enter /home/soft/g16/l302.exe)
 NPDir=0 NMtPBC=     1 NCelOv=     1 NCel=       1 NClECP=     1 NCelD=      1
         NCelK=      1 NCelE2=     1 NClLst=     1 CellRange=     0.0.
 One-electron integrals computed using PRISM.
 One-electron integral symmetry used in STVInt
 NBasis=   130 RedAO= T EigKep=  6.90D-05  NBF=   130
 NBsUse=   130 1.00D-06 EigRej= -1.00D+00 NBFU=   130
 Precomputing XC quadrature grid using
 IXCGrd= 4 IRadAn=           5 IRanWt=          -1 IRanGd=           0 AccXCQ= 0.00D+00.
 Generated NRdTot=       0 NPtTot=           0 NUsed=           0 NTot=          32
 NSgBfM=   130   130   130   130   130 MxSgAt=    14 MxSgA2=    14.
 Leave Link  302 at Tue Oct 15 10:08:22 2019, MaxMem=   280000000 cpu:               4.4 elap:               0.3
 (Enter /home/soft/g16/l303.exe)
 DipDrv:  MaxL=1.
 Leave Link  303 at Tue Oct 15 10:08:22 2019, MaxMem=   280000000 cpu:               1.1 elap:               0.1
 (Enter /home/soft/g16/l401.exe)
 ExpMin= 4.38D-02 ExpMax= 5.48D+03 ExpMxC= 8.25D+02 IAcc=3 IRadAn=         5 AccDes= 0.00D+00
 Harris functional with IExCor=  402 and IRadAn=       5 diagonalized for initial guess.
 HarFok:  IExCor=  402 AccDes= 0.00D+00 IRadAn=         5 IDoV= 1 UseB2=F ITyADJ=14
 ICtDFT=  3500011 ScaDFX=  1.000000  1.000000  1.000000  1.000000
 FoFCou: FMM=F IPFlag=           0 FMFlag=      100000 FMFlg1=           0
         NFxFlg=           0 DoJE=T BraDBF=F KetDBF=T FulRan=T
         wScrn=  0.000000 ICntrl=       500 IOpCl=  0 I1Cent=   200000004 NGrid=           0
         NMat0=    1 NMatS0=      1 NMatT0=    0 NMatD0=    1 NMtDS0=    0 NMtDT0=    0
 Petite list used in FoFCou.
 Harris En= -270.466211132569    
 JPrj=0 DoOrth=F DoCkMO=F.
 Leave Link  401 at Tue Oct 15 10:08:23 2019, MaxMem=   280000000 cpu:               8.3 elap:               0.4
 (Enter /home/soft/g16/l502.exe)
 Integral symmetry usage will be decided dynamically.
 Closed shell SCF:
 Using DIIS extrapolation, IDIIS=  1040.
 NGot=   280000000 LenX=   279961518 LenY=   279944177
 Requested convergence on RMS density matrix=1.00D-08 within 128 cycles.
 Requested convergence on MAX density matrix=1.00D-06.
 Requested convergence on             energy=1.00D-06.
 No special actions if energy rises.
 Fock matrices will be formed incrementally for  20 cycles.

 Cycle   1  Pass 1  IDiag  1:
 FoFJK:  IHMeth= 1 ICntrl=       0 DoSepK=F KAlg= 0 I1Cent=           0 FoldK=F
 IRaf= 990000000 NMat=       1 IRICut=       1 DoRegI=T DoRafI=F ISym2E= 0 IDoP0=0 IntGTp=1.
 FoFCou: FMM=F IPFlag=           0 FMFlag=      100000 FMFlg1=           0
         NFxFlg=           0 DoJE=F BraDBF=F KetDBF=F FulRan=T
         wScrn=  0.000000 ICntrl=         0 IOpCl=  0 I1Cent=           0 NGrid=           0
         NMat0=    1 NMatS0=      1 NMatT0=    0 NMatD0=    1 NMtDS0=    0 NMtDT0=    0
 Symmetry not used in FoFCou.
 E= -270.133730563186    
 DIIS: error= 2.37D-02 at cycle   1 NSaved=   1.
 NSaved= 1 IEnMin= 1 EnMin= -270.133730563186     IErMin= 1 ErrMin= 2.37D-02
 ErrMax= 2.37D-02  0.00D+00 EMaxC= 1.00D-01 BMatC= 2.26D-01 BMatP= 2.26D-01
 IDIUse=3 WtCom= 7.63D-01 WtEn= 2.37D-01
 Coeff-Com:  0.100D+01
 Coeff-En:   0.100D+01
 Coeff:      0.100D+01
 Gap=    -0.289 Goal=   None    Shift=    0.000
 GapD=   -0.289 DampG=0.250 DampE=0.500 DampFc=0.2500 IDamp=-1.
 Damping current iteration by 2.50D-01
 RMSDP=3.10D-02 MaxDP=1.21D+00              OVMax= 7.25D-01

 Cycle   2  Pass 1  IDiag  1:
 RMSU=  7.76D-03    CP:  9.95D-01
 E= -270.250610120981     Delta-E=       -0.116879557794 Rises=F Damp=T
 DIIS: error= 1.32D-02 at cycle   2 NSaved=   2.
 NSaved= 2 IEnMin= 2 EnMin= -270.250610120981     IErMin= 2 ErrMin= 1.32D-02
 ErrMax= 1.32D-02  0.00D+00 EMaxC= 1.00D-01 BMatC= 3.92D-02 BMatP= 2.26D-01
 IDIUse=3 WtCom= 8.68D-01 WtEn= 1.32D-01
 Coeff-Com: -0.178D+00 0.118D+01
 Coeff-En:   0.107D+00 0.893D+00
 Coeff:     -0.140D+00 0.114D+01
 Gap=     0.335 Goal=   None    Shift=    0.000
 RMSDP=9.45D-03 MaxDP=2.28D-01 DE=-1.17D-01 OVMax= 9.85D-01

 Cycle   3  Pass 1  IDiag  1:
 RMSU=  7.61D-03    CP:  9.73D-01  2.81D-01
 E= -270.295225877701     Delta-E=       -0.044615756721 Rises=F Damp=F
 DIIS: error= 1.65D-02 at cycle   3 NSaved=   3.
 NSaved= 3 IEnMin= 3 EnMin= -270.295225877701     IErMin= 2 ErrMin= 1.32D-02
 ErrMax= 1.65D-02  0.00D+00 EMaxC= 1.00D-01 BMatC= 8.90D-02 BMatP= 3.92D-02
 IDIUse=2 WtCom= 0.00D+00 WtEn= 1.00D+00
 Coeff-En:   0.000D+00 0.347D+00 0.653D+00
 Coeff:      0.000D+00 0.347D+00 0.653D+00
 Gap=    -0.104 Goal=   None    Shift=    0.000
 RMSDP=1.60D-02 MaxDP=3.70D-01 DE=-4.46D-02 OVMax= 9.88D-01

 Cycle   4  Pass 1  IDiag  1:
 RMSU=  9.31D-03    CP:  9.40D-01  1.49D+00 -1.79D-01
 E= -269.482066038600     Delta-E=        0.813159839101 Rises=F Damp=F
 DIIS: error= 5.06D-02 at cycle   4 NSaved=   4.
 NSaved= 4 IEnMin= 3 EnMin= -270.295225877701     IErMin= 2 ErrMin= 1.32D-02
 ErrMax= 5.06D-02  0.00D+00 EMaxC= 1.00D-01 BMatC= 5.91D-01 BMatP= 3.92D-02
 IDIUse=2 WtCom= 0.00D+00 WtEn= 1.00D+00
 Coeff-En:   0.000D+00 0.000D+00 0.786D+00 0.214D+00
 Coeff:      0.000D+00 0.000D+00 0.786D+00 0.214D+00
 Gap=     0.003 Goal=   None    Shift=    0.000
 RMSDP=1.46D-02 MaxDP=4.02D-01 DE= 8.13D-01 OVMax= 9.63D-01

 Cycle   5  Pass 1  IDiag  1:
 RMSU=  4.49D-03    CP:  9.73D-01  1.31D-01  2.99D-01  1.09D-01
 E= -270.377255617877     Delta-E=       -0.895189579277 Rises=F Damp=F
 DIIS: error= 8.80D-03 at cycle   5 NSaved=   5.
 NSaved= 5 IEnMin= 5 EnMin= -270.377255617877     IErMin= 5 ErrMin= 8.80D-03
 ErrMax= 8.80D-03  0.00D+00 EMaxC= 1.00D-01 BMatC= 2.29D-02 BMatP= 3.92D-02
 IDIUse=3 WtCom= 9.12D-01 WtEn= 8.80D-02
 EnCoef did    10 forward-backward iterations
 Coeff-Com: -0.335D+00 0.577D+00 0.280D+00-0.269D-01 0.505D+00
 Coeff-En:   0.000D+00 0.000D+00 0.120D+00 0.712D-01 0.809D+00
 Coeff:     -0.305D+00 0.526D+00 0.266D+00-0.183D-01 0.532D+00
 Gap=     0.010 Goal=   None    Shift=    0.000
 RMSDP=5.03D-03 MaxDP=1.24D-01 DE=-8.95D-01 OVMax= 2.79D-01

 Cycle   6  Pass 1  IDiag  1:
 RMSU=  4.09D-03    CP:  9.56D-01  3.84D-01  1.15D-01  2.55D-01  1.18D+00
 E= -270.393379550399     Delta-E=       -0.016123932522 Rises=F Damp=F
 DIIS: error= 5.53D-03 at cycle   6 NSaved=   6.
 NSaved= 6 IEnMin= 6 EnMin= -270.393379550399     IErMin= 6 ErrMin= 5.53D-03
 ErrMax= 5.53D-03  0.00D+00 EMaxC= 1.00D-01 BMatC= 9.82D-03 BMatP= 2.29D-02
 IDIUse=3 WtCom= 9.45D-01 WtEn= 5.53D-02
 EnCoef did     3 forward-backward iterations
 Coeff-Com: -0.202D+00 0.309D+00 0.187D+00-0.316D-01 0.416D+00 0.322D+00
 Coeff-En:   0.000D+00 0.000D+00 0.261D-02 0.000D+00 0.319D+00 0.679D+00
 Coeff:     -0.190D+00 0.291D+00 0.177D+00-0.298D-01 0.410D+00 0.341D+00
 Gap=     0.024 Goal=   None    Shift=    0.000
 RMSDP=2.02D-03 MaxDP=4.76D-02 DE=-1.61D-02 OVMax= 1.02D-01

 Cycle   7  Pass 1  IDiag  1:
 RMSU=  4.66D-04    CP:  9.60D-01  2.76D-01  2.57D-01  1.71D-01  1.16D+00
                    CP:  7.17D-01
 E= -270.404804290473     Delta-E=       -0.011424740074 Rises=F Damp=F
 DIIS: error= 9.93D-04 at cycle   7 NSaved=   7.
 NSaved= 7 IEnMin= 7 EnMin= -270.404804290473     IErMin= 7 ErrMin= 9.93D-04
 ErrMax= 9.93D-04  0.00D+00 EMaxC= 1.00D-01 BMatC= 2.01D-04 BMatP= 9.82D-03
 IDIUse=3 WtCom= 9.90D-01 WtEn= 9.93D-03
 Coeff-Com: -0.251D-01 0.335D-01 0.400D-01-0.673D-02 0.947D-01 0.152D-01
 Coeff-Com:  0.848D+00
 Coeff-En:   0.000D+00 0.000D+00 0.000D+00 0.000D+00 0.000D+00 0.000D+00
 Coeff-En:   0.100D+01
 Coeff:     -0.249D-01 0.332D-01 0.396D-01-0.666D-02 0.937D-01 0.150D-01
 Coeff:      0.850D+00
 Gap=     0.031 Goal=   None    Shift=    0.000
 RMSDP=1.03D-03 MaxDP=2.54D-02 DE=-1.14D-02 OVMax= 5.69D-02

 Cycle   8  Pass 1  IDiag  1:
 RMSU=  3.03D-04    CP:  9.57D-01  3.17D-01  1.82D-01  2.15D-01  1.18D+00
                    CP:  8.61D-01  7.84D-01
 E= -270.402747096337     Delta-E=        0.002057194136 Rises=F Damp=F
 DIIS: error= 2.52D-03 at cycle   8 NSaved=   8.
 NSaved= 8 IEnMin= 7 EnMin= -270.404804290473     IErMin= 7 ErrMin= 9.93D-04
 ErrMax= 2.52D-03  0.00D+00 EMaxC= 1.00D-01 BMatC= 1.75D-03 BMatP= 2.01D-04
 IDIUse=3 WtCom= 9.90D-01 WtEn= 9.93D-03
 Rare condition: small coef for last iteration:  0.000D+00
 Coeff-Com: -0.176D-01 0.233D-01 0.378D-01-0.582D-02 0.818D-01-0.115D-01
 Coeff-Com:  0.813D+00 0.794D-01
 Coeff-En:   0.000D+00 0.000D+00 0.000D+00 0.000D+00 0.237D-01 0.000D+00
 Coeff-En:   0.000D+00 0.976D+00
 Coeff:     -0.176D-01 0.233D-01 0.378D-01-0.582D-02 0.818D-01-0.115D-01
 Coeff:      0.813D+00 0.794D-01
 Gap=     0.032 Goal=   None    Shift=    0.000
 RMSDP=4.39D-05 MaxDP=6.43D-04 DE= 2.06D-03 OVMax= 2.54D-03

 Cycle   9  Pass 1  IDiag  1:
 RMSU=  1.35D-05    CP:  9.57D-01  3.14D-01  1.85D-01  2.13D-01  1.17D+00
                    CP:  8.57D-01  7.89D-01  1.01D+00
 E= -270.403005179299     Delta-E=       -0.000258082962 Rises=F Damp=F
 DIIS: error= 2.37D-03 at cycle   9 NSaved=   9.
 NSaved= 9 IEnMin= 7 EnMin= -270.404804290473     IErMin= 7 ErrMin= 9.93D-04
 ErrMax= 2.37D-03  0.00D+00 EMaxC= 1.00D-01 BMatC= 1.55D-03 BMatP= 2.01D-04
 IDIUse=3 WtCom= 9.90D-01 WtEn= 9.93D-03
 Coeff-Com: -0.143D-02 0.200D-02 0.148D-01 0.277D-03 0.227D-01-0.154D+00
 Coeff-Com:  0.317D+00-0.703D+01 0.783D+01
 Coeff-En:   0.000D+00 0.000D+00 0.000D+00 0.000D+00 0.699D-02 0.000D+00
 Coeff-En:   0.000D+00 0.000D+00 0.993D+00
 Coeff:     -0.141D-02 0.198D-02 0.146D-01 0.274D-03 0.226D-01-0.152D+00
 Coeff:      0.314D+00-0.696D+01 0.776D+01
 Gap=     0.036 Goal=   None    Shift=    0.000
 RMSDP=6.84D-04 MaxDP=1.23D-02 DE=-2.58D-04 OVMax= 4.13D-02

 Cycle  10  Pass 1  IDiag  1:
 RMSU=  1.22D-04    CP:  9.59D-01  2.74D-01  2.33D-01  1.84D-01  1.13D+00
                    CP:  7.83D-01  9.35D-01  9.24D-01  3.00D+00
 E= -270.405021785968     Delta-E=       -0.002016606669 Rises=F Damp=F
 DIIS: error= 2.69D-04 at cycle  10 NSaved=  10.
 NSaved=10 IEnMin=10 EnMin= -270.405021785968     IErMin=10 ErrMin= 2.69D-04
 ErrMax= 2.69D-04  0.00D+00 EMaxC= 1.00D-01 BMatC= 2.14D-05 BMatP= 2.01D-04
 IDIUse=3 WtCom= 9.97D-01 WtEn= 2.69D-03
 Coeff-Com:  0.320D-03-0.436D-03 0.655D-02 0.424D-03 0.855D-02-0.775D-01
 Coeff-Com:  0.149D+00-0.363D+01 0.397D+01 0.575D+00
 Coeff-En:   0.000D+00 0.000D+00 0.000D+00 0.000D+00 0.000D+00 0.000D+00
 Coeff-En:   0.000D+00 0.000D+00 0.000D+00 0.100D+01
 Coeff:      0.319D-03-0.434D-03 0.653D-02 0.423D-03 0.853D-02-0.773D-01
 Coeff:      0.148D+00-0.362D+01 0.395D+01 0.576D+00
 Gap=     0.036 Goal=   None    Shift=    0.000
 RMSDP=3.25D-05 MaxDP=5.37D-04 DE=-2.02D-03 OVMax= 1.12D-03

 Cycle  11  Pass 1  IDiag  1:
 RMSU=  2.20D-05    CP:  9.59D-01  2.74D-01  2.32D-01  1.84D-01  1.13D+00
                    CP:  7.82D-01  9.42D-01  9.91D-01  3.00D+00  1.06D+00
 E= -270.405036176224     Delta-E=       -0.000014390257 Rises=F Damp=F
 DIIS: error= 1.97D-04 at cycle  11 NSaved=  11.
 NSaved=11 IEnMin=11 EnMin= -270.405036176224     IErMin=11 ErrMin= 1.97D-04
 ErrMax= 1.97D-04  0.00D+00 EMaxC= 1.00D-01 BMatC= 1.00D-05 BMatP= 2.14D-05
 IDIUse=3 WtCom= 9.98D-01 WtEn= 1.97D-03
 Coeff-Com:  0.124D-04 0.312D-03 0.229D-02 0.256D-03 0.179D-02-0.165D-01
 Coeff-Com:  0.885D-02-0.105D+01 0.107D+01 0.246D+00 0.731D+00
 Coeff-En:   0.000D+00 0.000D+00 0.000D+00 0.000D+00 0.000D+00 0.000D+00
 Coeff-En:   0.000D+00 0.000D+00 0.000D+00 0.000D+00 0.100D+01
 Coeff:      0.123D-04 0.311D-03 0.228D-02 0.256D-03 0.179D-02-0.165D-01
 Coeff:      0.884D-02-0.104D+01 0.107D+01 0.245D+00 0.732D+00
 Gap=     0.037 Goal=   None    Shift=    0.000
 RMSDP=6.19D-05 MaxDP=1.03D-03 DE=-1.44D-05 OVMax= 4.09D-03

 Cycle  12  Pass 1  IDiag  1:
 RMSU=  5.23D-06    CP:  9.59D-01  2.70D-01  2.36D-01  1.81D-01  1.12D+00
                    CP:  7.76D-01  9.48D-01  9.93D-01  3.00D+00  1.22D+00
                    CP:  1.22D+00
 E= -270.405049259558     Delta-E=       -0.000013083334 Rises=F Damp=F
 DIIS: error= 1.65D-05 at cycle  12 NSaved=  12.
 NSaved=12 IEnMin=12 EnMin= -270.405049259558     IErMin=12 ErrMin= 1.65D-05
 ErrMax= 1.65D-05  0.00D+00 EMaxC= 1.00D-01 BMatC= 7.43D-08 BMatP= 1.00D-05
 IDIUse=1 WtCom= 1.00D+00 WtEn= 0.00D+00
 Coeff-Com: -0.168D-04 0.157D-04 0.268D-03 0.294D-04 0.120D-03 0.598D-03
 Coeff-Com: -0.329D-02-0.323D-01 0.198D-01 0.205D-01 0.226D+00 0.769D+00
 Coeff:     -0.168D-04 0.157D-04 0.268D-03 0.294D-04 0.120D-03 0.598D-03
 Coeff:     -0.329D-02-0.323D-01 0.198D-01 0.205D-01 0.226D+00 0.769D+00
 Gap=     0.037 Goal=   None    Shift=    0.000
 RMSDP=1.37D-05 MaxDP=3.83D-04 DE=-1.31D-05 OVMax= 6.36D-04

 Cycle  13  Pass 1  IDiag  1:
 RMSU=  2.88D-06    CP:  9.59D-01  2.71D-01  2.35D-01  1.82D-01  1.12D+00
                    CP:  7.78D-01  9.45D-01  1.00D+00  3.00D+00  1.24D+00
                    CP:  1.25D+00  1.07D+00
 E= -270.405049371169     Delta-E=       -0.000000111611 Rises=F Damp=F
 DIIS: error= 7.05D-06 at cycle  13 NSaved=  13.
 NSaved=13 IEnMin=13 EnMin= -270.405049371169     IErMin=13 ErrMin= 7.05D-06
 ErrMax= 7.05D-06  0.00D+00 EMaxC= 1.00D-01 BMatC= 1.36D-08 BMatP= 7.43D-08
 IDIUse=1 WtCom= 1.00D+00 WtEn= 0.00D+00
 Coeff-Com: -0.583D-04 0.912D-04-0.142D-04-0.867D-05-0.881D-04 0.185D-02
 Coeff-Com: -0.451D-02 0.673D-01-0.769D-01-0.108D-01 0.424D-01 0.298D+00
 Coeff-Com:  0.683D+00
 Coeff:     -0.583D-04 0.912D-04-0.142D-04-0.867D-05-0.881D-04 0.185D-02
 Coeff:     -0.451D-02 0.673D-01-0.769D-01-0.108D-01 0.424D-01 0.298D+00
 Coeff:      0.683D+00
 Gap=     0.037 Goal=   None    Shift=    0.000
 RMSDP=2.40D-06 MaxDP=4.82D-05 DE=-1.12D-07 OVMax= 1.20D-04

 Cycle  14  Pass 1  IDiag  1:
 RMSU=  5.66D-07    CP:  9.59D-01  2.71D-01  2.35D-01  1.81D-01  1.12D+00
                    CP:  7.78D-01  9.45D-01  1.00D+00  3.00D+00  1.25D+00
                    CP:  1.29D+00  1.16D+00  1.11D+00
 E= -270.405049387882     Delta-E=       -0.000000016714 Rises=F Damp=F
 DIIS: error= 6.80D-07 at cycle  14 NSaved=  14.
 NSaved=14 IEnMin=14 EnMin= -270.405049387882     IErMin=14 ErrMin= 6.80D-07
 ErrMax= 6.80D-07  0.00D+00 EMaxC= 1.00D-01 BMatC= 1.26D-10 BMatP= 1.36D-08
 IDIUse=1 WtCom= 1.00D+00 WtEn= 0.00D+00
 Coeff-Com: -0.164D-04 0.224D-04-0.332D-04-0.619D-05-0.548D-04 0.721D-03
 Coeff-Com: -0.148D-02 0.331D-01-0.361D-01-0.710D-02-0.229D-02 0.658D-01
 Coeff-Com:  0.317D+00 0.631D+00
 Coeff:     -0.164D-04 0.224D-04-0.332D-04-0.619D-05-0.548D-04 0.721D-03
 Coeff:     -0.148D-02 0.331D-01-0.361D-01-0.710D-02-0.229D-02 0.658D-01
 Coeff:      0.317D+00 0.631D+00
 Gap=     0.037 Goal=   None    Shift=    0.000
 RMSDP=9.07D-07 MaxDP=2.80D-05 DE=-1.67D-08 OVMax= 2.32D-05

 Cycle  15  Pass 1  IDiag  1:
 RMSU=  1.71D-07    CP:  9.59D-01  2.71D-01  2.35D-01  1.81D-01  1.12D+00
                    CP:  7.79D-01  9.45D-01  1.00D+00  3.00D+00  1.25D+00
                    CP:  1.30D+00  1.19D+00  1.16D+00  1.14D+00
 E= -270.405049388045     Delta-E=       -0.000000000163 Rises=F Damp=F
 DIIS: error= 2.43D-07 at cycle  15 NSaved=  15.
 NSaved=15 IEnMin=15 EnMin= -270.405049388045     IErMin=15 ErrMin= 2.43D-07
 ErrMax= 2.43D-07  0.00D+00 EMaxC= 1.00D-01 BMatC= 2.17D-11 BMatP= 1.26D-10
 IDIUse=1 WtCom= 1.00D+00 WtEn= 0.00D+00
 Coeff-Com: -0.870D-06 0.209D-08-0.258D-05-0.566D-06-0.144D-06 0.431D-05
 Coeff-Com:  0.568D-04 0.192D-02-0.176D-02-0.106D-02-0.530D-02-0.108D-01
 Coeff-Com:  0.403D-01 0.233D+00 0.744D+00
 Coeff:     -0.870D-06 0.209D-08-0.258D-05-0.566D-06-0.144D-06 0.431D-05
 Coeff:      0.568D-04 0.192D-02-0.176D-02-0.106D-02-0.530D-02-0.108D-01
 Coeff:      0.403D-01 0.233D+00 0.744D+00
 Gap=     0.037 Goal=   None    Shift=    0.000
 RMSDP=2.47D-07 MaxDP=6.63D-06 DE=-1.63D-10 OVMax= 3.30D-06

 Cycle  16  Pass 1  IDiag  1:
 RMSU=  6.11D-08    CP:  9.59D-01  2.71D-01  2.35D-01  1.81D-01  1.12D+00
                    CP:  7.79D-01  9.45D-01  1.00D+00  3.00D+00  1.25D+00
                    CP:  1.30D+00  1.20D+00  1.20D+00  1.18D+00  9.26D-01
 E= -270.405049388057     Delta-E=       -0.000000000012 Rises=F Damp=F
 DIIS: error= 2.39D-07 at cycle  16 NSaved=  16.
 NSaved=16 IEnMin=16 EnMin= -270.405049388057     IErMin=16 ErrMin= 2.39D-07
 ErrMax= 2.39D-07  0.00D+00 EMaxC= 1.00D-01 BMatC= 1.53D-11 BMatP= 2.17D-11
 IDIUse=1 WtCom= 1.00D+00 WtEn= 0.00D+00
 Coeff-Com:  0.565D-07 0.232D-06-0.340D-06 0.423D-07-0.429D-06-0.962D-05
 Coeff-Com:  0.147D-04-0.305D-03 0.345D-03-0.291D-04-0.150D-02-0.662D-02
 Coeff-Com: -0.793D-02 0.181D-01 0.181D+00 0.817D+00
 Coeff:      0.565D-07 0.232D-06-0.340D-06 0.423D-07-0.429D-06-0.962D-05
 Coeff:      0.147D-04-0.305D-03 0.345D-03-0.291D-04-0.150D-02-0.662D-02
 Coeff:     -0.793D-02 0.181D-01 0.181D+00 0.817D+00
 Gap=     0.037 Goal=   None    Shift=    0.000
 RMSDP=1.07D-07 MaxDP=2.00D-06 DE=-1.21D-11 OVMax= 6.78D-06

 Cycle  17  Pass 1  IDiag  1:
 RMSU=  1.24D-08    CP:  9.59D-01  2.71D-01  2.35D-01  1.81D-01  1.12D+00
                    CP:  7.79D-01  9.45D-01  1.00D+00  3.00D+00  1.25D+00
                    CP:  1.30D+00  1.20D+00  1.21D+00  1.19D+00  9.99D-01
                    CP:  1.16D+00
 E= -270.405049388075     Delta-E=       -0.000000000018 Rises=F Damp=F
 DIIS: error= 1.15D-07 at cycle  17 NSaved=  17.
 NSaved=17 IEnMin=17 EnMin= -270.405049388075     IErMin=17 ErrMin= 1.15D-07
 ErrMax= 1.15D-07  0.00D+00 EMaxC= 1.00D-01 BMatC= 3.40D-12 BMatP= 1.53D-11
 IDIUse=1 WtCom= 1.00D+00 WtEn= 0.00D+00
 Coeff-Com:  0.120D-06-0.162D-06 0.633D-06 0.545D-07 0.104D-05-0.135D-04
 Coeff-Com:  0.329D-04-0.585D-03 0.644D-03 0.102D-03-0.279D-03-0.220D-02
 Coeff-Com: -0.446D-02-0.476D-02 0.338D-01 0.366D+00 0.611D+00
 Coeff:      0.120D-06-0.162D-06 0.633D-06 0.545D-07 0.104D-05-0.135D-04
 Coeff:      0.329D-04-0.585D-03 0.644D-03 0.102D-03-0.279D-03-0.220D-02
 Coeff:     -0.446D-02-0.476D-02 0.338D-01 0.366D+00 0.611D+00
 Gap=     0.037 Goal=   None    Shift=    0.000
 RMSDP=3.73D-08 MaxDP=7.26D-07 DE=-1.83D-11 OVMax= 2.17D-06

 Cycle  18  Pass 1  IDiag  1:
 RMSU=  3.01D-09    CP:  9.59D-01  2.71D-01  2.35D-01  1.81D-01  1.12D+00
                    CP:  7.79D-01  9.45D-01  1.00D+00  3.00D+00  1.25D+00
                    CP:  1.30D+00  1.20D+00  1.21D+00  1.20D+00  1.01D+00
                    CP:  1.19D+00  1.04D+00
 E= -270.405049388076     Delta-E=       -0.000000000001 Rises=F Damp=F
 DIIS: error= 2.62D-09 at cycle  18 NSaved=  18.
 NSaved=18 IEnMin=18 EnMin= -270.405049388076     IErMin=18 ErrMin= 2.62D-09
 ErrMax= 2.62D-09  0.00D+00 EMaxC= 1.00D-01 BMatC= 2.60D-15 BMatP= 3.40D-12
 IDIUse=1 WtCom= 1.00D+00 WtEn= 0.00D+00
 Coeff-Com:  0.278D-07-0.215D-07 0.382D-07 0.761D-08-0.463D-07-0.481D-06
 Coeff-Com:  0.367D-06-0.473D-04 0.470D-04 0.284D-04 0.142D-03 0.120D-03
 Coeff-Com: -0.349D-03-0.508D-02-0.179D-01 0.130D-01 0.170D+00 0.840D+00
 Coeff:      0.278D-07-0.215D-07 0.382D-07 0.761D-08-0.463D-07-0.481D-06
 Coeff:      0.367D-06-0.473D-04 0.470D-04 0.284D-04 0.142D-03 0.120D-03
 Coeff:     -0.349D-03-0.508D-02-0.179D-01 0.130D-01 0.170D+00 0.840D+00
 Gap=     0.037 Goal=   None    Shift=    0.000
 RMSDP=4.66D-09 MaxDP=1.31D-07 DE=-7.96D-13 OVMax= 7.83D-08

 SCF Done:  E(RB3LYP) =  -270.405049388     A.U. after   18 cycles
            NFock= 18  Conv=0.47D-08     -V/T= 2.0097
 KE= 2.678123101210D+02 PE=-1.106648426120D+03 EE= 3.290610630209D+02
 Leave Link  502 at Tue Oct 15 10:08:28 2019, MaxMem=   280000000 cpu:             131.3 elap:               5.6
 (Enter /home/soft/g16/l801.exe)
 DoSCS=F DFT=T ScalE2(SS,OS)=  1.000000  1.000000
 Range of M.O.s used for correlation:     1   130
 NBasis=   130 NAE=    23 NBE=    23 NFC=     0 NFV=     0
 NROrb=    130 NOA=    23 NOB=    23 NVA=   107 NVB=   107

 **** Warning!!: The largest alpha MO coefficient is  0.45614374D+02


 **** Warning!!: The smallest alpha delta epsilon is  0.36610473D-01

 Leave Link  801 at Tue Oct 15 10:08:28 2019, MaxMem=   280000000 cpu:               0.5 elap:               0.0
 (Enter /home/soft/g16/l1101.exe)
 Using compressed storage, NAtomX=    14.
 Will process     15 centers per pass.
 Leave Link 1101 at Tue Oct 15 10:08:28 2019, MaxMem=   280000000 cpu:               3.0 elap:               0.2
 (Enter /home/soft/g16/l1102.exe)
 Symmetrizing basis deriv contribution to polar:
 IMax=3 JMax=2 DiffMx= 0.00D+00
 Leave Link 1102 at Tue Oct 15 10:08:28 2019, MaxMem=   280000000 cpu:               0.6 elap:               0.0
 (Enter /home/soft/g16/l1110.exe)
 Forming Gx(P) for the SCF density, NAtomX=    14.
 Integral derivatives from FoFJK, PRISM(SPDF).
 Do as many integral derivatives as possible in FoFJK.
 G2DrvN: MDV=     279998856.
 G2DrvN: will do    15 centers at a time, making    1 passes.
 Calling FoFCou, ICntrl=  3107 FMM=F I1Cent=   0 AccDes= 0.00D+00.
 FoFJK:  IHMeth= 1 ICntrl=    3107 DoSepK=F KAlg= 0 I1Cent=           0 FoldK=F
 IRaf=         0 NMat=       1 IRICut=       1 DoRegI=T DoRafI=F ISym2E= 0 IDoP0=0 IntGTp=1.
 FoFCou: FMM=F IPFlag=           0 FMFlag=      100000 FMFlg1=           0
         NFxFlg=           0 DoJE=F BraDBF=F KetDBF=F FulRan=T
         wScrn=  0.000000 ICntrl=      3107 IOpCl=  0 I1Cent=           0 NGrid=           0
         NMat0=    1 NMatS0=      1 NMatT0=    0 NMatD0=    1 NMtDS0=    0 NMtDT0=    0
 Symmetry not used in FoFCou.
 End of G2Drv F.D. properties file   721 does not exist.
 End of G2Drv F.D. properties file   722 does not exist.
 End of G2Drv F.D. properties file   788 does not exist.
 Leave Link 1110 at Tue Oct 15 10:08:34 2019, MaxMem=   280000000 cpu:             134.3 elap:               5.6
 (Enter /home/soft/g16/l1002.exe)
 Minotr:  Closed shell wavefunction.
          IDoAtm=11111111111111
          Direct CPHF calculation.
          Differentiating once with respect to nuclear coordinates.
          Requested convergence is 1.0D-08 RMS, and 1.0D-07 maximum.
          Secondary convergence is 1.0D-12 RMS, and 1.0D-12 maximum.
          NewPWx=T KeepS1=F KeepF1=F KeepIn=T MapXYZ=F SortEE=F KeepMc=T.
         4236 words used for storage of precomputed grid.
 Keep R1 ints in memory in canonical form, NReq=59094296.
 FoFCou: FMM=F IPFlag=           0 FMFlag=           0 FMFlg1=           0
         NFxFlg=           0 DoJE=F BraDBF=F KetDBF=F FulRan=T
         wScrn=  0.000000 ICntrl=       600 IOpCl=  0 I1Cent=           0 NGrid=           0
         NMat0=    1 NMatS0=   8515 NMatT0=    0 NMatD0=    1 NMtDS0=    0 NMtDT0=    0
 Symmetry not used in FoFCou.
 Two-electron integral symmetry not used.
          MDV=     280000000 using IRadAn=       1.
          Solving linear equations simultaneously, MaxMat=       0.
          There are    45 degrees of freedom in the 1st order CPHF.  IDoFFX=6 NUNeed=     0.
     39 vectors produced by pass  0 Test12= 5.47D-15 2.22D-09 XBig12= 1.59D-01 1.92D-01.
 AX will form    39 AO Fock derivatives at one time.
     39 vectors produced by pass  1 Test12= 5.47D-15 2.22D-09 XBig12= 5.41D-02 4.21D-02.
     39 vectors produced by pass  2 Test12= 5.47D-15 2.22D-09 XBig12= 3.70D-04 2.78D-03.
     39 vectors produced by pass  3 Test12= 5.47D-15 2.22D-09 XBig12= 1.61D-06 2.00D-04.
     39 vectors produced by pass  4 Test12= 5.47D-15 2.22D-09 XBig12= 2.60D-09 7.18D-06.
     35 vectors produced by pass  5 Test12= 5.47D-15 2.22D-09 XBig12= 2.11D-12 1.58D-07.
      4 vectors produced by pass  6 Test12= 5.47D-15 2.22D-09 XBig12= 1.46D-15 4.86D-09.
 InvSVY:  IOpt=1 It=  1 EMax= 2.00D-15
 Solved reduced A of dimension   234 with    39 vectors.
 End of Minotr F.D. properties file   721 does not exist.
 End of Minotr F.D. properties file   722 does not exist.
 End of Minotr F.D. properties file   788 does not exist.
 Leave Link 1002 at Tue Oct 15 10:08:42 2019, MaxMem=   280000000 cpu:             188.2 elap:               7.9
 (Enter /home/soft/g16/l601.exe)
 Copying SCF densities to generalized density rwf, IOpCl= 0 IROHF=0.

 **********************************************************************

            Population analysis using the SCF density.

 **********************************************************************

 Orbital symmetries:
       Occupied  (A) (A) (A) (A) (A) (A) (A) (A) (A) (A) (A) (A)
                 (A) (A) (A) (A) (A) (A) (A) (A) (A) (A) (A)
       Virtual   (A) (A) (A) (A) (A) (A) (A) (A) (A) (A) (A) (A)
                 (A) (A) (A) (A) (A) (A) (A) (A) (A) (A) (A) (A)
                 (A) (A) (A) (A) (A) (A) (A) (A) (A) (A) (A) (A)
                 (A) (A) (A) (A) (A) (A) (A) (A) (A) (A) (A) (A)
                 (A) (A) (A) (A) (A) (A) (A) (A) (A) (A) (A) (A)
                 (A) (A) (A) (A) (A) (A) (A) (A) (A) (A) (A) (A)
                 (A) (A) (A) (A) (A) (A) (A) (A) (A) (A) (A) (A)
                 (A) (A) (A) (A) (A) (A) (A) (A) (A) (A) (A) (A)
                 (A) (A) (A) (A) (A) (A) (A) (A) (A) (A) (A)
 The electronic state is 1-A.
 Alpha  occ. eigenvalues --  -19.24181 -10.29839 -10.25557 -10.20705 -10.18680
 Alpha  occ. eigenvalues --  -10.13167  -1.11674  -0.81247  -0.77812  -0.66236
 Alpha  occ. eigenvalues --   -0.63163  -0.55214  -0.51194  -0.49567  -0.48390
 Alpha  occ. eigenvalues --   -0.44292  -0.41511  -0.40041  -0.38535  -0.35136
 Alpha  occ. eigenvalues --   -0.33214  -0.31314  -0.12860
 Alpha virt. eigenvalues --   -0.09199   0.00005   0.02073   0.02412   0.03103
 Alpha virt. eigenvalues --    0.03620   0.05002   0.06478   0.06714   0.07900
 Alpha virt. eigenvalues --    0.08546   0.09957   0.10803   0.11104   0.11939
 Alpha virt. eigenvalues --    0.12588   0.12864   0.13504   0.15083   0.17173
 Alpha virt. eigenvalues --    0.17854   0.19521   0.20541   0.23023   0.23668
 Alpha virt. eigenvalues --    0.24552   0.25606   0.26188   0.27022   0.28755
 Alpha virt. eigenvalues --    0.29830   0.30364   0.31583   0.32767   0.34171
 Alpha virt. eigenvalues --    0.35605   0.38695   0.39349   0.40950   0.62987
 Alpha virt. eigenvalues --    0.64258   0.65017   0.65846   0.67549   0.69032
 Alpha virt. eigenvalues --    0.70172   0.72168   0.74631   0.76051   0.79393
 Alpha virt. eigenvalues --    0.82033   0.83818   0.90378   0.93960   0.94305
 Alpha virt. eigenvalues --    0.98942   1.01929   1.03872   1.05970   1.08506
 Alpha virt. eigenvalues --    1.10276   1.13386   1.14546   1.16965   1.19977
 Alpha virt. eigenvalues --    1.24737   1.38232   1.38786   1.41966   1.45841
 Alpha virt. eigenvalues --    1.46169   1.49619   1.53679   1.67305   1.70091
 Alpha virt. eigenvalues --    1.74267   1.80232   1.86299   1.88131   1.91065
 Alpha virt. eigenvalues --    1.94777   1.98331   2.01130   2.04715   2.09227
 Alpha virt. eigenvalues --    2.13545   2.17478   2.23283   2.26916   2.34718
 Alpha virt. eigenvalues --    2.40905   2.41267   2.44353   2.49996   2.57237
 Alpha virt. eigenvalues --    2.62812   2.69228   2.72193   2.78300   2.94073
 Alpha virt. eigenvalues --    3.01507   4.15107   4.23109   4.29055   4.40150
 Alpha virt. eigenvalues --    4.48109   4.59168
          Condensed to atoms (all electrons):
               1          2          3          4          5          6
     1  C    6.069027   0.335240   0.429751   0.022327  -0.066128  -0.066004
     2  H    0.335240   0.545642  -0.029681  -0.048454  -0.003392   0.009544
     3  H    0.429751  -0.029681   0.458144  -0.052753   0.002601  -0.004562
     4  C    0.022327  -0.048454  -0.052753   5.453888   0.402760   0.231391
     5  H   -0.066128  -0.003392   0.002601   0.402760   0.513935  -0.069252
     6  O   -0.066004   0.009544  -0.004562   0.231391  -0.069252   8.163612
     7  C    0.093469  -0.002629   0.003108  -0.180806   0.014187   0.057197
     8  H   -0.004374  -0.000034   0.000930  -0.010625  -0.000099  -0.030368
     9  H    0.000345   0.000065  -0.000235  -0.007961  -0.000156  -0.020219
    10  C   -0.316920   0.028455  -0.049906   0.233274  -0.009323  -0.073965
    11  H    0.029419  -0.000171   0.000587  -0.002025   0.000019   0.006403
    12  C    0.061528  -0.027618  -0.035775  -0.139521   0.008899   0.006649
    13  H   -0.040573  -0.006012  -0.002628   0.011599  -0.000128  -0.001146
    14  H   -0.063856   0.003158   0.002883  -0.047829   0.000141   0.015882
               7          8          9         10         11         12
     1  C    0.093469  -0.004374   0.000345  -0.316920   0.029419   0.061528
     2  H   -0.002629  -0.000034   0.000065   0.028455  -0.000171  -0.027618
     3  H    0.003108   0.000930  -0.000235  -0.049906   0.000587  -0.035775
     4  C   -0.180806  -0.010625  -0.007961   0.233274  -0.002025  -0.139521
     5  H    0.014187  -0.000099  -0.000156  -0.009323   0.000019   0.008899
     6  O    0.057197  -0.030368  -0.020219  -0.073965   0.006403   0.006649
     7  C    5.725194   0.398550   0.397795   0.007599  -0.057001  -0.095379
     8  H    0.398550   0.524425  -0.050617  -0.070368   0.000492   0.012471
     9  H    0.397795  -0.050617   0.565910  -0.097397  -0.002355   0.005850
    10  C    0.007599  -0.070368  -0.097397   6.271010   0.400835   0.114659
    11  H   -0.057001   0.000492  -0.002355   0.400835   0.545905  -0.072658
    12  C   -0.095379   0.012471   0.005850   0.114659  -0.072658   5.751818
    13  H    0.009305   0.000027  -0.000328  -0.059018  -0.004528   0.394873
    14  H   -0.001344  -0.000321   0.002960  -0.111974   0.000456   0.462626
              13         14
     1  C   -0.040573  -0.063856
     2  H   -0.006012   0.003158
     3  H   -0.002628   0.002883
     4  C    0.011599  -0.047829
     5  H   -0.000128   0.000141
     6  O   -0.001146   0.015882
     7  C    0.009305  -0.001344
     8  H    0.000027  -0.000321
     9  H   -0.000328   0.002960
    10  C   -0.059018  -0.111974
    11  H   -0.004528   0.000456
    12  C    0.394873   0.462626
    13  H    0.547614  -0.049394
    14  H   -0.049394   0.598881
 Mulliken charges:
               1
     1  C   -0.483250
     2  H    0.195888
     3  H    0.277537
     4  C    0.134735
     5  H    0.205939
     6  O   -0.225162
     7  C   -0.369247
     8  H    0.229910
     9  H    0.206342
    10  C   -0.266962
    11  H    0.154623
    12  C   -0.448421
    13  H    0.200335
    14  H    0.187733
 Sum of Mulliken charges =  -0.00000
 Mulliken charges with hydrogens summed into heavy atoms:
               1
     1  C   -0.009825
     4  C    0.340674
     6  O   -0.225162
     7  C    0.067005
    10  C   -0.112339
    12  C   -0.060353
 APT charges:
               1
     1  C   -0.917303
     2  H    0.519172
     3  H    0.416211
     4  C   -0.210367
     5  H    0.608332
     6  O   -0.228472
     7  C   -0.846243
     8  H    0.545583
     9  H    0.475186
    10  C   -0.729577
    11  H    0.482264
    12  C   -1.012823
    13  H    0.533286
    14  H    0.364753
 Sum of APT charges =  -0.00000
 APT charges with hydrogens summed into heavy atoms:
               1
     1  C    0.018080
     4  C    0.397965
     6  O   -0.228472
     7  C    0.174526
    10  C   -0.247313
    12  C   -0.114785
 Electronic spatial extent (au):  <R**2>=            511.9684
 Charge=             -0.0000 electrons
 Dipole moment (field-independent basis, Debye):
    X=              1.1111    Y=             -2.4645    Z=              1.0245  Tot=              2.8910
 Quadrupole moment (field-independent basis, Debye-Ang):
   XX=            -34.1581   YY=            -40.4600   ZZ=            -40.3259
   XY=             -1.0855   XZ=             -0.6852   YZ=              2.4443
 Traceless Quadrupole moment (field-independent basis, Debye-Ang):
   XX=              4.1566   YY=             -2.1453   ZZ=             -2.0112
   XY=             -1.0855   XZ=             -0.6852   YZ=              2.4443
 Octapole moment (field-independent basis, Debye-Ang**2):
  XXX=             -6.0033  YYY=            -17.6795  ZZZ=              5.1950  XYY=              7.5068
  XXY=             -3.4831  XXZ=             -0.1485  XZZ=              0.2453  YZZ=             -8.1082
  YYZ=              5.8528  XYZ=             -3.6706
 Hexadecapole moment (field-independent basis, Debye-Ang**3):
 XXXX=           -308.8863 YYYY=           -306.7599 ZZZZ=            -94.1377 XXXY=              2.8677
 XXXZ=              0.0801 YYYX=             -0.5010 YYYZ=              8.2182 ZZZX=             -5.6539
 ZZZY=              8.7897 XXYY=           -106.1610 XXZZ=            -69.0780 YYZZ=            -78.2510
 XXYZ=              1.2530 YYXZ=             -2.3981 ZZXY=              5.7673
 N-N= 2.393700035905D+02 E-N=-1.106648425839D+03  KE= 2.678123101210D+02
  Exact polarizability:   0.000   0.000   0.000   0.000   0.000   0.000
 Approx polarizability: 162.655-132.080 379.481  25.529 -57.357  93.289
 No NMR shielding tensors so no spin-rotation constants.
 Leave Link  601 at Tue Oct 15 10:08:42 2019, MaxMem=   280000000 cpu:               2.2 elap:               0.1
 (Enter /home/soft/g16/l701.exe)
 ... and contract with generalized density number  0.
 Compute integral second derivatives.
 Leave Link  701 at Tue Oct 15 10:08:42 2019, MaxMem=   280000000 cpu:               4.3 elap:               0.2
 (Enter /home/soft/g16/l702.exe)
 L702 exits ... SP integral derivatives will be done elsewhere.
 Leave Link  702 at Tue Oct 15 10:08:42 2019, MaxMem=   280000000 cpu:               0.4 elap:               0.0
 (Enter /home/soft/g16/l703.exe)
 Integral derivatives from FoFJK, PRISM(SPDF).
 Compute integral second derivatives, UseDBF=F ICtDFT=           0.
 Calling FoFJK, ICntrl=    100147 FMM=F ISym2X=0 I1Cent= 0 IOpClX= 0 NMat=1 NMatS=1 NMatT=0.
 FoFJK:  IHMeth= 1 ICntrl=  100147 DoSepK=F KAlg= 0 I1Cent=           0 FoldK=F
 IRaf=         0 NMat=       1 IRICut=       1 DoRegI=T DoRafI=F ISym2E= 0 IDoP0=0 IntGTp=1.
 FoFCou: FMM=F IPFlag=           0 FMFlag=      100000 FMFlg1=         800
         NFxFlg=           0 DoJE=F BraDBF=F KetDBF=F FulRan=T
         wScrn=  0.000000 ICntrl=    100147 IOpCl=  0 I1Cent=           0 NGrid=           0
         NMat0=    1 NMatS0=      1 NMatT0=    0 NMatD0=    1 NMtDS0=    0 NMtDT0=    0
 Symmetry not used in FoFCou.
 Leave Link  703 at Tue Oct 15 10:08:50 2019, MaxMem=   280000000 cpu:             184.6 elap:               7.7
 (Enter /home/soft/g16/l716.exe)
 Dipole        = 4.37133540D-01-9.69607923D-01 4.03064886D-01
 Polarizability= 0.00000000D+00 0.00000000D+00 0.00000000D+00
                 0.00000000D+00 0.00000000D+00 0.00000000D+00
 ***** Axes restored to original set *****
 -------------------------------------------------------------------
 Center     Atomic                   Forces (Hartrees/Bohr)
 Number     Number              X              Y              Z
 -------------------------------------------------------------------
      1        6          -0.011406495    0.006057318   -0.025074987
      2        1          -0.001576070    0.000788625    0.001049503
      3        1          -0.017591498    0.005867903    0.018805946
      4        6           0.008002417    0.003825673   -0.015788988
      5        1          -0.000295451   -0.001184046    0.004307498
      6        8           0.028006401    0.003525779    0.000168263
      7        6          -0.027495533   -0.006878958    0.010215249
      8        1          -0.003096166    0.004042804   -0.000014852
      9        1          -0.003595368    0.002889855   -0.001363500
     10        6           0.021014646    0.004934318    0.014809759
     11        1          -0.000847042   -0.002421494   -0.006753069
     12        6           0.010218151   -0.016646369    0.010577443
     13        1           0.002307305   -0.003884624    0.000502318
     14        1          -0.003645297   -0.000916783   -0.011440583
 -------------------------------------------------------------------
 Cartesian Forces:  Max     0.028006401 RMS     0.010905922
 FormGI is forming the generalized inverse of G from B-inverse, IUseBI=4.
 Leave Link  716 at Tue Oct 15 10:08:50 2019, MaxMem=   280000000 cpu:               1.8 elap:               0.1
 (Enter /home/soft/g16/l103.exe)

 GradGradGradGradGradGradGradGradGradGradGradGradGradGradGradGradGradGrad
 Berny optimization.
 Red2BG is reusing G-inverse.
 Internal  Forces:  Max     0.026222565 RMS     0.006877865
 Search for a saddle point.
 Step number   1 out of a maximum of   81
 All quantities printed in internal units (Hartrees-Bohrs-Radians)
 Swapping is turned off.
 Second derivative matrix not updated -- analytic derivatives used.
 ITU=  0
     Eigenvalues ---   -0.00295   0.00204   0.00462   0.00673   0.01487
     Eigenvalues ---    0.03242   0.03939   0.04518   0.04574   0.05371
     Eigenvalues ---    0.05719   0.06551   0.07125   0.07323   0.07428
     Eigenvalues ---    0.08404   0.09998   0.10360   0.13018   0.16925
     Eigenvalues ---    0.18670   0.21278   0.23140   0.24380   0.25428
     Eigenvalues ---    0.26185   0.27897   0.30080   0.30605   0.33293
     Eigenvalues ---    0.33715   0.33881   0.34029   0.35023   0.35642
     Eigenvalues ---    0.51206
 Eigenvectors required to have negative eigenvalues:
                          D25       D23       D26       D21       D24
   1                    0.35208   0.32527   0.31852   0.29398   0.29170
                          D22       D19       D20       D18       D17
   1                    0.26041  -0.23881  -0.23837  -0.23411   0.19814
 RFO step:  Lambda0=5.100012237D-03 Lambda=-2.04382048D-02.
 Linear search not attempted -- option 19 set.
 Maximum step size (   0.300) exceeded in Quadratic search.
    -- Step size scaled by   0.997
 Iteration  1 RMS(Cart)=  0.08825292 RMS(Int)=  0.02543046
 Iteration  2 RMS(Cart)=  0.02584680 RMS(Int)=  0.00329458
 Iteration  3 RMS(Cart)=  0.00084555 RMS(Int)=  0.00317283
 Iteration  4 RMS(Cart)=  0.00000078 RMS(Int)=  0.00317283
 ITry= 1 IFail=0 DXMaxC= 4.08D-01 DCOld= 1.00D+10 DXMaxT= 3.00D-01 DXLimC= 3.00D+00 Rises=F
 Variable       Old X    -DE/DX   Delta X   Delta X   Delta X     New X
                                 (Linear)    (Quad)   (Total)
    R1        2.06841   0.00183   0.00000   0.00371   0.00371   2.07213
    R2        2.12798  -0.02207   0.00000  -0.06030  -0.06030   2.06768
    R3        2.76029   0.01436   0.00000   0.03618   0.03570   2.79599
    R4        2.88383   0.02622   0.00000   0.06573   0.06644   2.95028
    R5        2.05865  -0.00033   0.00000  -0.00676  -0.00676   2.05189
    R6        2.43488   0.00882   0.00000   0.05170   0.05153   2.48641
    R7        2.88226  -0.01316   0.00000  -0.13826  -0.13788   2.74438
    R8        2.07305  -0.00082   0.00000   0.00704   0.00704   2.08009
    R9        2.09678  -0.00320   0.00000  -0.01797  -0.01797   2.07881
   R10        2.86139  -0.00998   0.00000  -0.04747  -0.04739   2.81399
   R11        2.06932  -0.00030   0.00000  -0.00878  -0.00878   2.06054
   R12        2.84167   0.00129   0.00000  -0.01152  -0.01205   2.82962
   R13        2.06847   0.00170   0.00000   0.00920   0.00920   2.07766
   R14        2.12914  -0.01141   0.00000  -0.04656  -0.04656   2.08258
    A1        1.92674  -0.00585   0.00000  -0.06293  -0.06243   1.86431
    A2        1.93681   0.00469   0.00000   0.00623   0.00718   1.94399
    A3        2.03454   0.00272   0.00000  -0.01384  -0.01229   2.02226
    A4        1.86571   0.00047   0.00000   0.01747   0.01489   1.88060
    A5        1.80558   0.00543   0.00000   0.04490   0.04235   1.84793
    A6        1.88349  -0.00768   0.00000   0.01345   0.01375   1.89725
    A7        2.18351  -0.00289   0.00000  -0.01400  -0.01208   2.17143
    A8        2.12489   0.00599   0.00000   0.02291   0.01848   2.14337
    A9        1.97185  -0.00264   0.00000  -0.00970  -0.00725   1.96460
   A10        2.14966  -0.00997   0.00000  -0.05266  -0.05778   2.09188
   A11        1.80355  -0.01119   0.00000  -0.07691  -0.07078   1.73277
   A12        1.75559  -0.00869   0.00000   0.05781   0.05708   1.81267
   A13        1.95706   0.01964   0.00000   0.10376   0.09676   2.05381
   A14        1.86892   0.00201   0.00000  -0.01450  -0.01588   1.85304
   A15        2.01094  -0.00271   0.00000  -0.01796  -0.01609   1.99485
   A16        2.03716  -0.00101   0.00000  -0.04735  -0.04992   1.98725
   A17        1.91040   0.00376   0.00000   0.05058   0.04887   1.95927
   A18        1.99270  -0.00621   0.00000   0.04856   0.03653   2.02923
   A19        1.99774   0.00335   0.00000   0.01320   0.01502   2.01275
   A20        1.84189   0.00331   0.00000   0.04088   0.03105   1.87295
   A21        1.89731   0.00226   0.00000   0.03868   0.03772   1.93503
   A22        1.90245  -0.00326   0.00000  -0.04662  -0.04099   1.86146
   A23        1.94278   0.00090   0.00000   0.01491   0.01695   1.95974
   A24        2.01861  -0.00264   0.00000  -0.03200  -0.03067   1.98793
   A25        1.85839  -0.00037   0.00000  -0.01259  -0.01325   1.84514
    D1       -0.29641   0.00181   0.00000  -0.06146  -0.06193  -0.35834
    D2        2.93326  -0.00496   0.00000  -0.04920  -0.04961   2.88365
    D3        1.80546  -0.00231   0.00000  -0.12355  -0.12448   1.68098
    D4       -1.24805  -0.00908   0.00000  -0.11129  -0.11216  -1.36021
    D5       -2.54538   0.00068   0.00000  -0.05821  -0.06174  -2.60712
    D6        0.68430  -0.00609   0.00000  -0.04595  -0.04942   0.63488
    D7        2.96131   0.00506   0.00000   0.11170   0.11232   3.07363
    D8        0.87566   0.00104   0.00000   0.05212   0.05207   0.92773
    D9       -1.14333   0.00201   0.00000   0.07123   0.07048  -1.07285
   D10        0.84339   0.00687   0.00000   0.16636   0.16765   1.01104
   D11       -1.24226   0.00285   0.00000   0.10679   0.10740  -1.13486
   D12        3.02193   0.00383   0.00000   0.12590   0.12582  -3.13544
   D13       -1.12958   0.00694   0.00000   0.12104   0.12429  -1.00529
   D14        3.06795   0.00292   0.00000   0.06147   0.06404   3.13199
   D15        1.04896   0.00389   0.00000   0.08058   0.08245   1.13141
   D16       -0.04450  -0.00254   0.00000   0.09506   0.08967   0.04517
   D17       -3.10784  -0.00848   0.00000   0.10640   0.10108  -3.00676
   D18        2.06659   0.00241   0.00000  -0.22592  -0.22478   1.84180
   D19       -2.28673  -0.00148   0.00000  -0.24490  -0.24651  -2.53325
   D20       -0.10963   0.00190   0.00000  -0.21245  -0.20950  -0.31913
   D21       -2.68040  -0.00331   0.00000   0.15665   0.16082  -2.51958
   D22       -0.41516  -0.00057   0.00000   0.25974   0.26634  -0.14882
   D23        1.54636  -0.00137   0.00000   0.19283   0.19468   1.74104
   D24       -2.47159   0.00137   0.00000   0.29592   0.30020  -2.17139
   D25       -0.66865  -0.00071   0.00000   0.27773   0.27578  -0.39287
   D26        1.59659   0.00203   0.00000   0.38082   0.38130   1.97789
   D27        1.02216  -0.00330   0.00000  -0.23721  -0.23261   0.78955
   D28        3.07747   0.00180   0.00000  -0.15934  -0.15735   2.92012
   D29       -1.08199   0.00004   0.00000  -0.18838  -0.18454  -1.26654
   D30       -3.04005  -0.00057   0.00000  -0.10872  -0.10628   3.13686
   D31       -0.98474   0.00454   0.00000  -0.03085  -0.03102  -1.01576
   D32        1.13898   0.00278   0.00000  -0.05989  -0.05821   1.08077
         Item               Value     Threshold  Converged?
 Maximum Force            0.026223     0.000450     NO 
 RMS     Force            0.006878     0.000300     NO 
 Maximum Displacement     0.408442     0.001800     NO 
 RMS     Displacement     0.106349     0.001200     NO 
 Predicted change in Energy=-9.535522D-03
 Lowest energy point so far.  Saving SCF results.
 GradGradGradGradGradGradGradGradGradGradGradGradGradGradGradGradGradGrad

 Leave Link  103 at Tue Oct 15 10:08:51 2019, MaxMem=   280000000 cpu:               3.1 elap:               0.2
 (Enter /home/soft/g16/l202.exe)
                          Input orientation:                          
 ---------------------------------------------------------------------
 Center     Atomic      Atomic             Coordinates (Angstroms)
 Number     Number       Type             X           Y           Z
 ---------------------------------------------------------------------
      1          6           0       -1.378837    0.091837   -0.324329
      2          1           0       -2.445187    0.266311   -0.137736
      3          1           0       -1.262936   -0.033467   -1.405102
      4          6           0       -0.562081    1.255666    0.084991
      5          1           0       -0.948410    2.262548    0.211206
      6          8           0        0.744294    1.194380    0.229319
      7          6           0        1.447729   -0.040115   -0.071132
      8          1           0        1.909941    0.247293   -1.027884
      9          1           0        2.262618   -0.065494    0.667407
     10          6           0        0.648299   -1.295080   -0.129413
     11          1           0        1.199731   -2.154210    0.253697
     12          6           0       -0.775907   -1.195083    0.321981
     13          1           0       -1.363431   -2.083083    0.048000
     14          1           0       -0.892017   -1.085028    1.412361
 ---------------------------------------------------------------------
                    Distance matrix (angstroms):
                    1          2          3          4          5
     1  C    0.000000
     2  H    1.096522   0.000000
     3  H    1.094168   1.758920   0.000000
     4  C    1.479572   2.138813   2.091277   0.000000
     5  H    2.276851   2.519338   2.825431   1.085813   0.000000
     6  O    2.455568   3.341980   2.864945   1.315751   2.001639
     7  C    2.840950   3.905525   3.021129   2.396405   3.335184
     8  H    3.366781   4.445207   3.207533   2.892438   3.710360
     9  H    3.777366   4.787670   4.089725   3.172317   3.992318
    10  C    2.463901   3.465208   2.621424   2.831483   3.914360
    11  H    3.468120   4.392900   3.648821   3.841835   4.911626
    12  C    1.561219   2.265725   2.137607   2.471449   3.463703
    13  H    2.206614   2.593135   2.514464   3.433770   4.368453
    14  H    2.153624   2.577063   3.030092   2.711018   3.556995
                    6          7          8          9         10
     6  O    0.000000
     7  C    1.452263   0.000000
     8  H    1.958639   1.100735   0.000000
     9  H    2.021018   1.100059   1.759611   0.000000
    10  C    2.517005   1.489101   2.185841   2.180099   0.000000
    11  H    3.379508   2.153234   2.813195   2.379836   1.090393
    12  C    2.833572   2.536344   3.334120   3.260050   1.497370
    13  H    3.900916   3.477144   4.159704   4.195541   2.167829
    14  H    3.045127   2.960912   3.947257   3.397959   2.189466
                   11         12         13         14
    11  H    0.000000
    12  C    2.197210   0.000000
    13  H    2.572385   1.099452   0.000000
    14  H    2.619363   1.102054   1.754943   0.000000
 Stoichiometry    C5H8O
 Framework group  C1[X(C5H8O)]
 Deg. of freedom    36
 Full point group                 C1      NOp   1
 RotChk:  IX=2 Diff= 4.58D-01
 Largest Abelian subgroup         C1      NOp   1
 Largest concise Abelian subgroup C1      NOp   1
                         Standard orientation:                         
 ---------------------------------------------------------------------
 Center     Atomic      Atomic             Coordinates (Angstroms)
 Number     Number       Type             X           Y           Z
 ---------------------------------------------------------------------
      1          6           0        1.299177   -0.541824   -0.304227
      2          1           0        2.249452   -1.041789   -0.082026
      3          1           0        1.256554   -0.410975   -1.389707
      4          6           0        0.144375   -1.376087    0.095237
      5          1           0        0.186796   -2.450374    0.247220
      6          8           0       -1.077754   -0.899557    0.197809
      7          6           0       -1.343823    0.487258   -0.141332
      8          1           0       -1.849131    0.339792   -1.108046
      9          1           0       -2.126649    0.787182    0.570958
     10          6           0       -0.185308    1.421455   -0.191750
     11          1           0       -0.444095    2.419822    0.162156
     12          6           0        1.121100    0.884434    0.305266
     13          1           0        1.967449    1.533186    0.037669
     14          1           0        1.168531    0.768193    1.400145
 ---------------------------------------------------------------------
 Rotational constants (GHZ):           5.0353342           4.7235640           2.6743781
 Leave Link  202 at Tue Oct 15 10:08:51 2019, MaxMem=   280000000 cpu:               0.2 elap:               0.0
 (Enter /home/soft/g16/l301.exe)
 Standard basis: 6-31+G(d) (6D, 7F)
 Ernie: Thresh=  0.10000D-02 Tol=  0.10000D-05 Strict=F.
 There are   130 symmetry adapted cartesian basis functions of A   symmetry.
 There are   130 symmetry adapted basis functions of A   symmetry.
   130 basis functions,   224 primitive gaussians,   130 cartesian basis functions
    23 alpha electrons       23 beta electrons
       nuclear repulsion energy       239.2812260883 Hartrees.
 IExCor=  402 DFT=T Ex+Corr=B3LYP ExCW=0 ScaHFX=  0.200000
 ScaDFX=  0.800000  0.720000  1.000000  0.810000 ScalE2=  1.000000  1.000000
 IRadAn=      5 IRanWt=     -1 IRanGd=            0 ICorTp=0 IEmpDi=  4
 NAtoms=   14 NActive=   14 NUniq=   14 SFac= 1.00D+00 NAtFMM=   60 NAOKFM=F Big=F
 Integral buffers will be    131072 words long.
 Raffenetti 2 integral format.
 Two-electron integral symmetry is turned on.
 Leave Link  301 at Tue Oct 15 10:08:51 2019, MaxMem=   280000000 cpu:               1.5 elap:               0.1
 (Enter /home/soft/g16/l302.exe)
 NPDir=0 NMtPBC=     1 NCelOv=     1 NCel=       1 NClECP=     1 NCelD=      1
         NCelK=      1 NCelE2=     1 NClLst=     1 CellRange=     0.0.
 One-electron integrals computed using PRISM.
 One-electron integral symmetry used in STVInt
 NBasis=   130 RedAO= T EigKep=  6.64D-05  NBF=   130
 NBsUse=   130 1.00D-06 EigRej= -1.00D+00 NBFU=   130
 Precomputing XC quadrature grid using
 IXCGrd= 4 IRadAn=           5 IRanWt=          -1 IRanGd=           0 AccXCQ= 0.00D+00.
 Generated NRdTot=       0 NPtTot=           0 NUsed=           0 NTot=          32
 NSgBfM=   130   130   130   130   130 MxSgAt=    14 MxSgA2=    14.
 Leave Link  302 at Tue Oct 15 10:08:51 2019, MaxMem=   280000000 cpu:               3.5 elap:               0.2
 (Enter /home/soft/g16/l303.exe)
 DipDrv:  MaxL=1.
 Leave Link  303 at Tue Oct 15 10:08:51 2019, MaxMem=   280000000 cpu:               0.5 elap:               0.0
 (Enter /home/soft/g16/l401.exe)
 Initial guess from the checkpoint file:  "ts.chk"
 B after Tr=    -0.000000   -0.000000   -0.000000
         Rot=    0.986513    0.009488    0.005935    0.163297 Ang=  18.84 deg.
 Guess basis will be translated and rotated to current coordinates.
 JPrj=2 DoOrth=T DoCkMO=T.
 Generating alternative initial guess.
 ExpMin= 4.38D-02 ExpMax= 5.48D+03 ExpMxC= 8.25D+02 IAcc=2 IRadAn=         4 AccDes= 0.00D+00
 Harris functional with IExCor=  402 and IRadAn=       4 diagonalized for initial guess.
 HarFok:  IExCor=  402 AccDes= 0.00D+00 IRadAn=         4 IDoV= 1 UseB2=F ITyADJ=14
 ICtDFT=  3500011 ScaDFX=  1.000000  1.000000  1.000000  1.000000
 FoFCou: FMM=F IPFlag=           0 FMFlag=      100000 FMFlg1=           0
         NFxFlg=           0 DoJE=T BraDBF=F KetDBF=T FulRan=T
         wScrn=  0.000000 ICntrl=       500 IOpCl=  0 I1Cent=   200000004 NGrid=           0
         NMat0=    1 NMatS0=      1 NMatT0=    0 NMatD0=    1 NMtDS0=    0 NMtDT0=    0
 Petite list used in FoFCou.
 Harris En= -270.470258404058    
 Leave Link  401 at Tue Oct 15 10:08:51 2019, MaxMem=   280000000 cpu:               6.0 elap:               0.3
 (Enter /home/soft/g16/l502.exe)
 Integral symmetry usage will be decided dynamically.
 Closed shell SCF:
 Using DIIS extrapolation, IDIIS=  1040.
 NGot=   280000000 LenX=   279961518 LenY=   279944177
 Requested convergence on RMS density matrix=1.00D-08 within 128 cycles.
 Requested convergence on MAX density matrix=1.00D-06.
 Requested convergence on             energy=1.00D-06.
 No special actions if energy rises.
 Fock matrices will be formed incrementally for  20 cycles.

 Cycle   1  Pass 1  IDiag  1:
 FoFJK:  IHMeth= 1 ICntrl=       0 DoSepK=F KAlg= 0 I1Cent=           0 FoldK=F
 IRaf= 990000000 NMat=       1 IRICut=       1 DoRegI=T DoRafI=F ISym2E= 0 IDoP0=0 IntGTp=1.
 FoFCou: FMM=F IPFlag=           0 FMFlag=      100000 FMFlg1=           0
         NFxFlg=           0 DoJE=F BraDBF=F KetDBF=F FulRan=T
         wScrn=  0.000000 ICntrl=         0 IOpCl=  0 I1Cent=           0 NGrid=           0
         NMat0=    1 NMatS0=      1 NMatT0=    0 NMatD0=    1 NMtDS0=    0 NMtDT0=    0
 Symmetry not used in FoFCou.
 E= -270.387978546333    
 DIIS: error= 5.93D-03 at cycle   1 NSaved=   1.
 NSaved= 1 IEnMin= 1 EnMin= -270.387978546333     IErMin= 1 ErrMin= 5.93D-03
 ErrMax= 5.93D-03  0.00D+00 EMaxC= 1.00D-01 BMatC= 1.12D-02 BMatP= 1.12D-02
 IDIUse=3 WtCom= 9.41D-01 WtEn= 5.93D-02
 Coeff-Com:  0.100D+01
 Coeff-En:   0.100D+01
 Coeff:      0.100D+01
 Gap=     0.443 Goal=   None    Shift=    0.000
 GapD=    0.443 DampG=2.000 DampE=1.000 DampFc=2.0000 IDamp=-1.
 RMSDP=5.08D-03 MaxDP=1.10D-01              OVMax= 2.04D-01

 Cycle   2  Pass 1  IDiag  1:
 RMSU=  5.08D-03    CP:  9.94D-01
 E= -270.399348361133     Delta-E=       -0.011369814800 Rises=F Damp=F
 DIIS: error= 6.44D-03 at cycle   2 NSaved=   2.
 NSaved= 2 IEnMin= 2 EnMin= -270.399348361133     IErMin= 1 ErrMin= 5.93D-03
 ErrMax= 6.44D-03  0.00D+00 EMaxC= 1.00D-01 BMatC= 1.08D-02 BMatP= 1.12D-02
 IDIUse=3 WtCom= 9.36D-01 WtEn= 6.44D-02
 Coeff-Com:  0.490D+00 0.510D+00
 Coeff-En:   0.701D-01 0.930D+00
 Coeff:      0.463D+00 0.537D+00
 Gap=     0.057 Goal=   None    Shift=    0.000
 RMSDP=5.96D-03 MaxDP=1.06D-01 DE=-1.14D-02 OVMax= 3.69D-01

 Cycle   3  Pass 1  IDiag  1:
 RMSU=  4.48D-03    CP:  9.81D-01  2.29D-01
 E= -270.352316753346     Delta-E=        0.047031607786 Rises=F Damp=F
 DIIS: error= 1.40D-02 at cycle   3 NSaved=   3.
 NSaved= 3 IEnMin= 2 EnMin= -270.399348361133     IErMin= 1 ErrMin= 5.93D-03
 ErrMax= 1.40D-02  0.00D+00 EMaxC= 1.00D-01 BMatC= 4.42D-02 BMatP= 1.08D-02
 IDIUse=2 WtCom= 0.00D+00 WtEn= 1.00D+00
 Coeff-En:   0.000D+00 0.708D+00 0.292D+00
 Coeff:      0.000D+00 0.708D+00 0.292D+00
 Gap=     0.046 Goal=   None    Shift=    0.000
 RMSDP=2.84D-03 MaxDP=5.65D-02 DE= 4.70D-02 OVMax= 1.78D-01

 Cycle   4  Pass 1  IDiag  1:
 RMSU=  8.59D-04    CP:  9.88D-01  5.82D-01  5.50D-01
 E= -270.407047799469     Delta-E=       -0.054731046123 Rises=F Damp=F
 DIIS: error= 4.27D-03 at cycle   4 NSaved=   4.
 NSaved= 4 IEnMin= 4 EnMin= -270.407047799469     IErMin= 4 ErrMin= 4.27D-03
 ErrMax= 4.27D-03  0.00D+00 EMaxC= 1.00D-01 BMatC= 4.52D-03 BMatP= 1.08D-02
 IDIUse=3 WtCom= 9.57D-01 WtEn= 4.27D-02
 Coeff-Com: -0.288D-01 0.337D+00-0.872D-01 0.779D+00
 Coeff-En:   0.000D+00 0.388D+00 0.000D+00 0.612D+00
 Coeff:     -0.276D-01 0.339D+00-0.835D-01 0.772D+00
 Gap=     0.044 Goal=   None    Shift=    0.000
 RMSDP=1.64D-03 MaxDP=3.00D-02 DE=-5.47D-02 OVMax= 9.71D-02

 Cycle   5  Pass 1  IDiag  1:
 RMSU=  3.04D-04    CP:  9.91D-01  8.06D-01  2.95D-01  8.59D-01
 E= -270.413464726812     Delta-E=       -0.006416927343 Rises=F Damp=F
 DIIS: error= 4.98D-04 at cycle   5 NSaved=   5.
 NSaved= 5 IEnMin= 5 EnMin= -270.413464726812     IErMin= 5 ErrMin= 4.98D-04
 ErrMax= 4.98D-04  0.00D+00 EMaxC= 1.00D-01 BMatC= 8.88D-05 BMatP= 4.52D-03
 IDIUse=3 WtCom= 9.95D-01 WtEn= 4.98D-03
 Coeff-Com: -0.118D-01 0.128D+00-0.500D-01 0.411D+00 0.523D+00
 Coeff-En:   0.000D+00 0.000D+00 0.000D+00 0.396D-01 0.960D+00
 Coeff:     -0.118D-01 0.127D+00-0.497D-01 0.409D+00 0.525D+00
 Gap=     0.045 Goal=   None    Shift=    0.000
 RMSDP=8.78D-05 MaxDP=1.63D-03 DE=-6.42D-03 OVMax= 2.22D-03

 Cycle   6  Pass 1  IDiag  1:
 RMSU=  8.66D-05    CP:  9.91D-01  8.04D-01  2.95D-01  8.60D-01  9.96D-01
 E= -270.413525867356     Delta-E=       -0.000061140543 Rises=F Damp=F
 DIIS: error= 3.94D-04 at cycle   6 NSaved=   6.
 NSaved= 6 IEnMin= 6 EnMin= -270.413525867356     IErMin= 6 ErrMin= 3.94D-04
 ErrMax= 3.94D-04  0.00D+00 EMaxC= 1.00D-01 BMatC= 3.18D-05 BMatP= 8.88D-05
 IDIUse=3 WtCom= 9.96D-01 WtEn= 3.94D-03
 Coeff-Com: -0.225D-02 0.977D-02-0.108D-01 0.130D+00 0.326D+00 0.547D+00
 Coeff-En:   0.000D+00 0.000D+00 0.000D+00 0.355D-02 0.000D+00 0.996D+00
 Coeff:     -0.224D-02 0.973D-02-0.107D-01 0.129D+00 0.325D+00 0.549D+00
 Gap=     0.045 Goal=   None    Shift=    0.000
 RMSDP=7.92D-05 MaxDP=1.53D-03 DE=-6.11D-05 OVMax= 4.88D-03

 Cycle   7  Pass 1  IDiag  1:
 RMSU=  2.25D-05    CP:  9.91D-01  7.94D-01  3.07D-01  8.78D-01  1.07D+00
                    CP:  1.07D+00
 E= -270.413566215781     Delta-E=       -0.000040348426 Rises=F Damp=F
 DIIS: error= 9.60D-05 at cycle   7 NSaved=   7.
 NSaved= 7 IEnMin= 7 EnMin= -270.413566215781     IErMin= 7 ErrMin= 9.60D-05
 ErrMax= 9.60D-05  0.00D+00 EMaxC= 1.00D-01 BMatC= 2.62D-06 BMatP= 3.18D-05
 IDIUse=1 WtCom= 1.00D+00 WtEn= 0.00D+00
 Coeff-Com:  0.690D-03-0.173D-01 0.220D-02 0.165D-01 0.113D+00 0.296D+00
 Coeff-Com:  0.588D+00
 Coeff:      0.690D-03-0.173D-01 0.220D-02 0.165D-01 0.113D+00 0.296D+00
 Coeff:      0.588D+00
 Gap=     0.046 Goal=   None    Shift=    0.000
 RMSDP=2.54D-05 MaxDP=5.79D-04 DE=-4.03D-05 OVMax= 7.83D-04

 Cycle   8  Pass 1  IDiag  1:
 RMSU=  1.15D-05    CP:  9.91D-01  7.92D-01  3.08D-01  8.80D-01  1.13D+00
                    CP:  1.16D+00  1.07D+00
 E= -270.413568680696     Delta-E=       -0.000002464915 Rises=F Damp=F
 DIIS: error= 3.82D-05 at cycle   8 NSaved=   8.
 NSaved= 8 IEnMin= 8 EnMin= -270.413568680696     IErMin= 8 ErrMin= 3.82D-05
 ErrMax= 3.82D-05  0.00D+00 EMaxC= 1.00D-01 BMatC= 4.20D-07 BMatP= 2.62D-06
 IDIUse=1 WtCom= 1.00D+00 WtEn= 0.00D+00
 Coeff-Com:  0.513D-03-0.789D-02 0.173D-02-0.289D-02 0.987D-02 0.192D-01
 Coeff-Com:  0.211D+00 0.769D+00
 Coeff:      0.513D-03-0.789D-02 0.173D-02-0.289D-02 0.987D-02 0.192D-01
 Coeff:      0.211D+00 0.769D+00
 Gap=     0.046 Goal=   None    Shift=    0.000
 RMSDP=1.19D-05 MaxDP=3.13D-04 DE=-2.46D-06 OVMax= 4.01D-04

 Cycle   9  Pass 1  IDiag  1:
 RMSU=  3.89D-06    CP:  9.91D-01  7.91D-01  3.09D-01  8.81D-01  1.15D+00
                    CP:  1.21D+00  1.15D+00  1.19D+00
 E= -270.413569143705     Delta-E=       -0.000000463009 Rises=F Damp=F
 DIIS: error= 1.59D-05 at cycle   9 NSaved=   9.
 NSaved= 9 IEnMin= 9 EnMin= -270.413569143705     IErMin= 9 ErrMin= 1.59D-05
 ErrMax= 1.59D-05  0.00D+00 EMaxC= 1.00D-01 BMatC= 5.76D-08 BMatP= 4.20D-07
 IDIUse=1 WtCom= 1.00D+00 WtEn= 0.00D+00
 Coeff-Com:  0.712D-04-0.810D-03 0.258D-03-0.602D-05-0.429D-02-0.251D-01
 Coeff-Com:  0.252D-02 0.140D+00 0.888D+00
 Coeff:      0.712D-04-0.810D-03 0.258D-03-0.602D-05-0.429D-02-0.251D-01
 Coeff:      0.252D-02 0.140D+00 0.888D+00
 Gap=     0.046 Goal=   None    Shift=    0.000
 RMSDP=4.22D-06 MaxDP=7.89D-05 DE=-4.63D-07 OVMax= 2.44D-04

 Cycle  10  Pass 1  IDiag  1:
 RMSU=  6.68D-07    CP:  9.91D-01  7.90D-01  3.09D-01  8.82D-01  1.16D+00
                    CP:  1.23D+00  1.21D+00  1.26D+00  9.81D-01
 E= -270.413569221282     Delta-E=       -0.000000077577 Rises=F Damp=F
 DIIS: error= 2.26D-06 at cycle  10 NSaved=  10.
 NSaved=10 IEnMin=10 EnMin= -270.413569221282     IErMin=10 ErrMin= 2.26D-06
 ErrMax= 2.26D-06  0.00D+00 EMaxC= 1.00D-01 BMatC= 9.05D-10 BMatP= 5.76D-08
 IDIUse=1 WtCom= 1.00D+00 WtEn= 0.00D+00
 Coeff-Com:  0.128D-05 0.930D-04-0.923D-05 0.317D-03-0.248D-02-0.132D-01
 Coeff-Com: -0.123D-01 0.114D-01 0.392D+00 0.624D+00
 Coeff:      0.128D-05 0.930D-04-0.923D-05 0.317D-03-0.248D-02-0.132D-01
 Coeff:     -0.123D-01 0.114D-01 0.392D+00 0.624D+00
 Gap=     0.046 Goal=   None    Shift=    0.000
 RMSDP=8.14D-07 MaxDP=1.56D-05 DE=-7.76D-08 OVMax= 4.36D-05

 Cycle  11  Pass 1  IDiag  1:
 RMSU=  1.86D-07    CP:  9.91D-01  7.90D-01  3.09D-01  8.82D-01  1.16D+00
                    CP:  1.23D+00  1.21D+00  1.27D+00  1.01D+00  9.74D-01
 E= -270.413569222472     Delta-E=       -0.000000001190 Rises=F Damp=F
 DIIS: error= 6.25D-07 at cycle  11 NSaved=  11.
[...]
 ! D7    D(2,1,12,10)         -154.9609         -DE/DX =    0.0                 !
 ! D8    D(2,1,12,13)           81.1107         -DE/DX =    0.0                 !
 ! D9    D(2,1,12,14)          -31.9852         -DE/DX =    0.0                 !
 ! D10   D(3,1,12,10)           89.143          -DE/DX =    0.0                 !
 ! D11   D(3,1,12,13)          -34.7854         -DE/DX =    0.0                 !
 ! D12   D(3,1,12,14)         -147.8813         -DE/DX =    0.0                 !
 ! D13   D(4,1,12,10)          -32.8098         -DE/DX =    0.0                 !
 ! D14   D(4,1,12,13)         -156.7382         -DE/DX =    0.0                 !
 ! D15   D(4,1,12,14)           90.166          -DE/DX =    0.0                 !
 ! D16   D(1,4,6,7)            -32.3386         -DE/DX =    0.0                 !
 ! D17   D(5,4,6,7)            161.4734         -DE/DX =    0.0                 !
 ! D18   D(4,6,7,8)            123.4514         -DE/DX =    0.0                 !
 ! D19   D(4,6,7,9)           -126.3707         -DE/DX =    0.0                 !
 ! D20   D(4,6,7,10)            -2.1922         -DE/DX =    0.0                 !
 ! D21   D(6,7,10,11)          166.1595         -DE/DX =    0.0                 !
 ! D22   D(6,7,10,12)           14.823          -DE/DX =    0.0                 !
 ! D23   D(8,7,10,11)           44.2459         -DE/DX =    0.0                 !
 ! D24   D(8,7,10,12)         -107.0905         -DE/DX =    0.0                 !
 ! D25   D(9,7,10,11)          -75.5941         -DE/DX =    0.0                 !
 ! D26   D(9,7,10,12)          133.0695         -DE/DX =    0.0                 !
 ! D27   D(7,10,12,1)            4.4243         -DE/DX =    0.0                 !
 ! D28   D(7,10,12,13)         127.9148         -DE/DX =    0.0                 !
 ! D29   D(7,10,12,14)        -112.8085         -DE/DX =    0.0                 !
 ! D30   D(11,10,12,1)        -145.605          -DE/DX =    0.0                 !
 ! D31   D(11,10,12,13)        -22.1144         -DE/DX =    0.0                 !
 ! D32   D(11,10,12,14)         97.1623         -DE/DX =    0.0                 !
 --------------------------------------------------------------------------------
 GradGradGradGradGradGradGradGradGradGradGradGradGradGradGradGradGradGrad

 Leave Link  103 at Tue Oct 15 10:11:22 2019, MaxMem=   280000000 cpu:               1.7 elap:               0.1
 (Enter /home/soft/g16/l9999.exe)

 ----------------------------------------------------------------------

 Electric dipole moment (input orientation):
 (Debye = 10**-18 statcoulomb cm , SI units = C m)
                  (au)            (Debye)         (10**-30 SI)
   Tot        0.468625D+00      0.119113D+01      0.397317D+01
   x         -0.262986D+00     -0.668443D+00     -0.222968D+01
   y          0.927466D-01      0.235738D+00      0.786338D+00
   z         -0.376625D+00     -0.957284D+00     -0.319316D+01

 Dipole polarizability, Alpha (input orientation).
 (esu units = cm**3 , SI units = C**2 m**2 J**-1)
 Alpha(0;0):
               (au)            (10**-24 esu)      (10**-40 SI)
   iso        0.787771D+02      0.116736D+02      0.129886D+02
   aniso      0.470994D+02      0.697941D+01      0.776565D+01
   xx         0.815192D+02      0.120799D+02      0.134407D+02
   yx        -0.160717D+02     -0.238158D+01     -0.264986D+01
   yy         0.977621D+02      0.144868D+02      0.161188D+02
   zx         0.440462D+01      0.652697D+00      0.726223D+00
   zy        -0.646088D+01     -0.957403D+00     -0.106525D+01
   zz         0.570499D+02      0.845393D+01      0.940626D+01

 ----------------------------------------------------------------------

 Dipole orientation:
     6         -1.83585541          0.02611397          1.90481130
     1         -3.77126254         -0.37740493          2.52036007
     1         -0.80945610          0.69091677          3.59279727
     6         -0.71967341         -2.29697039          0.87189820
     1         -1.45395598         -4.16624391          1.29157117
     8          1.55810425         -2.37909901         -0.18308314
     6          2.36065966         -0.14377858         -1.50302338
     1          4.16331764          0.39853773         -0.59602257
     1          2.86856979         -0.91133751         -3.36361744
     6          0.56459999          1.98663418         -1.64829138
     1          1.47688924          3.72625456         -2.26478242
     6         -1.73221880          2.23994000         -0.06857251
     1         -1.81422518          4.09891227          0.88627578
     1         -3.51231703          2.09100646         -1.12595154

 Electric dipole moment (dipole orientation):
 (Debye = 10**-18 statcoulomb cm , SI units = C m)
                  (au)            (Debye)         (10**-30 SI)
   Tot        0.468625D+00      0.119113D+01      0.397317D+01
   x          0.000000D+00      0.000000D+00      0.000000D+00
   y          0.000000D+00      0.000000D+00      0.000000D+00
   z          0.468625D+00      0.119113D+01      0.397317D+01

 Dipole polarizability, Alpha (dipole orientation).
 (esu units = cm**3 , SI units = C**2 m**2 J**-1)
 Alpha(0;0):
               (au)            (10**-24 esu)      (10**-40 SI)
   iso        0.787771D+02      0.116736D+02      0.129886D+02
   aniso      0.470994D+02      0.697941D+01      0.776565D+01
   xx         0.686071D+02      0.101665D+02      0.113118D+02
   yx         0.530661D+01      0.786359D+00      0.874942D+00
   yy         0.917751D+02      0.135997D+02      0.151317D+02
   zx        -0.134054D+02     -0.198648D+01     -0.221025D+01
   zy        -0.197838D+02     -0.293166D+01     -0.326191D+01
   zz         0.759491D+02      0.112545D+02      0.125223D+02

 ----------------------------------------------------------------------
 1\1\GINC-NODE14\Freq\RB3LYP\6-31+G(d)\C5H8O1\ROOT\15-Oct-2019\0\\#P Ge
 om=AllCheck Guess=TCheck SCRF=Check GenChk RB3LYP/6-31+G(d) Freq\\Titl
 e Card Required\\0,1\C,-1.3683828538,0.1261514774,-0.2676427944\H,-2.3
 833804234,0.3364484763,0.0875830323\H,-1.4430094078,-0.00777803,-1.359
 9564229\C,-0.4984169791,1.2569718622,0.0834732079\H,-0.8828557652,2.24
 46934164,0.318818384\O,0.8124432285,1.2632216907,-0.1356771585\C,1.482
 1238741,-0.0060578693,-0.0467594967\H,1.9824700417,-0.1330763917,-1.02
 46234143\H,2.2815146717,0.2129854404,0.6740855464\C,0.6713590731,-1.18
 26805498,0.3252717157\H,1.1962209482,-2.1180950483,0.1343477464\C,-0.8
 092252942,-1.2232107061,0.3089839885\H,-1.1891771662,-2.088243962,-0.2
 674407642\H,-1.2678789476,-1.3148548062,1.3029034299\\Version=ES64L-G1
 6RevA.03\State=1-A\HF=-270.4309333\RMSD=1.348e-09\RMSF=7.560e-06\ZeroP
 oint=0.1177846\Thermal=0.1231195\Dipole=-0.2629856,0.0927466,-0.376624
 6\DipoleDeriv=0.1650813,-0.1344739,0.0439074,-0.0629613,-0.2636174,0.0
 897922,-0.280831,0.1268859,0.0857196,-0.1449448,0.0411432,0.0262353,0.
 0479306,0.0634232,-0.0068552,0.0734013,-0.0184856,0.0457897,-0.0645725
 ,0.0757224,-0.039727,-0.1070118,0.1954893,-0.0912527,-0.0961717,0.0282
 703,-0.1282684,0.3659663,1.0927651,-0.3090933,0.1715822,0.1935107,0.12
 71624,0.2961813,-0.5667345,-0.0360001,-0.0055861,0.0313009,0.0181486,0
 .0211494,-0.0388521,-0.0655734,-0.0397397,-0.0066258,0.1903936,-0.3161
 815,-1.210724,0.2871342,-0.2038421,-0.3433774,0.0197622,-0.0036632,0.5
 3322,-0.3275077,0.0284316,0.2184863,-0.1203183,0.2128534,0.0298713,-0.
 060305,0.005735,-0.2597132,0.4671369,-0.0152152,0.0435307,0.0744903,-0
 .0743116,0.1705572,0.0072168,0.1909019,-0.0253445,-0.0835689,-0.003103
 3,-0.0169561,-0.0317908,-0.1093737,0.1510289,-0.0396466,-0.0588105,-0.
 0247367,0.0546369,-0.1279102,-0.0067411,-0.1424163,0.0644215,-0.193429
 6,0.0808724,-0.3523513,0.3308019,-0.6408894,-0.0122099,0.0470978,0.033
 5708,0.0741297,-0.0519046,-0.0337391,0.1473901,-0.175263,0.1873784,0.1
 773743,0.1684441,0.1375081,0.1974648,0.1893104,0.0935223,0.1383819,0.1
 957545,0.2496203,-0.0423167,-0.2144542,-0.0520503,-0.1774053,-0.116296
 4,-0.1099096,-0.1077964,-0.1887227,-0.0168339,-0.0048133,-0.1351413,0.
 0744014,-0.0546258,0.0142866,-0.0110468,0.0873723,0.0506935,-0.0476069
 \Polar=81.519199,-16.0716708,97.7621016,4.4046156,-6.4608779,57.049934
 8\Quadrupole=2.5278286,-1.0983651,-1.4294635,-1.1452307,-0.7112192,1.3
 1767\PG=C01 [X(C5H8O1)]\NImag=1\\0.57596925,0.00670743,0.39024957,-0.0
 3754884,0.05242869,0.49802863,-0.27105169,0.04239588,0.08024210,0.2955
 4907,0.04596232,-0.05959776,-0.01960214,-0.04733724,0.06301280,0.08344
 012,-0.01684415,-0.07789922,-0.08709344,0.01943917,0.08324767,-0.04517
 393,-0.00178020,-0.01032966,0.00146625,0.00478333,0.03083300,0.0498414
 4,0.00156156,-0.02798817,-0.03456993,0.00013007,-0.00111499,-0.0063157
 6,-0.00033911,0.05162945,-0.00616772,-0.02788613,-0.28310296,0.0008612
 1,-0.00185485,-0.01184931,0.01331953,0.03329177,0.31045366,-0.13453389
 ,-0.04145073,-0.01997278,-0.02054011,-0.02580181,-0.01064910,-0.005419
 85,-0.01105135,-0.00511851,0.60615934,-0.06888203,-0.18089505,-0.04429
 932,0.00631697,0.00823521,0.00125462,-0.00660774,-0.01239412,-0.007506
 25,-0.02224585,0.64384229,-0.01849120,-0.03360388,-0.06426383,0.004683
 15,0.01171814,0.00125640,-0.01944573,-0.02514178,-0.00280194,-0.051379
 55,0.13503288,0.12639361,0.00904943,-0.01496207,-0.00265846,0.00096945
 ,0.00043018,0.00017677,-0.00039174,-0.00116723,-0.00079117,-0.08003656
 ,0.07834999,0.02272800,0.10316503,0.00943132,-0.00771342,-0.00148798,-
 0.00020809,0.00041094,0.00033525,-0.00038216,-0.00142021,-0.00000142,0
 .08630245,-0.30390168,-0.06893937,-0.09585904,0.30933301,0.00187736,-0
 .01605694,0.00543679,-0.00065828,0.00080204,-0.00018232,-0.00046510,0.
 00039644,-0.00131966,0.02330188,-0.05928586,-0.03447866,-0.02737437,0.
 07114083,0.02944903,-0.04131580,-0.01394589,0.00913691,-0.00167968,-0.
 00418290,-0.00219873,0.00375757,0.00627028,0.00166524,-0.34515202,-0.0
 2036107,0.03628940,-0.02784290,0.00346644,0.00984240,0.52516498,-0.024
 99766,0.01399432,0.00621777,-0.00435739,-0.00443707,-0.00167993,-0.001
 38027,-0.00059589,-0.00035026,-0.00700534,-0.10862566,-0.00691612,0.03
 722635,0.00528869,-0.00827798,-0.05511413,0.32528364,-0.00676128,0.003
 24138,0.00520483,0.00116863,-0.00358536,0.00160621,0.00159174,0.001797
 68,0.00029708,0.05225252,-0.00248857,-0.02954711,0.00551070,0.00206386
 ,-0.00295752,-0.05533889,-0.01582795,0.08166594,0.00634812,-0.00575670
 ,0.00093788,0.00158587,0.00007296,0.00025434,-0.00047870,-0.00057792,-
 0.00274152,-0.04887743,0.04511458,0.01363749,-0.00186235,-0.00132004,-
 0.00414247,-0.07895284,0.00717567,0.00001263,0.52783373,-0.00644471,-0
 .00903303,0.00344061,-0.00073395,-0.00140988,-0.00015892,0.00227837,0.
 00349735,0.00033564,0.05618442,-0.00000129,-0.01525926,-0.00328972,0.0
 0236535,0.00476850,0.01713777,-0.15110164,0.00725593,0.04830291,0.4102
 4848,-0.00063972,-0.00756146,0.00139560,0.00023033,0.00005115,-0.00025
 967,-0.00109975,0.00092856,-0.00101403,0.01421887,-0.01472069,0.003590
 84,0.00398431,-0.00109632,0.00393903,-0.00311701,0.02128166,-0.0673697
 2,-0.00137162,0.03003492,0.50671321,0.00069301,0.00206729,0.00150555,-
 0.00009588,0.00000178,-0.00015608,-0.00002774,-0.00022399,0.00000505,-
 0.00267705,0.00370660,0.00122425,-0.00129993,0.00053427,-0.00252635,-0
 .01163391,0.00491534,0.01877343,-0.08421939,0.02095843,0.08907688,0.10
 009025,0.00071178,0.00341684,-0.00253791,0.00005677,-0.00018335,0.0000
 9879,-0.00057675,-0.00110715,-0.00025497,-0.00955013,-0.00297642,0.000
 70868,0.00168178,-0.00105502,0.00292952,0.02807605,-0.01770165,-0.0284
 0367,0.01241961,-0.03598480,-0.01514045,-0.01813359,0.05736635,0.00036
 548,-0.00024513,0.00113143,0.00011792,0.00004654,-0.00014557,0.0007123
 6,0.00033848,-0.00074860,0.00024722,-0.00086650,0.00126927,-0.00012575
 ,0.00016027,-0.00024176,-0.00281522,0.00148781,0.00293684,0.09062165,-
 0.03521769,-0.23320209,-0.10402518,0.03114282,0.25457156,-0.00012416,-
 0.00154552,-0.00096286,0.00005634,-0.00017195,0.00010033,-0.00026280,0
 .00014856,0.00008273,0.00629340,0.00263064,-0.00185852,-0.00018609,-0.
 00032092,0.00188442,-0.02697719,0.01230776,-0.01328840,-0.16851140,-0.
 04083109,-0.12325655,0.01029403,0.00148625,0.00924524,0.19477094,0.001
 61975,0.00113466,0.00095544,0.00010296,0.00023668,-0.00018098,-0.00023
 723,-0.00058793,-0.00066581,-0.00888854,-0.00434572,0.00696945,0.00009
 096,0.00040397,-0.00261662,0.04787257,-0.01685802,0.01970190,-0.048941
 32,-0.03591343,-0.04742698,-0.00474988,0.00179757,-0.00511546,0.036826
 92,0.06559784,-0.00005759,0.00070384,0.00012929,-0.00002232,0.00001974
 ,-0.00002331,0.00036467,0.00012418,0.00001141,0.00284815,-0.00006156,-
 0.00029904,-0.00003255,0.00000883,-0.00010210,-0.00407360,0.00184366,0
 .00094368,-0.12379343,-0.03300858,-0.15638376,-0.01973488,-0.00655482,
 -0.02383605,0.13450733,0.03585520,0.17180218,-0.01598330,0.02533609,-0
 .00315271,-0.00005684,0.00103670,-0.00047552,-0.00022131,-0.00519301,0
 .00312339,-0.00292285,-0.01259350,-0.00210745,-0.00082572,-0.00070427,
 0.00208822,0.01747544,0.02894245,-0.00735817,-0.14075432,-0.06839242,0
 .03510901,-0.01376036,-0.01744659,0.00643206,-0.01301058,-0.02388201,0
 .00836997,0.55866621,0.03101171,0.00270070,0.00449633,0.00225300,-0.00
 482458,0.00258958,0.00180152,0.00014857,0.00161860,-0.01217107,0.00979
 017,-0.01380360,0.00018269,0.00015096,0.00046233,-0.01431992,-0.044303
 79,0.01833327,-0.04981178,-0.17211804,0.04269819,-0.00685009,-0.002931
 09,0.00718876,-0.00778338,-0.00647105,0.00004605,-0.02039661,0.5639975
 0,-0.01234444,0.00113611,-0.00936336,-0.00084342,0.00114210,0.00114742
 ,-0.00503136,-0.00098359,0.00214522,-0.00998841,-0.00029673,0.00190497
 ,0.00017476,-0.00054417,0.00096536,0.01793324,0.00088760,-0.00012074,0
 .01494157,0.03033283,-0.05258906,0.01689582,0.01689870,-0.00087658,-0.
 00616997,-0.00558921,0.00869346,-0.07033368,-0.00797217,0.10758194,-0.
 00519307,0.00082389,0.00147688,-0.00048952,0.00148883,-0.00085535,0.00
 028606,-0.00008760,0.00009638,-0.00198105,-0.00002601,-0.00173925,0.00
 037805,-0.00008770,0.00090016,-0.00292774,-0.00468695,0.00168344,0.011
 46705,-0.01511239,-0.00176218,0.00080799,-0.00064646,0.00044620,-0.000
 19902,0.00117959,-0.00071810,-0.11365409,0.11050616,0.02701516,0.12255
 817,-0.00039649,0.00035623,-0.00056994,-0.00007858,0.00004314,0.000042
 14,-0.00021096,-0.00011084,-0.00005912,-0.00333978,0.00077339,0.001407
 51,0.00014428,-0.00001410,-0.00023593,-0.00044798,-0.00504462,0.000578
 38,0.01512131,-0.01857503,-0.00630827,0.00015521,0.00057156,0.00091077
 ,-0.00068134,-0.00027918,-0.00013916,0.11223089,-0.26015992,-0.0408620
 1,-0.11932136,0.27665196,-0.00136049,0.00977054,-0.00168416,-0.0004359
 7,0.00112588,-0.00022869,0.00164247,-0.00149829,0.00163099,0.00155087,
 0.00381428,-0.00758671,0.00017629,-0.00070711,0.00324967,-0.01193416,0
 .00518127,0.00474001,0.00369800,0.00059573,0.00079127,-0.00168509,-0.0
 0141861,0.00202385,0.00017600,0.00182916,0.00012395,0.03598688,-0.0600
 6868,-0.03055629,-0.03219168,0.04494964,0.02089209,-0.08549991,-0.0123
 4016,-0.01438046,-0.00618206,0.02342362,-0.01335958,-0.00392666,0.0080
 5678,-0.00391286,0.02721280,-0.00306003,0.02421146,-0.00175338,-0.0014
 7615,-0.00607041,-0.00319315,0.00500097,-0.00238438,-0.02105955,-0.010
 60308,-0.00792386,0.00246124,0.00222816,-0.00187061,-0.00133869,-0.000
 18952,0.00178227,-0.23099611,-0.00315679,0.01988311,-0.01069160,-0.003
 33221,0.00263047,0.47727465,0.01925414,-0.09554845,0.02020322,0.001012
 87,-0.00132774,0.00163282,0.00316062,-0.00638359,0.00333669,-0.0056719
 8,-0.04696235,0.00012248,-0.00199988,-0.00301807,0.00688916,0.00442885
 ,0.00389311,-0.00125463,-0.01918507,0.00721572,0.00090344,-0.00249235,
 -0.00159704,0.00024269,-0.00140567,-0.00320197,0.00061445,-0.01228095,
 -0.08953707,0.00447573,0.02499675,0.00435734,-0.00763954,0.05815425,0.
 46170268,-0.01180620,0.01724039,-0.07031753,0.00169315,-0.00883923,0.0
 0287235,-0.01237230,0.03081098,-0.01337007,0.00511022,-0.00822236,0.00
 168064,-0.00241774,-0.00180564,-0.00393418,0.00684460,-0.00401942,0.00
 261708,0.00833832,0.00734747,-0.00346309,0.00056903,0.00243004,-0.0026
 0262,-0.00035652,-0.00317290,-0.00104109,-0.00998438,0.00170245,-0.043
 24009,0.00569925,-0.00061016,0.00551416,-0.04983935,0.05227938,0.49638
 493,0.00312511,0.00609480,0.00662148,0.00012873,-0.00006003,0.00024969
 ,0.00055924,0.00032028,0.00001443,0.00221158,-0.00017875,-0.00239274,0
 .00049894,0.00073973,0.00025834,-0.00265190,0.00022992,0.00232468,-0.0
 0205204,0.00140328,-0.00547760,-0.00002716,0.00034941,-0.00029709,-0.0
 0070994,-0.00128407,0.00018357,-0.01770732,-0.02636947,-0.01049273,0.0
 0159428,-0.00003217,0.00163441,-0.07167273,-0.05580539,-0.03938375,0.0
 8182270,-0.00834116,-0.01021658,-0.01319471,0.00043235,-0.00002551,-0.
 00033762,-0.00033331,-0.00060503,-0.00006368,-0.00103823,-0.00636446,0
 .00093814,-0.00089821,-0.00136200,0.00140135,0.00277010,-0.00017214,-0
 .00133808,-0.00063709,0.00241328,-0.00316577,-0.00021924,0.00001800,0.
 00017627,-0.00040547,-0.00150119,0.00038914,-0.00805637,0.00138571,0.0
 0000290,0.00037678,0.00153897,0.00328023,-0.04942199,-0.19197497,-0.09
 283991,0.06523245,0.20713350,0.00640896,0.00937025,0.00762100,0.000120
 12,-0.00050154,-0.00015325,0.00010639,-0.00041202,-0.00027681,0.000596
 72,0.00113159,0.00098949,0.00062395,0.00097458,-0.00043601,-0.00236666
 ,0.00001009,0.00103775,0.00032644,-0.00029843,-0.00181059,0.00019160,0
 .00019661,-0.00027729,0.00008425,-0.00015885,-0.00003129,0.00033564,0.
 00347704,0.00514850,-0.00016248,0.00032818,0.00137123,-0.03974997,-0.0
 9393837,-0.11549754,0.04064832,0.10699209,0.12158134,0.00369082,0.0083
 5589,-0.01091503,0.00034007,0.00035419,-0.00026646,-0.00000784,0.00215
 266,-0.00043616,0.00026370,-0.00216380,-0.00535932,0.00013777,-0.00011
 584,0.00108418,-0.00407086,0.00174329,0.00181334,-0.00046676,-0.000857
 84,0.00202891,-0.00060510,-0.00065628,0.00094574,-0.00009484,0.0004798
 2,0.00037653,-0.02624884,-0.00489597,0.01836034,-0.00195552,0.00018917
 ,0.00011200,-0.07063484,-0.01216616,0.09790568,0.00488052,0.00053940,-
 0.00716327,0.09477170,-0.00719797,-0.02085986,0.02851987,0.00001437,0.
 00098211,0.00012497,-0.00017609,-0.00296746,0.00005976,0.00572793,0.00
 382568,0.00676674,0.00006992,0.00053156,-0.00231683,-0.00165019,0.0003
 8072,-0.00007413,-0.00197711,-0.00160305,-0.00047799,0.00033023,0.0003
 6622,-0.00024962,-0.00025478,-0.00001222,0.00015903,0.00139960,0.00217
 194,0.00137191,0.00059646,-0.00010888,0.00078549,-0.01328384,-0.037617
 59,0.00769891,0.00936000,-0.00026758,-0.02717122,0.00704147,0.05517840
 ,0.00308557,0.00830649,-0.01231652,-0.00006317,0.00003837,0.00061129,0
 .00017376,0.00123329,-0.00005496,-0.00301811,-0.00348553,0.00189205,0.
 00002528,-0.00010161,0.00061232,0.00013246,0.00016179,-0.00105432,-0.0
 0071927,-0.00016875,-0.00033793,-0.00011403,-0.00009474,-0.00000238,-0
 .00018747,-0.00038436,0.00001267,0.00196677,-0.00076815,0.00915925,0.0
 0011157,0.00056798,-0.00028137,0.09098416,0.01213247,-0.25560296,0.006
 10898,-0.00224036,-0.01926653,-0.09848648,-0.01519689,0.27662938\\0.00
 000969,-0.00002055,-0.00000698,0.00000068,-0.00000049,-0.00000424,0.00
 000055,-0.00000549,-0.00000498,-0.00001434,0.00000041,0.00001780,-0.00
 000299,0.00000335,-0.00000903,0.00001978,0.00000454,-0.00000978,-0.000
 00280,-0.00001158,-0.00000269,0.00000103,-0.00000300,0.00000212,-0.000
 00315,0.00000198,0.00000552,-0.00000599,0.00001008,0.00000350,-0.00000
 297,0.00000451,-0.00000219,-0.00000026,0.00001296,0.00000405,0.0000020
 9,-0.00000076,0.00000164,-0.00000132,0.00000405,0.00000524\\\@


 WE HAVE LEFT UNDONE THOSE THINGS WHICH WE OUGHT TO HAVE DONE,
 AND WE HAVE DONE THOSE THINGS WHICH WE OUGHT NOT TO HAVE DONE.
                   BOOK OF COMMON PRAYER                      
 Job cpu time:       0 days  0 hours  9 minutes  0.8 seconds.
 Elapsed time:       0 days  0 hours  0 minutes 23.3 seconds.
 File lengths (MBytes):  RWF=    332 Int=      0 D2E=      0 Chk=      8 Scr=      8
 Normal termination of Gaussian 16 at Tue Oct 15 10:11:22 2019.
