 Entering Gaussian System, Link 0=g16
 Input=tsb.gjf
 Output=tsb.log
 Initial command:
 /home/soft/g16/l1.exe "/tmp/gaussian/Gau-181899.inp" -scrdir="/tmp/gaussian/"
 Entering Link 1 = /home/soft/g16/l1.exe PID=    181900.
  
 Copyright (c) 1988,1990,1992,1993,1995,1998,2003,2009,2016,
            Gaussian, Inc.  All Rights Reserved.
  
 This is part of the Gaussian(R) 16 program.  It is based on
 the Gaussian(R) 09 system (copyright 2009, Gaussian, Inc.),
 the Gaussian(R) 03 system (copyright 2003, Gaussian, Inc.),
 the Gaussian(R) 98 system (copyright 1998, Gaussian, Inc.),
 the Gaussian(R) 94 system (copyright 1995, Gaussian, Inc.),
 the Gaussian 92(TM) system (copyright 1992, Gaussian, Inc.),
 the Gaussian 90(TM) system (copyright 1990, Gaussian, Inc.),
 the Gaussian 88(TM) system (copyright 1988, Gaussian, Inc.),
 the Gaussian 86(TM) system (copyright 1986, Carnegie Mellon
 University), and the Gaussian 82(TM) system (copyright 1983,
 Carnegie Mellon University). Gaussian is a federally registered
 trademark of Gaussian, Inc.
  
 This software contains proprietary and confidential information,
 including trade secrets, belonging to Gaussian, Inc.
  
 This software is provided under written license and may be
 used, copied, transmitted, or stored only in accord with that
 written license.
  
 The following legend is applicable only to US Government
 contracts under FAR:
  
                    RESTRICTED RIGHTS LEGEND
  
 Use, reproduction and disclosure by the US Government is
 subject to restrictions as set forth in subparagraphs (a)
 and (c) of the Commercial Computer Software - Restricted
 Rights clause in FAR 52.227-19.
  
 Gaussian, Inc.
 340 Quinnipiac St., Bldg. 40, Wallingford CT 06492
  
  
 ---------------------------------------------------------------
 Warning -- This program may not be used in any manner that
 competes with the business of Gaussian, Inc. or will provide
 assistance to any competitor of Gaussian, Inc.  The licensee
 of this program is prohibited from giving any competitor of
 Gaussian, Inc. access to this program.  By using this program,
 the user acknowledges that Gaussian, Inc. is engaged in the
 business of creating and licensing software in the field of
 computational chemistry and represents and warrants to the
 licensee that it is not a competitor of Gaussian, Inc. and that
 it will not use this program in any manner prohibited above.
 ---------------------------------------------------------------
  

 Cite this work as:
 Gaussian 16, Revision A.03,
 M. J. Frisch, G. W. Trucks, H. B. Schlegel, G. E. Scuseria, 
 M. A. Robb, J. R. Cheeseman, G. Scalmani, V. Barone, 
 G. A. Petersson, H. Nakatsuji, X. Li, M. Caricato, A. V. Marenich, 
 J. Bloino, B. G. Janesko, R. Gomperts, B. Mennucci, H. P. Hratchian, 
 J. V. Ortiz, A. F. Izmaylov, J. L. Sonnenberg, D. Williams-Young, 
 F. Ding, F. Lipparini, F. Egidi, J. Goings, B. Peng, A. Petrone, 
 T. Henderson, D. Ranasinghe, V. G. Zakrzewski, J. Gao, N. Rega, 
 G. Zheng, W. Liang, M. Hada, M. Ehara, K. Toyota, R. Fukuda, 
 J. Hasegawa, M. Ishida, T. Nakajima, Y. Honda, O. Kitao, H. Nakai, 
 T. Vreven, K. Throssell, J. A. Montgomery, Jr., J. E. Peralta, 
 F. Ogliaro, M. J. Bearpark, J. J. Heyd, E. N. Brothers, K. N. Kudin, 
 V. N. Staroverov, T. A. Keith, R. Kobayashi, J. Normand, 
 K. Raghavachari, A. P. Rendell, J. C. Burant, S. S. Iyengar, 
 J. Tomasi, M. Cossi, J. M. Millam, M. Klene, C. Adamo, R. Cammi, 
 J. W. Ochterski, R. L. Martin, K. Morokuma, O. Farkas, 
 J. B. Foresman, and D. J. Fox, Gaussian, Inc., Wallingford CT, 2016.
 
 ******************************************
 Gaussian 16:  ES64L-G16RevA.03 25-Dec-2016
                15-Oct-2019 
 ******************************************
 %chk=tsb.chk
 %nprocshared=24
 Will use up to   24 processors via shared memory.
 -----------------------------------------------
 #p opt=(calcfc,ts,noeigen) freq b3lyp/6-31+g(d)
 -----------------------------------------------
 1/5=1,10=4,11=1,18=20,26=3,38=1/1,3;
 2/9=110,12=2,17=6,18=5,40=1/2;
 3/5=1,6=6,7=11,11=2,25=1,30=1,71=2,74=-5,140=1/1,2,3;
 4//1;
 5/5=2,38=5/2;
 8/6=4,10=90,11=11/1;
 11/6=1,8=1,9=11,15=111,16=1/1,2,10;
 10/6=1,13=1/2;
 6/7=2,8=2,9=2,10=2,28=1/1;
 7/10=1,18=20,25=1/1,2,3,16;
 1/5=1,10=4,11=1,18=20,26=3/3(2);
 2/9=110/2;
 99//99;
 2/9=110/2;
 3/5=1,6=6,7=11,11=2,25=1,30=1,71=1,74=-5/1,2,3;
 4/5=5,16=3,69=1/1;
 5/5=2,38=5/2;
 7//1,2,3,16;
 1/5=1,11=1,18=20,26=3/3(-5);
 2/9=110/2;
 6/7=2,8=2,9=2,10=2,19=2,28=1/1;
 99/9=1/99;
 Leave Link    1 at Tue Oct 15 10:42:15 2019, MaxMem=           0 cpu:               2.2 elap:               0.1
 (Enter /home/soft/g16/l101.exe)
 -------------------
 Title Card Required
 -------------------
 Symbolic Z-matrix:
 Charge =  0 Multiplicity = 1
 C                     1.12779  -0.88363  -0.27226 
 H                     1.24379  -1.5629    0.57966 
 H                     1.92158  -1.14825  -0.99096 
 C                    -0.22212  -1.05682  -0.82666 
 O                    -1.28838  -0.69749  -0.03545 
 C                    -1.19332   0.82108  -0.03971 
 H                    -1.61132   1.08543  -1.0287 
 H                    -1.95851   1.10412   0.6958 
 C                     0.11664   1.18721   0.69184 
 H                     0.24085   1.96337   1.44621 
 C                     1.35753   0.70184   0.16233 
 H                     1.69834   1.29511  -0.7076 
 H                     2.2171    0.67164   0.84562 
 H                    -0.36641  -1.45466  -1.80941 
 
 ITRead=  0  0  0  0  0  0  0  0  0  0  0  0  0  0
 MicOpt= -1 -1 -1 -1 -1 -1 -1 -1 -1 -1 -1 -1 -1 -1
 NAtoms=     14 NQM=       14 NQMF=       0 NMMI=      0 NMMIF=      0
                NMic=       0 NMicF=      0.
                    Isotopes and Nuclear Properties:
 (Nuclear quadrupole moments (NQMom) in fm**2, nuclear magnetic moments (NMagM)
  in nuclear magnetons)

  Atom         1           2           3           4           5           6           7           8           9          10
 IAtWgt=          12           1           1          12          16          12           1           1          12           1
 AtmWgt=  12.0000000   1.0078250   1.0078250  12.0000000  15.9949146  12.0000000   1.0078250   1.0078250  12.0000000   1.0078250
 NucSpn=           0           1           1           0           0           0           1           1           0           1
 AtZEff=  -0.0000000  -0.0000000  -0.0000000  -0.0000000  -0.0000000  -0.0000000  -0.0000000  -0.0000000  -0.0000000  -0.0000000
 NQMom=    0.0000000   0.0000000   0.0000000   0.0000000   0.0000000   0.0000000   0.0000000   0.0000000   0.0000000   0.0000000
 NMagM=    0.0000000   2.7928460   2.7928460   0.0000000   0.0000000   0.0000000   2.7928460   2.7928460   0.0000000   2.7928460
 AtZNuc=   6.0000000   1.0000000   1.0000000   6.0000000   8.0000000   6.0000000   1.0000000   1.0000000   6.0000000   1.0000000

  Atom        11          12          13          14
 IAtWgt=          12           1           1           1
 AtmWgt=  12.0000000   1.0078250   1.0078250   1.0078250
 NucSpn=           0           1           1           1
 AtZEff=  -0.0000000  -0.0000000  -0.0000000  -0.0000000
 NQMom=    0.0000000   0.0000000   0.0000000   0.0000000
 NMagM=    0.0000000   2.7928460   2.7928460   2.7928460
 AtZNuc=   6.0000000   1.0000000   1.0000000   1.0000000
 Leave Link  101 at Tue Oct 15 10:42:15 2019, MaxMem=   280000000 cpu:               4.5 elap:               0.2
 (Enter /home/soft/g16/l103.exe)

 GradGradGradGradGradGradGradGradGradGradGradGradGradGradGradGradGradGrad
 Berny optimization.
 Initialization pass.
                           ----------------------------
                           !    Initial Parameters    !
                           ! (Angstroms and Degrees)  !
 --------------------------                            --------------------------
 ! Name  Definition              Value          Derivative Info.                !
 --------------------------------------------------------------------------------
 ! R1    R(1,2)                  1.0957         calculate D2E/DX2 analytically  !
 ! R2    R(1,3)                  1.103          calculate D2E/DX2 analytically  !
 ! R3    R(1,4)                  1.4696         calculate D2E/DX2 analytically  !
 ! R4    R(1,11)                 1.6599         calculate D2E/DX2 analytically  !
 ! R5    R(4,5)                  1.3755         calculate D2E/DX2 analytically  !
 ! R6    R(4,14)                 1.07           calculate D2E/DX2 analytically  !
 ! R7    R(5,6)                  1.5215         calculate D2E/DX2 analytically  !
 ! R8    R(6,7)                  1.1058         calculate D2E/DX2 analytically  !
 ! R9    R(6,8)                  1.0985         calculate D2E/DX2 analytically  !
 ! R10   R(6,9)                  1.5444         calculate D2E/DX2 analytically  !
 ! R11   R(9,10)                 1.0895         calculate D2E/DX2 analytically  !
 ! R12   R(9,11)                 1.4338         calculate D2E/DX2 analytically  !
 ! R13   R(11,12)                1.1068         calculate D2E/DX2 analytically  !
 ! R14   R(11,13)                1.0985         calculate D2E/DX2 analytically  !
 ! A1    A(2,1,3)              106.3602         calculate D2E/DX2 analytically  !
 ! A2    A(2,1,4)              108.5117         calculate D2E/DX2 analytically  !
 ! A3    A(2,1,11)             111.9568         calculate D2E/DX2 analytically  !
 ! A4    A(3,1,4)              112.7661         calculate D2E/DX2 analytically  !
 ! A5    A(3,1,11)             107.466          calculate D2E/DX2 analytically  !
 ! A6    A(4,1,11)             109.7839         calculate D2E/DX2 analytically  !
 ! A7    A(1,4,5)              117.6631         calculate D2E/DX2 analytically  !
 ! A8    A(1,4,14)             120.9429         calculate D2E/DX2 analytically  !
 ! A9    A(5,4,14)             121.3929         calculate D2E/DX2 analytically  !
 ! A10   A(4,5,6)              102.1622         calculate D2E/DX2 analytically  !
 ! A11   A(5,6,7)              102.5613         calculate D2E/DX2 analytically  !
 ! A12   A(5,6,8)              102.2262         calculate D2E/DX2 analytically  !
 ! A13   A(5,6,9)              106.7549         calculate D2E/DX2 analytically  !
 ! A14   A(7,6,8)              105.8989         calculate D2E/DX2 analytically  !
 ! A15   A(7,6,9)              133.4416         calculate D2E/DX2 analytically  !
 ! A16   A(8,6,9)              102.2747         calculate D2E/DX2 analytically  !
 ! A17   A(6,9,10)             126.4121         calculate D2E/DX2 analytically  !
 ! A18   A(6,9,11)             118.6129         calculate D2E/DX2 analytically  !
 ! A19   A(10,9,11)            113.4665         calculate D2E/DX2 analytically  !
 ! A20   A(1,11,9)             107.4723         calculate D2E/DX2 analytically  !
 ! A21   A(1,11,12)            110.416          calculate D2E/DX2 analytically  !
 ! A22   A(1,11,13)            104.1759         calculate D2E/DX2 analytically  !
 ! A23   A(9,11,12)            112.044          calculate D2E/DX2 analytically  !
 ! A24   A(9,11,13)            117.1819         calculate D2E/DX2 analytically  !
 ! A25   A(12,11,13)           105.2305         calculate D2E/DX2 analytically  !
 ! D1    D(2,1,4,5)             65.3256         calculate D2E/DX2 analytically  !
 ! D2    D(2,1,4,14)          -114.2948         calculate D2E/DX2 analytically  !
 ! D3    D(3,1,4,5)           -177.1158         calculate D2E/DX2 analytically  !
 ! D4    D(3,1,4,14)             3.2638         calculate D2E/DX2 analytically  !
 ! D5    D(11,1,4,5)           -57.3226         calculate D2E/DX2 analytically  !
 ! D6    D(11,1,4,14)          123.057          calculate D2E/DX2 analytically  !
 ! D7    D(2,1,11,9)           -83.646          calculate D2E/DX2 analytically  !
 ! D8    D(2,1,11,12)          153.874          calculate D2E/DX2 analytically  !
 ! D9    D(2,1,11,13)           41.3461         calculate D2E/DX2 analytically  !
 ! D10   D(3,1,11,9)           159.9158         calculate D2E/DX2 analytically  !
 ! D11   D(3,1,11,12)           37.4358         calculate D2E/DX2 analytically  !
 ! D12   D(3,1,11,13)          -75.0921         calculate D2E/DX2 analytically  !
 ! D13   D(4,1,11,9)            36.939          calculate D2E/DX2 analytically  !
 ! D14   D(4,1,11,12)          -85.541          calculate D2E/DX2 analytically  !
 ! D15   D(4,1,11,13)          161.9311         calculate D2E/DX2 analytically  !
 ! D16   D(1,4,5,6)             71.7061         calculate D2E/DX2 analytically  !
 ! D17   D(14,4,5,6)          -108.6753         calculate D2E/DX2 analytically  !
 ! D18   D(4,5,6,7)             77.606          calculate D2E/DX2 analytically  !
 ! D19   D(4,5,6,8)           -172.7939         calculate D2E/DX2 analytically  !
 ! D20   D(4,5,6,9)            -65.7915         calculate D2E/DX2 analytically  !
 ! D21   D(5,6,9,10)          -135.0204         calculate D2E/DX2 analytically  !
 ! D22   D(5,6,9,11)            59.9601         calculate D2E/DX2 analytically  !
 ! D23   D(7,6,9,10)            98.2583         calculate D2E/DX2 analytically  !
 ! D24   D(7,6,9,11)           -66.7612         calculate D2E/DX2 analytically  !
 ! D25   D(8,6,9,10)           -28.0525         calculate D2E/DX2 analytically  !
 ! D26   D(8,6,9,11)           166.928          calculate D2E/DX2 analytically  !
 ! D27   D(6,9,11,1)           -43.0786         calculate D2E/DX2 analytically  !
 ! D28   D(6,9,11,12)           78.3882         calculate D2E/DX2 analytically  !
 ! D29   D(6,9,11,13)         -159.8393         calculate D2E/DX2 analytically  !
 ! D30   D(10,9,11,1)          150.0291         calculate D2E/DX2 analytically  !
 ! D31   D(10,9,11,12)         -88.5041         calculate D2E/DX2 analytically  !
 ! D32   D(10,9,11,13)          33.2684         calculate D2E/DX2 analytically  !
 --------------------------------------------------------------------------------
 Trust Radius=3.00D-01 FncErr=1.00D-07 GrdErr=1.00D-06 EigMax=2.50D+02 EigMin=1.00D-04
 Number of steps in this run=     81 maximum allowed number of steps=    100.
 Search for a saddle point of order  1.
 GradGradGradGradGradGradGradGradGradGradGradGradGradGradGradGradGradGrad

 Leave Link  103 at Tue Oct 15 10:42:15 2019, MaxMem=   280000000 cpu:               0.8 elap:               0.1
 (Enter /home/soft/g16/l202.exe)
                          Input orientation:                          
 ---------------------------------------------------------------------
 Center     Atomic      Atomic             Coordinates (Angstroms)
 Number     Number       Type             X           Y           Z
 ---------------------------------------------------------------------
      1          6           0        1.127791   -0.883625   -0.272258
      2          1           0        1.243792   -1.562897    0.579660
      3          1           0        1.921579   -1.148255   -0.990957
      4          6           0       -0.222120   -1.056819   -0.826659
      5          8           0       -1.288381   -0.697489   -0.035455
      6          6           0       -1.193317    0.821076   -0.039713
      7          1           0       -1.611322    1.085426   -1.028698
      8          1           0       -1.958511    1.104120    0.695805
      9          6           0        0.116639    1.187215    0.691836
     10          1           0        0.240854    1.963372    1.446213
     11          6           0        1.357532    0.701836    0.162332
     12          1           0        1.698343    1.295112   -0.707601
     13          1           0        2.217095    0.671637    0.845616
     14          1           0       -0.366408   -1.454660   -1.809412
 ---------------------------------------------------------------------
                    Distance matrix (angstroms):
                    1          2          3          4          5
     1  C    0.000000
     2  H    1.095732   0.000000
     3  H    1.103021   1.760159   0.000000
     4  C    1.469563   2.093501   2.151929   0.000000
     5  O    2.434874   2.745760   3.379352   1.375513   0.000000
     6  C    2.889226   3.465032   3.806009   2.255880   1.521543
     7  H    3.457181   4.213324   4.179969   2.561233   2.066303
     8  H    3.796516   4.169078   4.793063   3.162690   2.056601
     9  C    2.498056   2.974251   3.397649   2.730617   2.460720
    10  H    3.441684   3.767143   4.294979   3.808128   3.407944
    11  C    1.659921   2.305670   2.251901   2.562473   2.999681
    12  H    2.293894   3.167312   2.469851   3.038738   3.652774
    13  H    2.203421   2.451773   2.602371   3.425468   3.865121
    14  H    2.218458   2.883076   2.449211   1.070000   2.137818
                    6          7          8          9         10
     6  C    0.000000
     7  H    1.105757   0.000000
     8  H    1.098464   1.759204   0.000000
     9  C    1.544411   2.440583   2.076817   0.000000
    10  H    2.360013   3.213491   2.477627   1.089465   0.000000
    11  C    2.561615   3.221767   3.382686   1.433800   2.118205
    12  H    3.005409   3.331809   3.921557   2.114675   2.685099
    13  H    3.526620   4.282645   4.200616   2.168268   2.436149
    14  H    2.999097   2.934512   3.918961   3.670024   4.759286
                   11         12         13         14
    11  C    0.000000
    12  H    1.106757   0.000000
    13  H    1.098471   1.752229   0.000000
    14  H    3.392671   3.610876   4.271393   0.000000
 Stoichiometry    C5H8O
 Framework group  C1[X(C5H8O)]
 Deg. of freedom    36
 Full point group                 C1      NOp   1
 Largest Abelian subgroup         C1      NOp   1
 Largest concise Abelian subgroup C1      NOp   1
                         Standard orientation:                         
 ---------------------------------------------------------------------
 Center     Atomic      Atomic             Coordinates (Angstroms)
 Number     Number       Type             X           Y           Z
 ---------------------------------------------------------------------
      1          6           0       -1.000937   -1.048879   -0.151077
      2          1           0       -1.129666   -1.315684   -1.206005
      3          1           0       -1.690645   -1.693898    0.418930
      4          6           0        0.406849   -1.258432    0.214765
      5          8           0        1.349774   -0.461789   -0.392102
      6          6           0        1.102732    0.886780    0.267767
      7          1           0        1.585655    0.763591    1.254838
      8          1           0        1.760640    1.551607   -0.308239
      9          6           0       -0.302119    1.349302   -0.176839
     10          1           0       -0.576491    2.346690   -0.518704
     11          6           0       -1.430560    0.526416    0.147599
     12          1           0       -1.743727    0.647877    1.202153
     13          1           0       -2.344757    0.672648   -0.443586
     14          1           0        0.685003   -2.009642    0.924141
 ---------------------------------------------------------------------
 Rotational constants (GHZ):           5.1224154           4.4373503           2.6471340
 Leave Link  202 at Tue Oct 15 10:42:15 2019, MaxMem=   280000000 cpu:               1.1 elap:               0.1
 (Enter /home/soft/g16/l301.exe)
 Standard basis: 6-31+G(d) (6D, 7F)
 Ernie: Thresh=  0.10000D-02 Tol=  0.10000D-05 Strict=F.
 There are   130 symmetry adapted cartesian basis functions of A   symmetry.
 There are   130 symmetry adapted basis functions of A   symmetry.
   130 basis functions,   224 primitive gaussians,   130 cartesian basis functions
    23 alpha electrons       23 beta electrons
       nuclear repulsion energy       236.2978443328 Hartrees.
 IExCor=  402 DFT=T Ex+Corr=B3LYP ExCW=0 ScaHFX=  0.200000
 ScaDFX=  0.800000  0.720000  1.000000  0.810000 ScalE2=  1.000000  1.000000
 IRadAn=      5 IRanWt=     -1 IRanGd=            0 ICorTp=0 IEmpDi=  4
 NAtoms=   14 NActive=   14 NUniq=   14 SFac= 1.00D+00 NAtFMM=   60 NAOKFM=F Big=F
 Integral buffers will be    131072 words long.
 Raffenetti 2 integral format.
 Two-electron integral symmetry is turned on.
 Leave Link  301 at Tue Oct 15 10:42:15 2019, MaxMem=   280000000 cpu:               1.7 elap:               0.1
 (Enter /home/soft/g16/l302.exe)
 NPDir=0 NMtPBC=     1 NCelOv=     1 NCel=       1 NClECP=     1 NCelD=      1
         NCelK=      1 NCelE2=     1 NClLst=     1 CellRange=     0.0.
 One-electron integrals computed using PRISM.
 One-electron integral symmetry used in STVInt
 NBasis=   130 RedAO= T EigKep=  6.39D-05  NBF=   130
 NBsUse=   130 1.00D-06 EigRej= -1.00D+00 NBFU=   130
 Precomputing XC quadrature grid using
 IXCGrd= 4 IRadAn=           5 IRanWt=          -1 IRanGd=           0 AccXCQ= 0.00D+00.
 Generated NRdTot=       0 NPtTot=           0 NUsed=           0 NTot=          32
 NSgBfM=   130   130   130   130   130 MxSgAt=    14 MxSgA2=    14.
 Leave Link  302 at Tue Oct 15 10:42:16 2019, MaxMem=   280000000 cpu:               4.7 elap:               0.3
 (Enter /home/soft/g16/l303.exe)
 DipDrv:  MaxL=1.
 Leave Link  303 at Tue Oct 15 10:42:16 2019, MaxMem=   280000000 cpu:               1.1 elap:               0.1
 (Enter /home/soft/g16/l401.exe)
 ExpMin= 4.38D-02 ExpMax= 5.48D+03 ExpMxC= 8.25D+02 IAcc=3 IRadAn=         5 AccDes= 0.00D+00
 Harris functional with IExCor=  402 and IRadAn=       5 diagonalized for initial guess.
 HarFok:  IExCor=  402 AccDes= 0.00D+00 IRadAn=         5 IDoV= 1 UseB2=F ITyADJ=14
 ICtDFT=  3500011 ScaDFX=  1.000000  1.000000  1.000000  1.000000
 FoFCou: FMM=F IPFlag=           0 FMFlag=      100000 FMFlg1=           0
         NFxFlg=           0 DoJE=T BraDBF=F KetDBF=T FulRan=T
         wScrn=  0.000000 ICntrl=       500 IOpCl=  0 I1Cent=   200000004 NGrid=           0
         NMat0=    1 NMatS0=      1 NMatT0=    0 NMatD0=    1 NMtDS0=    0 NMtDT0=    0
 Petite list used in FoFCou.
 Harris En= -270.423375895715    
 JPrj=0 DoOrth=F DoCkMO=F.
 Leave Link  401 at Tue Oct 15 10:42:16 2019, MaxMem=   280000000 cpu:               9.1 elap:               0.5
 (Enter /home/soft/g16/l502.exe)
 Integral symmetry usage will be decided dynamically.
 Closed shell SCF:
 Using DIIS extrapolation, IDIIS=  1040.
 NGot=   280000000 LenX=   279961518 LenY=   279944177
 Requested convergence on RMS density matrix=1.00D-08 within 128 cycles.
 Requested convergence on MAX density matrix=1.00D-06.
 Requested convergence on             energy=1.00D-06.
 No special actions if energy rises.
 Fock matrices will be formed incrementally for  20 cycles.

 Cycle   1  Pass 1  IDiag  1:
 FoFJK:  IHMeth= 1 ICntrl=       0 DoSepK=F KAlg= 0 I1Cent=           0 FoldK=F
 IRaf= 990000000 NMat=       1 IRICut=       1 DoRegI=T DoRafI=F ISym2E= 0 IDoP0=0 IntGTp=1.
 FoFCou: FMM=F IPFlag=           0 FMFlag=      100000 FMFlg1=           0
         NFxFlg=           0 DoJE=F BraDBF=F KetDBF=F FulRan=T
         wScrn=  0.000000 ICntrl=         0 IOpCl=  0 I1Cent=           0 NGrid=           0
         NMat0=    1 NMatS0=      1 NMatT0=    0 NMatD0=    1 NMtDS0=    0 NMtDT0=    0
 Symmetry not used in FoFCou.
 E= -270.163841976758    
 DIIS: error= 2.01D-02 at cycle   1 NSaved=   1.
 NSaved= 1 IEnMin= 1 EnMin= -270.163841976758     IErMin= 1 ErrMin= 2.01D-02
 ErrMax= 2.01D-02  0.00D+00 EMaxC= 1.00D-01 BMatC= 1.97D-01 BMatP= 1.97D-01
 IDIUse=3 WtCom= 7.99D-01 WtEn= 2.01D-01
 Coeff-Com:  0.100D+01
 Coeff-En:   0.100D+01
 Coeff:      0.100D+01
 Gap=    -0.133 Goal=   None    Shift=    0.000
 GapD=   -0.133 DampG=0.250 DampE=0.500 DampFc=0.2500 IDamp=-1.
 Damping current iteration by 2.50D-01
 RMSDP=2.47D-02 MaxDP=8.62D-01              OVMax= 5.96D-01

 Cycle   2  Pass 1  IDiag  1:
 RMSU=  6.17D-03    CP:  9.93D-01
 E= -270.257745634639     Delta-E=       -0.093903657881 Rises=F Damp=T
 DIIS: error= 1.03D-02 at cycle   2 NSaved=   2.
 NSaved= 2 IEnMin= 2 EnMin= -270.257745634639     IErMin= 2 ErrMin= 1.03D-02
 ErrMax= 1.03D-02  0.00D+00 EMaxC= 1.00D-01 BMatC= 3.53D-02 BMatP= 1.97D-01
 IDIUse=3 WtCom= 8.97D-01 WtEn= 1.03D-01
 Coeff-Com: -0.247D+00 0.125D+01
 Coeff-En:   0.268D-01 0.973D+00
 Coeff:     -0.219D+00 0.122D+01
 Gap=     0.245 Goal=   None    Shift=    0.000
 RMSDP=8.34D-03 MaxDP=1.76D-01 DE=-9.39D-02 OVMax= 8.81D-01

 Cycle   3  Pass 1  IDiag  1:
 RMSU=  6.76D-03    CP:  9.76D-01  2.12D-01
 E= -270.286058912098     Delta-E=       -0.028313277459 Rises=F Damp=F
 DIIS: error= 1.21D-02 at cycle   3 NSaved=   3.
 NSaved= 3 IEnMin= 3 EnMin= -270.286058912098     IErMin= 2 ErrMin= 1.03D-02
 ErrMax= 1.21D-02  0.00D+00 EMaxC= 1.00D-01 BMatC= 7.70D-02 BMatP= 3.53D-02
 IDIUse=2 WtCom= 0.00D+00 WtEn= 1.00D+00
 Coeff-En:   0.000D+00 0.380D+00 0.620D+00
 Coeff:      0.000D+00 0.380D+00 0.620D+00
 Gap=    -0.048 Goal=   None    Shift=    0.000
 RMSDP=1.27D-02 MaxDP=2.17D-01 DE=-2.83D-02 OVMax= 8.44D-01

 Cycle   4  Pass 1  IDiag  1:
 RMSU=  7.12D-03    CP:  9.40D-01  1.44D+00 -5.27D-02
 E= -269.820087331754     Delta-E=        0.465971580344 Rises=F Damp=F
 DIIS: error= 3.12D-02 at cycle   4 NSaved=   4.
 NSaved= 4 IEnMin= 3 EnMin= -270.286058912098     IErMin= 2 ErrMin= 1.03D-02
 ErrMax= 3.12D-02  0.00D+00 EMaxC= 1.00D-01 BMatC= 3.96D-01 BMatP= 3.53D-02
 IDIUse=2 WtCom= 0.00D+00 WtEn= 1.00D+00
 Coeff-En:   0.000D+00 0.000D+00 0.741D+00 0.259D+00
 Coeff:      0.000D+00 0.000D+00 0.741D+00 0.259D+00
 Gap=     0.038 Goal=   None    Shift=    0.000
 RMSDP=7.35D-03 MaxDP=1.08D-01 DE= 4.66D-01 OVMax= 4.91D-01

 Cycle   5  Pass 1  IDiag  1:
 RMSU=  3.77D-03    CP:  9.69D-01  6.29D-01  3.88D-01  6.90D-01
 E= -270.344333936816     Delta-E=       -0.524246605062 Rises=F Damp=F
 DIIS: error= 1.30D-02 at cycle   5 NSaved=   5.
 NSaved= 5 IEnMin= 5 EnMin= -270.344333936816     IErMin= 2 ErrMin= 1.03D-02
 ErrMax= 1.30D-02  0.00D+00 EMaxC= 1.00D-01 BMatC= 4.18D-02 BMatP= 3.53D-02
 IDIUse=2 WtCom= 0.00D+00 WtEn= 1.00D+00
 Coeff-En:   0.000D+00 0.000D+00 0.383D+00 0.000D+00 0.617D+00
 Coeff:      0.000D+00 0.000D+00 0.383D+00 0.000D+00 0.617D+00
 Gap=     0.058 Goal=   None    Shift=    0.000
 RMSDP=3.97D-03 MaxDP=6.33D-02 DE=-5.24D-01 OVMax= 2.65D-01

 Cycle   6  Pass 1  IDiag  1:
 RMSU=  6.78D-04    CP:  9.75D-01  3.43D-01  7.28D-01  3.46D-01  7.63D-01
 E= -270.391192085605     Delta-E=       -0.046858148789 Rises=F Damp=F
 DIIS: error= 4.37D-03 at cycle   6 NSaved=   6.
 NSaved= 6 IEnMin= 6 EnMin= -270.391192085605     IErMin= 6 ErrMin= 4.37D-03
 ErrMax= 4.37D-03  0.00D+00 EMaxC= 1.00D-01 BMatC= 4.68D-03 BMatP= 3.53D-02
 IDIUse=3 WtCom= 9.56D-01 WtEn= 4.37D-02
 Coeff-Com: -0.688D-01 0.811D-01 0.221D-01-0.259D-01 0.270D+00 0.722D+00
 Coeff-En:   0.000D+00 0.000D+00 0.000D+00 0.000D+00 0.194D+00 0.806D+00
 Coeff:     -0.658D-01 0.776D-01 0.211D-01-0.248D-01 0.266D+00 0.726D+00
 Gap=     0.066 Goal=   None    Shift=    0.000
 RMSDP=1.60D-03 MaxDP=4.82D-02 DE=-4.69D-02 OVMax= 9.46D-02

 Cycle   7  Pass 1  IDiag  1:
 RMSU=  4.45D-04    CP:  9.73D-01  4.64D-01  6.70D-01  4.81D-01  9.85D-01
                    CP:  9.09D-01
 E= -270.396864663337     Delta-E=       -0.005672577732 Rises=F Damp=F
 DIIS: error= 1.36D-03 at cycle   7 NSaved=   7.
 NSaved= 7 IEnMin= 7 EnMin= -270.396864663337     IErMin= 7 ErrMin= 1.36D-03
 ErrMax= 1.36D-03  0.00D+00 EMaxC= 1.00D-01 BMatC= 4.93D-04 BMatP= 4.68D-03
 IDIUse=3 WtCom= 9.86D-01 WtEn= 1.36D-02
 Coeff-Com: -0.449D-02-0.400D-02-0.270D-01-0.436D-02 0.530D-01 0.406D+00
 Coeff-Com:  0.581D+00
 Coeff-En:   0.000D+00 0.000D+00 0.000D+00 0.000D+00 0.000D+00 0.172D+00
 Coeff-En:   0.828D+00
 Coeff:     -0.443D-02-0.395D-02-0.266D-01-0.430D-02 0.522D-01 0.403D+00
 Coeff:      0.584D+00
 Gap=     0.069 Goal=   None    Shift=    0.000
 RMSDP=3.35D-04 MaxDP=1.10D-02 DE=-5.67D-03 OVMax= 1.86D-02

 Cycle   8  Pass 1  IDiag  1:
 RMSU=  9.88D-05    CP:  9.73D-01  4.33D-01  6.76D-01  4.55D-01  9.45D-01
                    CP:  9.93D-01  8.72D-01
 E= -270.397445852516     Delta-E=       -0.000581189179 Rises=F Damp=F
 DIIS: error= 1.54D-04 at cycle   8 NSaved=   8.
 NSaved= 8 IEnMin= 8 EnMin= -270.397445852516     IErMin= 8 ErrMin= 1.54D-04
 ErrMax= 1.54D-04  0.00D+00 EMaxC= 1.00D-01 BMatC= 6.45D-06 BMatP= 4.93D-04
 IDIUse=3 WtCom= 9.98D-01 WtEn= 1.54D-03
 Coeff-Com:  0.169D-02-0.250D-02-0.846D-02-0.975D-03 0.210D-02 0.113D+00
 Coeff-Com:  0.253D+00 0.642D+00
 Coeff-En:   0.000D+00 0.000D+00 0.000D+00 0.000D+00 0.000D+00 0.000D+00
 Coeff-En:   0.000D+00 0.100D+01
 Coeff:      0.169D-02-0.250D-02-0.845D-02-0.973D-03 0.210D-02 0.113D+00
 Coeff:      0.253D+00 0.642D+00
 Gap=     0.069 Goal=   None    Shift=    0.000
 RMSDP=3.83D-05 MaxDP=8.76D-04 DE=-5.81D-04 OVMax= 7.47D-04

 Cycle   9  Pass 1  IDiag  1:
 RMSU=  2.74D-05    CP:  9.73D-01  4.33D-01  6.76D-01  4.54D-01  9.44D-01
                    CP:  9.84D-01  8.41D-01  8.07D-01
 E= -270.397451759267     Delta-E=       -0.000005906751 Rises=F Damp=F
 DIIS: error= 5.82D-05 at cycle   9 NSaved=   9.
 NSaved= 9 IEnMin= 9 EnMin= -270.397451759267     IErMin= 9 ErrMin= 5.82D-05
 ErrMax= 5.82D-05  0.00D+00 EMaxC= 1.00D-01 BMatC= 1.08D-06 BMatP= 6.45D-06
 IDIUse=1 WtCom= 1.00D+00 WtEn= 0.00D+00
 Coeff-Com:  0.231D-02-0.281D-02-0.385D-02-0.165D-03-0.345D-02 0.417D-01
 Coeff-Com:  0.112D+00 0.365D+00 0.489D+00
 Coeff:      0.231D-02-0.281D-02-0.385D-02-0.165D-03-0.345D-02 0.417D-01
 Coeff:      0.112D+00 0.365D+00 0.489D+00
 Gap=     0.069 Goal=   None    Shift=    0.000
 RMSDP=1.49D-05 MaxDP=3.46D-04 DE=-5.91D-06 OVMax= 5.12D-04

 Cycle  10  Pass 1  IDiag  1:
 RMSU=  7.53D-06    CP:  9.73D-01  4.32D-01  6.77D-01  4.53D-01  9.44D-01
                    CP:  9.91D-01  8.56D-01  8.44D-01  8.48D-01
 E= -270.397452806284     Delta-E=       -0.000001047017 Rises=F Damp=F
 DIIS: error= 1.69D-05 at cycle  10 NSaved=  10.
 NSaved=10 IEnMin=10 EnMin= -270.397452806284     IErMin=10 ErrMin= 1.69D-05
 ErrMax= 1.69D-05  0.00D+00 EMaxC= 1.00D-01 BMatC= 9.77D-08 BMatP= 1.08D-06
 IDIUse=1 WtCom= 1.00D+00 WtEn= 0.00D+00
 Coeff-Com:  0.124D-02-0.147D-02-0.208D-03 0.157D-03-0.258D-02-0.163D-02
 Coeff-Com:  0.672D-02 0.582D-01 0.236D+00 0.704D+00
 Coeff:      0.124D-02-0.147D-02-0.208D-03 0.157D-03-0.258D-02-0.163D-02
 Coeff:      0.672D-02 0.582D-01 0.236D+00 0.704D+00
 Gap=     0.069 Goal=   None    Shift=    0.000
 RMSDP=6.64D-06 MaxDP=1.48D-04 DE=-1.05D-06 OVMax= 2.45D-04

 Cycle  11  Pass 1  IDiag  1:
 RMSU=  3.35D-06    CP:  9.73D-01  4.31D-01  6.77D-01  4.53D-01  9.44D-01
                    CP:  9.92D-01  8.60D-01  8.68D-01  8.49D-01  1.07D+00
 E= -270.397452912786     Delta-E=       -0.000000106501 Rises=F Damp=F
 DIIS: error= 5.41D-06 at cycle  11 NSaved=  11.
 NSaved=11 IEnMin=11 EnMin= -270.397452912786     IErMin=11 ErrMin= 5.41D-06
 ErrMax= 5.41D-06  0.00D+00 EMaxC= 1.00D-01 BMatC= 7.29D-09 BMatP= 9.77D-08
 IDIUse=1 WtCom= 1.00D+00 WtEn= 0.00D+00
 Coeff-Com:  0.400D-03-0.504D-03 0.122D-03 0.943D-04-0.874D-03-0.319D-02
 Coeff-Com: -0.426D-02 0.272D-03 0.766D-01 0.350D+00 0.582D+00
 Coeff:      0.400D-03-0.504D-03 0.122D-03 0.943D-04-0.874D-03-0.319D-02
 Coeff:     -0.426D-02 0.272D-03 0.766D-01 0.350D+00 0.582D+00
 Gap=     0.069 Goal=   None    Shift=    0.000
 RMSDP=2.26D-06 MaxDP=6.00D-05 DE=-1.07D-07 OVMax= 4.10D-05

 Cycle  12  Pass 1  IDiag  1:
 RMSU=  1.19D-06    CP:  9.73D-01  4.31D-01  6.77D-01  4.53D-01  9.44D-01
                    CP:  9.91D-01  8.58D-01  8.65D-01  8.78D-01  1.03D+00
                    CP:  7.65D-01
 E= -270.397452918617     Delta-E=       -0.000000005831 Rises=F Damp=F
 DIIS: error= 2.99D-06 at cycle  12 NSaved=  12.
 NSaved=12 IEnMin=12 EnMin= -270.397452918617     IErMin=12 ErrMin= 2.99D-06
 ErrMax= 2.99D-06  0.00D+00 EMaxC= 1.00D-01 BMatC= 2.13D-09 BMatP= 7.29D-09
 IDIUse=1 WtCom= 1.00D+00 WtEn= 0.00D+00
 Coeff-Com: -0.172D-04 0.350D-04 0.103D-03 0.139D-04-0.498D-04-0.136D-02
 Coeff-Com: -0.243D-02-0.702D-02 0.910D-02 0.757D-01 0.279D+00 0.646D+00
 Coeff:     -0.172D-04 0.350D-04 0.103D-03 0.139D-04-0.498D-04-0.136D-02
 Coeff:     -0.243D-02-0.702D-02 0.910D-02 0.757D-01 0.279D+00 0.646D+00
 Gap=     0.069 Goal=   None    Shift=    0.000
 RMSDP=1.13D-06 MaxDP=2.49D-05 DE=-5.83D-09 OVMax= 3.16D-05

 Cycle  13  Pass 1  IDiag  1:
 RMSU=  5.02D-07    CP:  9.73D-01  4.32D-01  6.77D-01  4.53D-01  9.44D-01
                    CP:  9.91D-01  8.57D-01  8.59D-01  8.86D-01  1.04D+00
                    CP:  7.88D-01  1.02D+00
 E= -270.397452921133     Delta-E=       -0.000000002516 Rises=F Damp=F
 DIIS: error= 5.00D-07 at cycle  13 NSaved=  13.
 NSaved=13 IEnMin=13 EnMin= -270.397452921133     IErMin=13 ErrMin= 5.00D-07
 ErrMax= 5.00D-07  0.00D+00 EMaxC= 1.00D-01 BMatC= 6.69D-11 BMatP= 2.13D-09
 IDIUse=1 WtCom= 1.00D+00 WtEn= 0.00D+00
 Coeff-Com: -0.378D-04 0.510D-04 0.170D-04-0.247D-05 0.558D-04-0.128D-03
 Coeff-Com: -0.265D-03-0.170D-02-0.343D-02-0.467D-02 0.272D-01 0.137D+00
 Coeff-Com:  0.846D+00
 Coeff:     -0.378D-04 0.510D-04 0.170D-04-0.247D-05 0.558D-04-0.128D-03
 Coeff:     -0.265D-03-0.170D-02-0.343D-02-0.467D-02 0.272D-01 0.137D+00
 Coeff:      0.846D+00
 Gap=     0.069 Goal=   None    Shift=    0.000
 RMSDP=2.08D-07 MaxDP=2.76D-06 DE=-2.52D-09 OVMax= 8.65D-06

 Cycle  14  Pass 1  IDiag  1:
 RMSU=  1.04D-07    CP:  9.73D-01  4.32D-01  6.76D-01  4.53D-01  9.44D-01
                    CP:  9.91D-01  8.57D-01  8.59D-01  8.86D-01  1.04D+00
                    CP:  8.11D-01  1.08D+00  1.03D+00
 E= -270.397452921238     Delta-E=       -0.000000000105 Rises=F Damp=F
 DIIS: error= 1.40D-07 at cycle  14 NSaved=  14.
 NSaved=14 IEnMin=14 EnMin= -270.397452921238     IErMin=14 ErrMin= 1.40D-07
 ErrMax= 1.40D-07  0.00D+00 EMaxC= 1.00D-01 BMatC= 5.85D-12 BMatP= 6.69D-11
 IDIUse=1 WtCom= 1.00D+00 WtEn= 0.00D+00
 Coeff-Com: -0.893D-05 0.102D-04-0.245D-05-0.993D-06 0.195D-04 0.372D-04
 Coeff-Com:  0.567D-04-0.107D-03-0.228D-02-0.830D-02-0.148D-01-0.159D-01
 Coeff-Com:  0.354D+00 0.688D+00
 Coeff:     -0.893D-05 0.102D-04-0.245D-05-0.993D-06 0.195D-04 0.372D-04
 Coeff:      0.567D-04-0.107D-03-0.228D-02-0.830D-02-0.148D-01-0.159D-01
 Coeff:      0.354D+00 0.688D+00
 Gap=     0.069 Goal=   None    Shift=    0.000
 RMSDP=5.89D-08 MaxDP=8.97D-07 DE=-1.05D-10 OVMax= 2.24D-06

 Cycle  15  Pass 1  IDiag  1:
 RMSU=  3.40D-08    CP:  9.73D-01  4.32D-01  6.76D-01  4.53D-01  9.44D-01
                    CP:  9.91D-01  8.57D-01  8.59D-01  8.86D-01  1.05D+00
                    CP:  8.12D-01  1.09D+00  1.09D+00  9.42D-01
 E= -270.397452921243     Delta-E=       -0.000000000004 Rises=F Damp=F
 DIIS: error= 7.29D-08 at cycle  15 NSaved=  15.
 NSaved=15 IEnMin=15 EnMin= -270.397452921243     IErMin=15 ErrMin= 7.29D-08
 ErrMax= 7.29D-08  0.00D+00 EMaxC= 1.00D-01 BMatC= 8.72D-13 BMatP= 5.85D-12
 IDIUse=1 WtCom= 1.00D+00 WtEn= 0.00D+00
 Coeff-Com:  0.457D-06-0.133D-05-0.104D-05-0.226D-06 0.208D-05 0.814D-05
 Coeff-Com:  0.105D-04 0.370D-04-0.610D-03-0.279D-02-0.778D-02-0.190D-01
 Coeff-Com:  0.616D-01 0.319D+00 0.649D+00
 Coeff:      0.457D-06-0.133D-05-0.104D-05-0.226D-06 0.208D-05 0.814D-05
 Coeff:      0.105D-04 0.370D-04-0.610D-03-0.279D-02-0.778D-02-0.190D-01
 Coeff:      0.616D-01 0.319D+00 0.649D+00
 Gap=     0.069 Goal=   None    Shift=    0.000
 RMSDP=2.32D-08 MaxDP=4.57D-07 DE=-4.21D-12 OVMax= 6.69D-07

 Cycle  16  Pass 1  IDiag  1:
 RMSU=  1.16D-08    CP:  9.73D-01  4.32D-01  6.76D-01  4.53D-01  9.44D-01
                    CP:  9.91D-01  8.57D-01  8.59D-01  8.87D-01  1.05D+00
                    CP:  8.10D-01  1.09D+00  1.10D+00  9.52D-01  1.03D+00
 E= -270.397452921245     Delta-E=       -0.000000000002 Rises=F Damp=F
 DIIS: error= 2.17D-08 at cycle  16 NSaved=  16.
 NSaved=16 IEnMin=16 EnMin= -270.397452921245     IErMin=16 ErrMin= 2.17D-08
 ErrMax= 2.17D-08  0.00D+00 EMaxC= 1.00D-01 BMatC= 1.22D-13 BMatP= 8.72D-13
 IDIUse=1 WtCom= 1.00D+00 WtEn= 0.00D+00
 Coeff-Com:  0.408D-06-0.681D-06-0.325D-06-0.727D-07 0.365D-06 0.495D-05
 Coeff-Com:  0.242D-05 0.542D-05-0.824D-04-0.681D-03-0.135D-02-0.252D-02
 Coeff-Com: -0.199D-02 0.399D-01 0.147D+00 0.820D+00
 Coeff:      0.408D-06-0.681D-06-0.325D-06-0.727D-07 0.365D-06 0.495D-05
 Coeff:      0.242D-05 0.542D-05-0.824D-04-0.681D-03-0.135D-02-0.252D-02
 Coeff:     -0.199D-02 0.399D-01 0.147D+00 0.820D+00
 Gap=     0.069 Goal=   None    Shift=    0.000
 RMSDP=8.39D-09 MaxDP=3.09D-07 DE=-2.27D-12 OVMax= 1.63D-07

 SCF Done:  E(RB3LYP) =  -270.397452921     A.U. after   16 cycles
            NFock= 16  Conv=0.84D-08     -V/T= 2.0102
 KE= 2.676714775116D+02 PE=-1.100830187366D+03 EE= 3.264634126001D+02
 Leave Link  502 at Tue Oct 15 10:42:21 2019, MaxMem=   280000000 cpu:             118.6 elap:               5.0
 (Enter /home/soft/g16/l801.exe)
 DoSCS=F DFT=T ScalE2(SS,OS)=  1.000000  1.000000
 Range of M.O.s used for correlation:     1   130
 NBasis=   130 NAE=    23 NBE=    23 NFC=     0 NFV=     0
 NROrb=    130 NOA=    23 NOB=    23 NVA=   107 NVB=   107

 **** Warning!!: The largest alpha MO coefficient is  0.44249720D+02


 **** Warning!!: The smallest alpha delta epsilon is  0.68961400D-01

 Leave Link  801 at Tue Oct 15 10:42:21 2019, MaxMem=   280000000 cpu:               0.5 elap:               0.0
 (Enter /home/soft/g16/l1101.exe)
 Using compressed storage, NAtomX=    14.
 Will process     15 centers per pass.
 Leave Link 1101 at Tue Oct 15 10:42:22 2019, MaxMem=   280000000 cpu:               3.7 elap:               0.2
 (Enter /home/soft/g16/l1102.exe)
 Symmetrizing basis deriv contribution to polar:
 IMax=3 JMax=2 DiffMx= 0.00D+00
 Leave Link 1102 at Tue Oct 15 10:42:22 2019, MaxMem=   280000000 cpu:               0.7 elap:               0.1
 (Enter /home/soft/g16/l1110.exe)
 Forming Gx(P) for the SCF density, NAtomX=    14.
 Integral derivatives from FoFJK, PRISM(SPDF).
 Do as many integral derivatives as possible in FoFJK.
 G2DrvN: MDV=     279998856.
 G2DrvN: will do    15 centers at a time, making    1 passes.
 Calling FoFCou, ICntrl=  3107 FMM=F I1Cent=   0 AccDes= 0.00D+00.
 FoFJK:  IHMeth= 1 ICntrl=    3107 DoSepK=F KAlg= 0 I1Cent=           0 FoldK=F
 IRaf=         0 NMat=       1 IRICut=       1 DoRegI=T DoRafI=F ISym2E= 0 IDoP0=0 IntGTp=1.
 FoFCou: FMM=F IPFlag=           0 FMFlag=      100000 FMFlg1=           0
         NFxFlg=           0 DoJE=F BraDBF=F KetDBF=F FulRan=T
         wScrn=  0.000000 ICntrl=      3107 IOpCl=  0 I1Cent=           0 NGrid=           0
         NMat0=    1 NMatS0=      1 NMatT0=    0 NMatD0=    1 NMtDS0=    0 NMtDT0=    0
 Symmetry not used in FoFCou.
 End of G2Drv F.D. properties file   721 does not exist.
 End of G2Drv F.D. properties file   722 does not exist.
 End of G2Drv F.D. properties file   788 does not exist.
 Leave Link 1110 at Tue Oct 15 10:42:27 2019, MaxMem=   280000000 cpu:             135.7 elap:               5.7
 (Enter /home/soft/g16/l1002.exe)
 Minotr:  Closed shell wavefunction.
          IDoAtm=11111111111111
          Direct CPHF calculation.
          Differentiating once with respect to nuclear coordinates.
          Requested convergence is 1.0D-08 RMS, and 1.0D-07 maximum.
          Secondary convergence is 1.0D-12 RMS, and 1.0D-12 maximum.
          NewPWx=T KeepS1=F KeepF1=F KeepIn=T MapXYZ=F SortEE=F KeepMc=T.
         4236 words used for storage of precomputed grid.
 Keep R1 ints in memory in canonical form, NReq=59094296.
 FoFCou: FMM=F IPFlag=           0 FMFlag=           0 FMFlg1=           0
         NFxFlg=           0 DoJE=F BraDBF=F KetDBF=F FulRan=T
         wScrn=  0.000000 ICntrl=       600 IOpCl=  0 I1Cent=           0 NGrid=           0
         NMat0=    1 NMatS0=   8515 NMatT0=    0 NMatD0=    1 NMtDS0=    0 NMtDT0=    0
 Symmetry not used in FoFCou.
 Two-electron integral symmetry not used.
          MDV=     280000000 using IRadAn=       1.
          Solving linear equations simultaneously, MaxMat=       0.
          There are    45 degrees of freedom in the 1st order CPHF.  IDoFFX=6 NUNeed=     0.
     39 vectors produced by pass  0 Test12= 5.47D-15 2.22D-09 XBig12= 1.84D-01 2.20D-01.
 AX will form    39 AO Fock derivatives at one time.
     39 vectors produced by pass  1 Test12= 5.47D-15 2.22D-09 XBig12= 7.42D-02 7.81D-02.
     39 vectors produced by pass  2 Test12= 5.47D-15 2.22D-09 XBig12= 4.43D-04 2.90D-03.
     39 vectors produced by pass  3 Test12= 5.47D-15 2.22D-09 XBig12= 1.64D-06 1.83D-04.
     39 vectors produced by pass  4 Test12= 5.47D-15 2.22D-09 XBig12= 2.69D-09 8.30D-06.
     32 vectors produced by pass  5 Test12= 5.47D-15 2.22D-09 XBig12= 3.19D-12 2.62D-07.
      3 vectors produced by pass  6 Test12= 5.47D-15 2.22D-09 XBig12= 2.80D-15 6.61D-09.
 InvSVY:  IOpt=1 It=  1 EMax= 3.11D-15
 Solved reduced A of dimension   230 with    39 vectors.
 End of Minotr F.D. properties file   721 does not exist.
 End of Minotr F.D. properties file   722 does not exist.
 End of Minotr F.D. properties file   788 does not exist.
 Leave Link 1002 at Tue Oct 15 10:42:35 2019, MaxMem=   280000000 cpu:             181.1 elap:               7.6
 (Enter /home/soft/g16/l601.exe)
 Copying SCF densities to generalized density rwf, IOpCl= 0 IROHF=0.

 **********************************************************************

            Population analysis using the SCF density.

 **********************************************************************

 Orbital symmetries:
       Occupied  (A) (A) (A) (A) (A) (A) (A) (A) (A) (A) (A) (A)
                 (A) (A) (A) (A) (A) (A) (A) (A) (A) (A) (A)
       Virtual   (A) (A) (A) (A) (A) (A) (A) (A) (A) (A) (A) (A)
                 (A) (A) (A) (A) (A) (A) (A) (A) (A) (A) (A) (A)
                 (A) (A) (A) (A) (A) (A) (A) (A) (A) (A) (A) (A)
                 (A) (A) (A) (A) (A) (A) (A) (A) (A) (A) (A) (A)
                 (A) (A) (A) (A) (A) (A) (A) (A) (A) (A) (A) (A)
                 (A) (A) (A) (A) (A) (A) (A) (A) (A) (A) (A) (A)
                 (A) (A) (A) (A) (A) (A) (A) (A) (A) (A) (A) (A)
                 (A) (A) (A) (A) (A) (A) (A) (A) (A) (A) (A) (A)
                 (A) (A) (A) (A) (A) (A) (A) (A) (A) (A) (A)
 The electronic state is 1-A.
 Alpha  occ. eigenvalues --  -19.18619 -10.25681 -10.24373 -10.20744 -10.20281
 Alpha  occ. eigenvalues --  -10.18930  -1.05004  -0.79902  -0.75230  -0.66451
 Alpha  occ. eigenvalues --   -0.61161  -0.55441  -0.50213  -0.47039  -0.44693
 Alpha  occ. eigenvalues --   -0.43943  -0.41831  -0.40807  -0.38114  -0.34520
 Alpha  occ. eigenvalues --   -0.32976  -0.28190  -0.16365
 Alpha virt. eigenvalues --   -0.09469   0.00970   0.02199   0.02661   0.03133
 Alpha virt. eigenvalues --    0.04337   0.04672   0.06565   0.06983   0.08352
 Alpha virt. eigenvalues --    0.08788   0.10238   0.11162   0.11555   0.12088
 Alpha virt. eigenvalues --    0.12278   0.13290   0.14661   0.15477   0.16520
 Alpha virt. eigenvalues --    0.18145   0.18610   0.18941   0.21407   0.22417
 Alpha virt. eigenvalues --    0.23417   0.25196   0.25345   0.27589   0.28476
 Alpha virt. eigenvalues --    0.29983   0.31887   0.32438   0.33807   0.34036
 Alpha virt. eigenvalues --    0.34893   0.36613   0.39672   0.39999   0.61720
 Alpha virt. eigenvalues --    0.63629   0.64582   0.66309   0.68105   0.69796
 Alpha virt. eigenvalues --    0.72893   0.74135   0.74530   0.75427   0.77235
 Alpha virt. eigenvalues --    0.79866   0.85552   0.86835   0.92591   0.95231
 Alpha virt. eigenvalues --    0.97115   0.99592   1.00516   1.05225   1.07111
 Alpha virt. eigenvalues --    1.09136   1.10929   1.13295   1.18150   1.20856
 Alpha virt. eigenvalues --    1.28337   1.29716   1.35960   1.41565   1.47063
 Alpha virt. eigenvalues --    1.49822   1.58133   1.61166   1.68506   1.69041
 Alpha virt. eigenvalues --    1.73019   1.78139   1.79407   1.82927   1.89780
 Alpha virt. eigenvalues --    1.91761   1.99060   2.02331   2.05133   2.09454
 Alpha virt. eigenvalues --    2.13498   2.16175   2.20449   2.26315   2.31569
 Alpha virt. eigenvalues --    2.35561   2.41323   2.45510   2.49231   2.59762
 Alpha virt. eigenvalues --    2.63147   2.71103   2.74556   2.79246   2.81348
 Alpha virt. eigenvalues --    2.96135   4.15919   4.19799   4.26012   4.39452
 Alpha virt. eigenvalues --    4.49067   4.57765
          Condensed to atoms (all electrons):
               1          2          3          4          5          6
     1  C    6.024149   0.388415   0.390697  -0.023338  -0.102906   0.108438
     2  H    0.388415   0.490128  -0.040095  -0.008460  -0.004285   0.011538
     3  H    0.390697  -0.040095   0.538239  -0.073009   0.008212  -0.000157
     4  C   -0.023338  -0.008460  -0.073009   6.166114   0.295386  -0.228973
     5  O   -0.102906  -0.004285   0.008212   0.295386   8.208013   0.104585
     6  C    0.108438   0.011538  -0.000157  -0.228973   0.104585   5.624441
     7  H    0.012088  -0.000157   0.000134  -0.096813  -0.041411   0.430509
     8  H   -0.004476   0.000054  -0.000003   0.038196  -0.038142   0.416490
     9  C   -0.146933  -0.036771   0.023607  -0.154273  -0.042261   0.131514
    10  H    0.019298   0.000008  -0.000111  -0.002445   0.005260  -0.024990
    11  C    0.070736  -0.044814  -0.041119  -0.395122  -0.042457  -0.177304
    12  H   -0.053793   0.000753  -0.001481  -0.076490   0.004508  -0.032611
    13  H   -0.045378  -0.001329  -0.001367   0.043044  -0.001828   0.018216
    14  H   -0.091007   0.003530  -0.002201   0.420110  -0.057874   0.013279
               7          8          9         10         11         12
     1  C    0.012088  -0.004476  -0.146933   0.019298   0.070736  -0.053793
     2  H   -0.000157   0.000054  -0.036771   0.000008  -0.044814   0.000753
     3  H    0.000134  -0.000003   0.023607  -0.000111  -0.041119  -0.001481
     4  C   -0.096813   0.038196  -0.154273  -0.002445  -0.395122  -0.076490
     5  O   -0.041411  -0.038142  -0.042261   0.005260  -0.042457   0.004508
     6  C    0.430509   0.416490   0.131514  -0.024990  -0.177304  -0.032611
     7  H    0.550274  -0.047901  -0.021937   0.001810  -0.001157   0.001257
     8  H   -0.047901   0.550386  -0.121455  -0.003646   0.020015  -0.000281
     9  C   -0.021937  -0.121455   5.956583   0.373040   0.207489  -0.043092
    10  H    0.001810  -0.003646   0.373040   0.503499  -0.060311   0.002654
    11  C   -0.001157   0.020015   0.207489  -0.060311   6.083920   0.487981
    12  H    0.001257  -0.000281  -0.043092   0.002654   0.487981   0.536336
    13  H   -0.000172  -0.000043  -0.072196  -0.005804   0.364542  -0.050001
    14  H    0.001488  -0.000143  -0.004495   0.000016  -0.011324  -0.000037
              13         14
     1  C   -0.045378  -0.091007
     2  H   -0.001329   0.003530
     3  H   -0.001367  -0.002201
     4  C    0.043044   0.420110
     5  O   -0.001828  -0.057874
     6  C    0.018216   0.013279
     7  H   -0.000172   0.001488
     8  H   -0.000043  -0.000143
     9  C   -0.072196  -0.004495
    10  H   -0.005804   0.000016
    11  C    0.364542  -0.011324
    12  H   -0.050001  -0.000037
    13  H    0.557375  -0.000109
    14  H   -0.000109   0.533337
 Mulliken charges:
               1
     1  C   -0.545991
     2  H    0.241485
     3  H    0.198656
     4  C    0.096075
     5  O   -0.294800
     6  C   -0.394974
     7  H    0.211988
     8  H    0.190950
     9  C   -0.048818
    10  H    0.191723
    11  C   -0.461074
    12  H    0.224299
    13  H    0.195050
    14  H    0.195432
 Sum of Mulliken charges =  -0.00000
 Mulliken charges with hydrogens summed into heavy atoms:
               1
     1  C   -0.105849
     4  C    0.291506
     5  O   -0.294800
     6  C    0.007964
     9  C    0.142905
    11  C   -0.041726
 APT charges:
               1
     1  C   -1.049569
     2  H    0.492660
     3  H    0.502083
     4  C   -0.191116
     5  O   -0.300575
     6  C   -1.116241
     7  H    0.517152
     8  H    0.484333
     9  C   -0.393673
    10  H    0.572911
    11  C   -1.044293
    12  H    0.484884
    13  H    0.495810
    14  H    0.545635
 Sum of APT charges =  -0.00000
 APT charges with hydrogens summed into heavy atoms:
               1
     1  C   -0.054827
     4  C    0.354519
     5  O   -0.300575
     6  C   -0.114757
     9  C    0.179238
    11  C   -0.063599
 Electronic spatial extent (au):  <R**2>=            521.2105
 Charge=             -0.0000 electrons
 Dipole moment (field-independent basis, Debye):
    X=             -1.3148    Y=             -0.3026    Z=              1.2211  Tot=              1.8197
 Quadrupole moment (field-independent basis, Debye-Ang):
   XX=            -38.2560   YY=            -36.8493   ZZ=            -38.1733
   XY=              1.5934   XZ=              2.0782   YZ=             -1.3616
 Traceless Quadrupole moment (field-independent basis, Debye-Ang):
   XX=             -0.4965   YY=              0.9102   ZZ=             -0.4138
   XY=              1.5934   XZ=              2.0782   YZ=             -1.3616
 Octapole moment (field-independent basis, Debye-Ang**2):
  XXX=              0.3775  YYY=             -4.5865  ZZZ=              0.3166  XYY=              1.3704
  XXY=              2.4824  XXZ=              2.0655  XZZ=              1.3980  YZZ=             -3.1152
  YYZ=             -0.6022  XYZ=             -1.4089
 Hexadecapole moment (field-independent basis, Debye-Ang**3):
 XXXX=           -338.1189 YYYY=           -314.6762 ZZZZ=            -83.1402 XXXY=              4.9014
 XXXZ=              2.7363 YYYX=             -3.8413 YYYZ=            -12.1305 ZZZX=              0.7133
 ZZZY=              2.5772 XXYY=           -105.4481 XXZZ=            -66.2241 YYZZ=            -66.1059
 XXYZ=             -2.2134 YYXZ=              1.7595 ZZXY=              0.5973
 N-N= 2.362978443328D+02 E-N=-1.100830187531D+03  KE= 2.676714775116D+02
  Exact polarizability:   0.000   0.000   0.000   0.000   0.000   0.000
 Approx polarizability: 116.883 -59.281 310.501   6.557 -24.362  78.877
 No NMR shielding tensors so no spin-rotation constants.
 Leave Link  601 at Tue Oct 15 10:42:35 2019, MaxMem=   280000000 cpu:               4.4 elap:               0.2
 (Enter /home/soft/g16/l701.exe)
 ... and contract with generalized density number  0.
 Compute integral second derivatives.
 Leave Link  701 at Tue Oct 15 10:42:35 2019, MaxMem=   280000000 cpu:               3.3 elap:               0.2
 (Enter /home/soft/g16/l702.exe)
 L702 exits ... SP integral derivatives will be done elsewhere.
 Leave Link  702 at Tue Oct 15 10:42:36 2019, MaxMem=   280000000 cpu:               0.7 elap:               0.1
 (Enter /home/soft/g16/l703.exe)
 Integral derivatives from FoFJK, PRISM(SPDF).
 Compute integral second derivatives, UseDBF=F ICtDFT=           0.
 Calling FoFJK, ICntrl=    100147 FMM=F ISym2X=0 I1Cent= 0 IOpClX= 0 NMat=1 NMatS=1 NMatT=0.
 FoFJK:  IHMeth= 1 ICntrl=  100147 DoSepK=F KAlg= 0 I1Cent=           0 FoldK=F
 IRaf=         0 NMat=       1 IRICut=       1 DoRegI=T DoRafI=F ISym2E= 0 IDoP0=0 IntGTp=1.
 FoFCou: FMM=F IPFlag=           0 FMFlag=      100000 FMFlg1=         800
         NFxFlg=           0 DoJE=F BraDBF=F KetDBF=F FulRan=T
         wScrn=  0.000000 ICntrl=    100147 IOpCl=  0 I1Cent=           0 NGrid=           0
         NMat0=    1 NMatS0=      1 NMatT0=    0 NMatD0=    1 NMtDS0=    0 NMtDT0=    0
 Symmetry not used in FoFCou.
 Leave Link  703 at Tue Oct 15 10:42:43 2019, MaxMem=   280000000 cpu:             185.3 elap:               7.8
 (Enter /home/soft/g16/l716.exe)
 Dipole        =-5.17291784D-01-1.19045272D-01 4.80409314D-01
 Polarizability= 0.00000000D+00 0.00000000D+00 0.00000000D+00
                 0.00000000D+00 0.00000000D+00 0.00000000D+00
 ***** Axes restored to original set *****
 -------------------------------------------------------------------
 Center     Atomic                   Forces (Hartrees/Bohr)
 Number     Number              X              Y              Z
 -------------------------------------------------------------------
      1        6          -0.003812426   -0.001796762   -0.021036240
      2        1           0.004760921    0.012752987    0.009393379
      3        1          -0.006644150   -0.001587791   -0.000884224
      4        6           0.000575479   -0.010637103    0.041702732
      5        8           0.039078619   -0.019162455   -0.044626947
      6        6          -0.003088177    0.033605368    0.066205373
      7        1           0.019029998    0.001973421    0.004285483
      8        1          -0.006403271    0.005785859   -0.006625956
      9        6          -0.021442631    0.010541310   -0.035077507
     10        1          -0.019959313   -0.006536571    0.007057387
     11        6           0.013170770   -0.019459460   -0.005652744
     12        1           0.000169344   -0.017390928   -0.007145901
     13        1          -0.003842033    0.009005924    0.007160530
     14        1          -0.011593130    0.002906201   -0.014755364
 -------------------------------------------------------------------
 Cartesian Forces:  Max     0.066205373 RMS     0.019689342
 FormGI is forming the generalized inverse of G from B-inverse, IUseBI=4.
 Leave Link  716 at Tue Oct 15 10:42:43 2019, MaxMem=   280000000 cpu:               0.9 elap:               0.1
 (Enter /home/soft/g16/l103.exe)

 GradGradGradGradGradGradGradGradGradGradGradGradGradGradGradGradGradGrad
 Berny optimization.
 Red2BG is reusing G-inverse.
 Internal  Forces:  Max     0.044779818 RMS     0.011728647
 Search for a saddle point.
 Step number   1 out of a maximum of   81
 All quantities printed in internal units (Hartrees-Bohrs-Radians)
 Swapping is turned off.
 Second derivative matrix not updated -- analytic derivatives used.
 ITU=  0
     Eigenvalues ---   -0.00572   0.00145   0.00361   0.01009   0.01818
     Eigenvalues ---    0.02239   0.03175   0.03573   0.04572   0.04779
     Eigenvalues ---    0.05293   0.05666   0.06590   0.06761   0.07375
     Eigenvalues ---    0.08121   0.09437   0.10981   0.11921   0.13938
     Eigenvalues ---    0.14677   0.16275   0.17760   0.19880   0.24044
     Eigenvalues ---    0.29588   0.30252   0.31020   0.31843   0.32256
     Eigenvalues ---    0.32972   0.33231   0.34177   0.35522   0.39707
     Eigenvalues ---    0.41566
 Eigenvectors required to have negative eigenvalues:
                          D17       D2        D6        D4        D23
   1                   -0.41245   0.38085   0.34466   0.26931  -0.24813
                          D31       D21       D30       D25       D16
   1                    0.24568  -0.22350   0.19338  -0.19022  -0.17244
 RFO step:  Lambda0=5.615107520D-03 Lambda=-5.80133826D-02.
 Linear search not attempted -- option 19 set.
 Maximum step size (   0.300) exceeded in Quadratic search.
    -- Step size scaled by   0.537
 Iteration  1 RMS(Cart)=  0.05932043 RMS(Int)=  0.00374145
 Iteration  2 RMS(Cart)=  0.00349433 RMS(Int)=  0.00171366
 Iteration  3 RMS(Cart)=  0.00001163 RMS(Int)=  0.00171363
 Iteration  4 RMS(Cart)=  0.00000001 RMS(Int)=  0.00171363
 ITry= 1 IFail=0 DXMaxC= 2.56D-01 DCOld= 1.00D+10 DXMaxT= 3.00D-01 DXLimC= 3.00D+00 Rises=F
 Variable       Old X    -DE/DX   Delta X   Delta X   Delta X     New X
                                 (Linear)    (Quad)   (Total)
    R1        2.07063  -0.00010   0.00000   0.00218   0.00218   2.07282
    R2        2.08441  -0.00382   0.00000  -0.00460  -0.00460   2.07981
    R3        2.77707  -0.01315   0.00000   0.01620   0.01669   2.79376
    R4        3.13680  -0.00408   0.00000  -0.08907  -0.08904   3.04775
    R5        2.59934  -0.02866   0.00000  -0.09308  -0.09511   2.50423
    R6        2.02201   0.01404   0.00000   0.01913   0.01913   2.04114
    R7        2.87530   0.02133   0.00000   0.10490   0.10541   2.98071
    R8        2.08958  -0.01055   0.00000  -0.01823  -0.01823   2.07135
    R9        2.07580   0.00151   0.00000  -0.00182  -0.00182   2.07398
   R10        2.91851  -0.04478   0.00000  -0.13559  -0.13631   2.78220
   R11        2.05879  -0.00205   0.00000  -0.00457  -0.00457   2.05422
   R12        2.70949   0.02573   0.00000   0.04799   0.04949   2.75898
   R13        2.09147  -0.00365   0.00000  -0.00436  -0.00436   2.08711
   R14        2.07581   0.00120   0.00000   0.00130   0.00130   2.07711
    A1        1.85634   0.00232   0.00000  -0.00805  -0.00826   1.84808
    A2        1.89389   0.00881   0.00000  -0.00074   0.00131   1.89520
    A3        1.95401  -0.01240   0.00000  -0.03259  -0.03286   1.92116
    A4        1.96814  -0.00170   0.00000  -0.02338  -0.02455   1.94359
    A5        1.87563   0.00616   0.00000   0.03270   0.03470   1.91033
    A6        1.91609  -0.00350   0.00000   0.02959   0.02701   1.94310
    A7        2.05361   0.00003   0.00000   0.03035   0.02659   2.08020
    A8        2.11085   0.01022   0.00000   0.00761   0.00884   2.11969
    A9        2.11871  -0.01022   0.00000  -0.03827  -0.03685   2.08186
   A10        1.78307   0.02516   0.00000   0.08748   0.08222   1.86529
   A11        1.79003   0.00348   0.00000  -0.05215  -0.05142   1.73861
   A12        1.78418   0.01423   0.00000   0.02902   0.02558   1.80976
   A13        1.86322  -0.00385   0.00000   0.04248   0.03719   1.90042
   A14        1.84829   0.00082   0.00000   0.00529   0.00637   1.85465
   A15        2.32899  -0.01944   0.00000  -0.06926  -0.07020   2.25880
   A16        1.78503   0.01367   0.00000   0.06951   0.07063   1.85566
   A17        2.20631  -0.02151   0.00000  -0.06343  -0.06205   2.14426
   A18        2.07018   0.00088   0.00000   0.01543   0.01399   2.08417
   A19        1.98036   0.02168   0.00000   0.04534   0.04542   2.02578
   A20        1.87575   0.00521   0.00000   0.02978   0.02923   1.90497
   A21        1.92712  -0.01213   0.00000  -0.01775  -0.01930   1.90782
   A22        1.81821   0.00333   0.00000   0.02347   0.02571   1.84392
   A23        1.95554   0.00769   0.00000   0.01157   0.01284   1.96838
   A24        2.04521  -0.00850   0.00000  -0.04329  -0.04461   2.00060
   A25        1.83662   0.00301   0.00000  -0.00427  -0.00443   1.83219
    D1        1.14015  -0.00535   0.00000   0.05483   0.05586   1.19601
    D2       -1.99482  -0.01245   0.00000   0.10688   0.10727  -1.88755
    D3       -3.09125   0.00223   0.00000   0.03043   0.03228  -3.05898
    D4        0.05696  -0.00488   0.00000   0.08248   0.08369   0.14066
    D5       -1.00047   0.00650   0.00000   0.07695   0.07874  -0.92173
    D6        2.14775  -0.00061   0.00000   0.12900   0.13015   2.27790
    D7       -1.45990   0.00120   0.00000  -0.01550  -0.01459  -1.47449
    D8        2.68561  -0.00420   0.00000  -0.03800  -0.03722   2.64839
    D9        0.72162  -0.00416   0.00000  -0.03742  -0.03656   0.68507
   D10        2.79106   0.00149   0.00000  -0.00760  -0.00673   2.78433
   D11        0.65338  -0.00390   0.00000  -0.03011  -0.02935   0.62403
   D12       -1.31060  -0.00386   0.00000  -0.02952  -0.02869  -1.33930
   D13        0.64471   0.00181   0.00000  -0.01767  -0.01668   0.62803
   D14       -1.49297  -0.00359   0.00000  -0.04017  -0.03930  -1.53227
   D15        2.82623  -0.00355   0.00000  -0.03959  -0.03864   2.78759
   D16        1.25151  -0.01146   0.00000  -0.16081  -0.16006   1.09145
   D17       -1.89674  -0.00424   0.00000  -0.21292  -0.21017  -2.10691
   D18        1.35448  -0.01327   0.00000   0.02732   0.02973   1.38421
   D19       -3.01582  -0.00684   0.00000   0.02595   0.02779  -2.98803
   D20       -1.14828   0.01227   0.00000   0.12644   0.13064  -1.01764
   D21       -2.35655  -0.01442   0.00000  -0.12900  -0.12788  -2.48444
   D22        1.04650  -0.02298   0.00000  -0.12354  -0.12281   0.92369
   D23        1.71493   0.00594   0.00000  -0.02246  -0.02183   1.69310
   D24       -1.16520  -0.00262   0.00000  -0.01700  -0.01675  -1.18195
   D25       -0.48961   0.00509   0.00000  -0.05726  -0.05486  -0.54446
   D26        2.91344  -0.00347   0.00000  -0.05179  -0.04978   2.86366
   D27       -0.75186  -0.00372   0.00000   0.01673   0.01886  -0.73300
   D28        1.36813  -0.01058   0.00000   0.02169   0.02292   1.39105
   D29       -2.78972  -0.00661   0.00000  -0.00869  -0.00706  -2.79678
   D30        2.61850  -0.00528   0.00000   0.03696   0.03897   2.65747
   D31       -1.54469  -0.01214   0.00000   0.04192   0.04302  -1.50167
   D32        0.58064  -0.00817   0.00000   0.01154   0.01304   0.59368
         Item               Value     Threshold  Converged?
 Maximum Force            0.044780     0.000450     NO 
 RMS     Force            0.011729     0.000300     NO 
 Maximum Displacement     0.256130     0.001800     NO 
 RMS     Displacement     0.059291     0.001200     NO 
 Predicted change in Energy=-2.390171D-02
 Lowest energy point so far.  Saving SCF results.
 GradGradGradGradGradGradGradGradGradGradGradGradGradGradGradGradGradGrad

 Leave Link  103 at Tue Oct 15 10:42:43 2019, MaxMem=   280000000 cpu:               1.6 elap:               0.1
 (Enter /home/soft/g16/l202.exe)
                          Input orientation:                          
 ---------------------------------------------------------------------
 Center     Atomic      Atomic             Coordinates (Angstroms)
 Number     Number       Type             X           Y           Z
 ---------------------------------------------------------------------
      1          6           0        1.135015   -0.860959   -0.291269
      2          1           0        1.270052   -1.523064    0.572760
      3          1           0        1.915652   -1.144839   -1.013284
      4          6           0       -0.217471   -1.080591   -0.846418
      5          8           0       -1.274336   -0.701449   -0.142576
      6          6           0       -1.176334    0.864070    0.023255
      7          1           0       -1.545716    1.175861   -0.960515
      8          1           0       -1.973544    1.099811    0.739770
      9          6           0        0.092677    1.193839    0.692935
     10          1           0        0.183040    1.992163    1.425179
     11          6           0        1.345336    0.675779    0.150698
     12          1           0        1.710128    1.257869   -0.714119
     13          1           0        2.183576    0.667756    0.861640
     14          1           0       -0.364509   -1.590198   -1.787348
 ---------------------------------------------------------------------
                    Distance matrix (angstroms):
                    1          2          3          4          5
     1  C    0.000000
     2  H    1.096889   0.000000
     3  H    1.100586   1.753679   0.000000
     4  C    1.478393   2.102992   2.140604   0.000000
     5  O    2.419199   2.767791   3.336278   1.325181   0.000000
     6  C    2.901203   3.461960   3.830209   2.336119   1.577325
     7  H    3.432615   4.190904   4.167673   2.620844   2.065663
     8  H    3.817171   4.174719   4.820529   3.217753   2.124139
     9  C    2.505457   2.963480   3.421087   2.763843   2.481717
    10  H    3.463055   3.776908   4.334608   3.842184   3.440544
    11  C    1.612802   2.240249   2.234897   2.553711   2.974130
    12  H    2.235842   3.095693   2.429968   3.033404   3.615607
    13  H    2.183037   2.391166   2.621569   3.426253   3.852315
    14  H    2.240227   2.871656   2.448806   1.080125   2.079167
                    6          7          8          9         10
     6  C    0.000000
     7  H    1.096112   0.000000
     8  H    1.097503   1.754933   0.000000
     9  C    1.472279   2.327778   2.068889   0.000000
    10  H    2.255190   3.057202   2.432475   1.087046   0.000000
    11  C    2.531899   3.137365   3.397319   1.459987   2.169816
    12  H    3.005073   3.266185   3.963360   2.144773   2.729062
    13  H    3.468490   4.181632   4.181288   2.162657   2.464503
    14  H    3.156069   3.119293   4.026347   3.756552   4.842876
                   11         12         13         14
    11  C    0.000000
    12  H    1.104451   0.000000
    13  H    1.099159   1.747971   0.000000
    14  H    3.437186   3.683399   4.313726   0.000000
 Stoichiometry    C5H8O
 Framework group  C1[X(C5H8O)]
 Deg. of freedom    36
 Full point group                 C1      NOp   1
 RotChk:  IX=0 Diff= 9.61D-02
 Largest Abelian subgroup         C1      NOp   1
 Largest concise Abelian subgroup C1      NOp   1
                         Standard orientation:                         
 ---------------------------------------------------------------------
 Center     Atomic      Atomic             Coordinates (Angstroms)
 Number     Number       Type             X           Y           Z
 ---------------------------------------------------------------------
      1          6           0       -1.075347   -0.961667   -0.146313
      2          1           0       -1.247601   -1.184659   -1.206392
      3          1           0       -1.789109   -1.585663    0.412668
      4          6           0        0.321834   -1.310899    0.187706
      5          8           0        1.308484   -0.590893   -0.326314
      6          6           0        1.137529    0.877907    0.222644
      7          1           0        1.565792    0.750283    1.223525
      8          1           0        1.870091    1.457478   -0.353519
      9          6           0       -0.189185    1.381730   -0.169271
     10          1           0       -0.364230    2.412353   -0.467340
     11          6           0       -1.377410    0.594997    0.148115
     12          1           0       -1.700070    0.712226    1.197858
     13          1           0       -2.264700    0.843363   -0.451202
     14          1           0        0.557432   -2.170643    0.797628
 ---------------------------------------------------------------------
 Rotational constants (GHZ):           5.0250441           4.5652190           2.6233186
 Leave Link  202 at Tue Oct 15 10:42:43 2019, MaxMem=   280000000 cpu:               0.3 elap:               0.0
 (Enter /home/soft/g16/l301.exe)
 Standard basis: 6-31+G(d) (6D, 7F)
 Ernie: Thresh=  0.10000D-02 Tol=  0.10000D-05 Strict=F.
 There are   130 symmetry adapted cartesian basis functions of A   symmetry.
 There are   130 symmetry adapted basis functions of A   symmetry.
   130 basis functions,   224 primitive gaussians,   130 cartesian basis functions
    23 alpha electrons       23 beta electrons
       nuclear repulsion energy       236.8498664345 Hartrees.
 IExCor=  402 DFT=T Ex+Corr=B3LYP ExCW=0 ScaHFX=  0.200000
 ScaDFX=  0.800000  0.720000  1.000000  0.810000 ScalE2=  1.000000  1.000000
 IRadAn=      5 IRanWt=     -1 IRanGd=            0 ICorTp=0 IEmpDi=  4
 NAtoms=   14 NActive=   14 NUniq=   14 SFac= 1.00D+00 NAtFMM=   60 NAOKFM=F Big=F
 Integral buffers will be    131072 words long.
 Raffenetti 2 integral format.
 Two-electron integral symmetry is turned on.
 Leave Link  301 at Tue Oct 15 10:42:44 2019, MaxMem=   280000000 cpu:               1.2 elap:               0.1
 (Enter /home/soft/g16/l302.exe)
 NPDir=0 NMtPBC=     1 NCelOv=     1 NCel=       1 NClECP=     1 NCelD=      1
         NCelK=      1 NCelE2=     1 NClLst=     1 CellRange=     0.0.
 One-electron integrals computed using PRISM.
 One-electron integral symmetry used in STVInt
 NBasis=   130 RedAO= T EigKep=  6.35D-05  NBF=   130
 NBsUse=   130 1.00D-06 EigRej= -1.00D+00 NBFU=   130
 Precomputing XC quadrature grid using
 IXCGrd= 4 IRadAn=           5 IRanWt=          -1 IRanGd=           0 AccXCQ= 0.00D+00.
 Generated NRdTot=       0 NPtTot=           0 NUsed=           0 NTot=          32
 NSgBfM=   130   130   130   130   130 MxSgAt=    14 MxSgA2=    14.
 Leave Link  302 at Tue Oct 15 10:42:44 2019, MaxMem=   280000000 cpu:               2.8 elap:               0.1
 (Enter /home/soft/g16/l303.exe)
 DipDrv:  MaxL=1.
 Leave Link  303 at Tue Oct 15 10:42:44 2019, MaxMem=   280000000 cpu:               1.3 elap:               0.1
 (Enter /home/soft/g16/l401.exe)
 Initial guess from the checkpoint file:  "tsb.chk"
 B after Tr=     0.000000   -0.000000   -0.000000
         Rot=    0.999421   -0.000399    0.001383    0.033994 Ang=  -3.90 deg.
 Guess basis will be translated and rotated to current coordinates.
 JPrj=2 DoOrth=T DoCkMO=T.
 Generating alternative initial guess.
 ExpMin= 4.38D-02 ExpMax= 5.48D+03 ExpMxC= 8.25D+02 IAcc=2 IRadAn=         4 AccDes= 0.00D+00
 Harris functional with IExCor=  402 and IRadAn=       4 diagonalized for initial guess.
 HarFok:  IExCor=  402 AccDes= 0.00D+00 IRadAn=         4 IDoV= 1 UseB2=F ITyADJ=14
 ICtDFT=  3500011 ScaDFX=  1.000000  1.000000  1.000000  1.000000
 FoFCou: FMM=F IPFlag=           0 FMFlag=      100000 FMFlg1=           0
         NFxFlg=           0 DoJE=T BraDBF=F KetDBF=T FulRan=T
         wScrn=  0.000000 ICntrl=       500 IOpCl=  0 I1Cent=   200000004 NGrid=           0
         NMat0=    1 NMatS0=      1 NMatT0=    0 NMatD0=    1 NMtDS0=    0 NMtDT0=    0
 Petite list used in FoFCou.
 Harris En= -270.454160134292    
 Leave Link  401 at Tue Oct 15 10:42:44 2019, MaxMem=   280000000 cpu:               6.3 elap:               0.3
 (Enter /home/soft/g16/l502.exe)
 Integral symmetry usage will be decided dynamically.
 Closed shell SCF:
 Using DIIS extrapolation, IDIIS=  1040.
 NGot=   280000000 LenX=   279961518 LenY=   279944177
 Requested convergence on RMS density matrix=1.00D-08 within 128 cycles.
 Requested convergence on MAX density matrix=1.00D-06.
 Requested convergence on             energy=1.00D-06.
 No special actions if energy rises.
 Fock matrices will be formed incrementally for  20 cycles.

 Cycle   1  Pass 1  IDiag  1:
 FoFJK:  IHMeth= 1 ICntrl=       0 DoSepK=F KAlg= 0 I1Cent=           0 FoldK=F
 IRaf= 990000000 NMat=       1 IRICut=       1 DoRegI=T DoRafI=F ISym2E= 0 IDoP0=0 IntGTp=1.
 FoFCou: FMM=F IPFlag=           0 FMFlag=      100000 FMFlg1=           0
         NFxFlg=           0 DoJE=F BraDBF=F KetDBF=F FulRan=T
         wScrn=  0.000000 ICntrl=         0 IOpCl=  0 I1Cent=           0 NGrid=           0
         NMat0=    1 NMatS0=      1 NMatT0=    0 NMatD0=    1 NMtDS0=    0 NMtDT0=    0
 Symmetry not used in FoFCou.
 E= -270.405530344586    
 DIIS: error= 3.43D-03 at cycle   1 NSaved=   1.
 NSaved= 1 IEnMin= 1 EnMin= -270.405530344586     IErMin= 1 ErrMin= 3.43D-03
 ErrMax= 3.43D-03  0.00D+00 EMaxC= 1.00D-01 BMatC= 6.13D-03 BMatP= 6.13D-03
 IDIUse=3 WtCom= 9.66D-01 WtEn= 3.43D-02
 Coeff-Com:  0.100D+01
 Coeff-En:   0.100D+01
 Coeff:      0.100D+01
 Gap=     0.476 Goal=   None    Shift=    0.000
 GapD=    0.476 DampG=2.000 DampE=1.000 DampFc=2.0000 IDamp=-1.
 RMSDP=2.42D-03 MaxDP=5.12D-02              OVMax= 1.00D-01

 Cycle   2  Pass 1  IDiag  1:
 RMSU=  2.41D-03    CP:  9.92D-01
 E= -270.417448250279     Delta-E=       -0.011917905693 Rises=F Damp=F
 DIIS: error= 2.76D-03 at cycle   2 NSaved=   2.
 NSaved= 2 IEnMin= 2 EnMin= -270.417448250279     IErMin= 2 ErrMin= 2.76D-03
 ErrMax= 2.76D-03  0.00D+00 EMaxC= 1.00D-01 BMatC= 2.57D-03 BMatP= 6.13D-03
 IDIUse=3 WtCom= 9.72D-01 WtEn= 2.76D-02
 Coeff-Com:  0.283D+00 0.717D+00
 Coeff-En:   0.000D+00 0.100D+01
 Coeff:      0.275D+00 0.725D+00
 Gap=     0.061 Goal=   None    Shift=    0.000
 RMSDP=3.68D-03 MaxDP=1.17D-01 DE=-1.19D-02 OVMax= 2.16D-01

 Cycle   3  Pass 1  IDiag  1:
 RMSU=  3.02D-03    CP:  1.01D+00  1.44D-01
 E= -270.384694816808     Delta-E=        0.032753433471 Rises=F Damp=F
 DIIS: error= 9.62D-03 at cycle   3 NSaved=   3.
 NSaved= 3 IEnMin= 2 EnMin= -270.417448250279     IErMin= 2 ErrMin= 2.76D-03
 ErrMax= 9.62D-03  0.00D+00 EMaxC= 1.00D-01 BMatC= 2.72D-02 BMatP= 2.57D-03
 IDIUse=3 WtCom= 9.25D-02 WtEn= 9.07D-01
 Coeff-Com: -0.142D-01 0.783D+00 0.232D+00
 Coeff-En:   0.000D+00 0.832D+00 0.168D+00
 Coeff:     -0.132D-02 0.828D+00 0.174D+00
 Gap=     0.066 Goal=   None    Shift=    0.000
 RMSDP=2.03D-03 MaxDP=5.83D-02 DE= 3.28D-02 OVMax= 1.29D-01

 Cycle   4  Pass 1  IDiag  1:
 RMSU=  4.90D-04    CP:  1.00D+00  6.19D-01  4.71D-01
 E= -270.417849724927     Delta-E=       -0.033154908119 Rises=F Damp=F
 DIIS: error= 2.60D-03 at cycle   4 NSaved=   4.
 NSaved= 4 IEnMin= 4 EnMin= -270.417849724927     IErMin= 4 ErrMin= 2.60D-03
 ErrMax= 2.60D-03  0.00D+00 EMaxC= 1.00D-01 BMatC= 2.21D-03 BMatP= 2.57D-03
 IDIUse=3 WtCom= 9.74D-01 WtEn= 2.60D-02
 Coeff-Com: -0.258D-01 0.378D+00-0.997D-01 0.748D+00
 Coeff-En:   0.000D+00 0.479D+00 0.000D+00 0.521D+00
 Coeff:     -0.251D-01 0.380D+00-0.971D-01 0.742D+00
 Gap=     0.071 Goal=   None    Shift=    0.000
 RMSDP=9.13D-04 MaxDP=3.05D-02 DE=-3.32D-02 OVMax= 5.20D-02

 Cycle   5  Pass 1  IDiag  1:
 RMSU=  1.42D-04    CP:  9.97D-01  8.59D-01  2.45D-01  9.37D-01
 E= -270.420707084892     Delta-E=       -0.002857359965 Rises=F Damp=F
 DIIS: error= 4.68D-04 at cycle   5 NSaved=   5.
 NSaved= 5 IEnMin= 5 EnMin= -270.420707084892     IErMin= 5 ErrMin= 4.68D-04
 ErrMax= 4.68D-04  0.00D+00 EMaxC= 1.00D-01 BMatC= 4.87D-05 BMatP= 2.21D-03
 IDIUse=3 WtCom= 9.95D-01 WtEn= 4.68D-03
 Coeff-Com: -0.134D-01 0.145D+00-0.871D-01 0.488D+00 0.468D+00
 Coeff-En:   0.000D+00 0.000D+00 0.000D+00 0.000D+00 0.100D+01
 Coeff:     -0.134D-01 0.144D+00-0.867D-01 0.485D+00 0.470D+00
 Gap=     0.071 Goal=   None    Shift=    0.000
 RMSDP=7.57D-05 MaxDP=2.21D-03 DE=-2.86D-03 OVMax= 1.68D-03

 Cycle   6  Pass 1  IDiag  1:
 RMSU=  7.39D-05    CP:  9.97D-01  8.61D-01  2.45D-01  9.54D-01  9.32D-01
 E= -270.420743189872     Delta-E=       -0.000036104981 Rises=F Damp=F
 DIIS: error= 1.08D-04 at cycle   6 NSaved=   6.
 NSaved= 6 IEnMin= 6 EnMin= -270.420743189872     IErMin= 6 ErrMin= 1.08D-04
 ErrMax= 1.08D-04  0.00D+00 EMaxC= 1.00D-01 BMatC= 4.38D-06 BMatP= 4.87D-05
 IDIUse=3 WtCom= 9.99D-01 WtEn= 1.08D-03
 Coeff-Com: -0.217D-02 0.696D-02-0.188D-01 0.111D+00 0.199D+00 0.705D+00
 Coeff-En:   0.000D+00 0.000D+00 0.000D+00 0.000D+00 0.000D+00 0.100D+01
 Coeff:     -0.216D-02 0.695D-02-0.187D-01 0.110D+00 0.198D+00 0.705D+00
 Gap=     0.071 Goal=   None    Shift=    0.000
 RMSDP=2.78D-05 MaxDP=5.23D-04 DE=-3.61D-05 OVMax= 1.03D-03

 Cycle   7  Pass 1  IDiag  1:
 RMSU=  2.43D-05    CP:  9.97D-01  8.63D-01  2.48D-01  9.57D-01  9.64D-01
                    CP:  9.35D-01
 E= -270.420746761064     Delta-E=       -0.000003571191 Rises=F Damp=F
 DIIS: error= 6.17D-05 at cycle   7 NSaved=   7.
 NSaved= 7 IEnMin= 7 EnMin= -270.420746761064     IErMin= 7 ErrMin= 6.17D-05
 ErrMax= 6.17D-05  0.00D+00 EMaxC= 1.00D-01 BMatC= 1.45D-06 BMatP= 4.38D-06
 IDIUse=1 WtCom= 1.00D+00 WtEn= 0.00D+00
 Coeff-Com:  0.843D-03-0.213D-01 0.695D-02-0.178D-01 0.317D-01 0.386D+00
 Coeff-Com:  0.614D+00
 Coeff:      0.843D-03-0.213D-01 0.695D-02-0.178D-01 0.317D-01 0.386D+00
 Coeff:      0.614D+00
 Gap=     0.071 Goal=   None    Shift=    0.000
 RMSDP=1.43D-05 MaxDP=2.04D-04 DE=-3.57D-06 OVMax= 5.08D-04

 Cycle   8  Pass 1  IDiag  1:
 RMSU=  6.79D-06    CP:  9.97D-01  8.62D-01  2.51D-01  9.66D-01  1.01D+00
                    CP:  1.02D+00  9.16D-01
 E= -270.420748331828     Delta-E=       -0.000001570765 Rises=F Damp=F
 DIIS: error= 2.18D-05 at cycle   8 NSaved=   8.
 NSaved= 8 IEnMin= 8 EnMin= -270.420748331828     IErMin= 8 ErrMin= 2.18D-05
 ErrMax= 2.18D-05  0.00D+00 EMaxC= 1.00D-01 BMatC= 1.71D-07 BMatP= 1.45D-06
 IDIUse=1 WtCom= 1.00D+00 WtEn= 0.00D+00
 Coeff-Com:  0.273D-03-0.590D-02 0.350D-02-0.882D-02-0.638D-02 0.620D-02
 Coeff-Com:  0.832D-01 0.928D+00
 Coeff:      0.273D-03-0.590D-02 0.350D-02-0.882D-02-0.638D-02 0.620D-02
 Coeff:      0.832D-01 0.928D+00
 Gap=     0.071 Goal=   None    Shift=    0.000
 RMSDP=5.50D-06 MaxDP=8.58D-05 DE=-1.57D-06 OVMax= 3.05D-04

 Cycle   9  Pass 1  IDiag  1:
 RMSU=  3.43D-06    CP:  9.97D-01  8.61D-01  2.52D-01  9.67D-01  1.01D+00
                    CP:  1.04D+00  9.29D-01  1.06D+00
 E= -270.420748549529     Delta-E=       -0.000000217701 Rises=F Damp=F
 DIIS: error= 3.13D-06 at cycle   9 NSaved=   9.
 NSaved= 9 IEnMin= 9 EnMin= -270.420748549529     IErMin= 9 ErrMin= 3.13D-06
 ErrMax= 3.13D-06  0.00D+00 EMaxC= 1.00D-01 BMatC= 3.50D-09 BMatP= 1.71D-07
 IDIUse=1 WtCom= 1.00D+00 WtEn= 0.00D+00
 Coeff-Com:  0.208D-04-0.146D-03 0.435D-03 0.204D-03-0.346D-02-0.306D-01
 Coeff-Com: -0.235D-01 0.356D+00 0.701D+00
 Coeff:      0.208D-04-0.146D-03 0.435D-03 0.204D-03-0.346D-02-0.306D-01
 Coeff:     -0.235D-01 0.356D+00 0.701D+00
 Gap=     0.071 Goal=   None    Shift=    0.000
 RMSDP=1.68D-06 MaxDP=3.54D-05 DE=-2.18D-07 OVMax= 3.18D-05

 Cycle  10  Pass 1  IDiag  1:
 RMSU=  5.14D-07    CP:  9.97D-01  8.61D-01  2.52D-01  9.67D-01  1.01D+00
                    CP:  1.04D+00  9.61D-01  1.13D+00  7.72D-01
 E= -270.420748553044     Delta-E=       -0.000000003514 Rises=F Damp=F
 DIIS: error= 9.08D-07 at cycle  10 NSaved=  10.
 NSaved=10 IEnMin=10 EnMin= -270.420748553044     IErMin=10 ErrMin= 9.08D-07
 ErrMax= 9.08D-07  0.00D+00 EMaxC= 1.00D-01 BMatC= 3.23D-10 BMatP= 3.50D-09
 IDIUse=1 WtCom= 1.00D+00 WtEn= 0.00D+00
 Coeff-Com: -0.733D-05 0.359D-03-0.128D-03 0.103D-02-0.824D-03-0.139D-01
 Coeff-Com: -0.163D-01 0.900D-01 0.344D+00 0.596D+00
 Coeff:     -0.733D-05 0.359D-03-0.128D-03 0.103D-02-0.824D-03-0.139D-01
 Coeff:     -0.163D-01 0.900D-01 0.344D+00 0.596D+00
 Gap=     0.071 Goal=   None    Shift=    0.000
 RMSDP=3.12D-07 MaxDP=1.03D-05 DE=-3.51D-09 OVMax= 7.73D-06

 Cycle  11  Pass 1  IDiag  1:
 RMSU=  1.57D-07    CP:  9.97D-01  8.61D-01  2.52D-01  9.67D-01  1.01D+00
                    CP:  1.04D+00  9.59D-01  1.13D+00  8.07D-01  8.20D-01
 E= -270.420748553356     Delta-E=       -0.000000000312 Rises=F Damp=F
 DIIS: error= 1.91D-07 at cycle  11 NSaved=  11.
 NSaved=11 IEnMin=11 EnMin= -270.420748553356     IErMin=11 ErrMin= 1.91D-07
 ErrMax= 1.91D-07  0.00D+00 EMaxC= 1.00D-01 BMatC= 1.41D-11 BMatP= 3.23D-10
 IDIUse=1 WtCom= 1.00D+00 WtEn= 0.00D+00
 Coeff-Com: -0.396D-05 0.132D-03-0.613D-04 0.332D-03-0.888D-04-0.296D-02
 Coeff-Com: -0.449D-02 0.993D-02 0.733D-01 0.209D+00 0.715D+00
 Coeff:     -0.396D-05 0.132D-03-0.613D-04 0.332D-03-0.888D-04-0.296D-02
 Coeff:     -0.449D-02 0.993D-02 0.733D-01 0.209D+00 0.715D+00
 Gap=     0.071 Goal=   None    Shift=    0.000
 RMSDP=1.41D-07 MaxDP=3.59D-06 DE=-3.12D-10 OVMax= 1.37D-06

 Cycle  12  Pass 1  IDiag  1:
 RMSU=  6.76D-08    CP:  9.97D-01  8.61D-01  2.52D-01  9.66D-01  1.01D+00
                    CP:  1.04D+00  9.58D-01  1.13D+00  8.33D-01  8.28D-01
                    CP:  8.20D-01
 E= -270.420748553373     Delta-E=       -0.000000000017 Rises=F Damp=F
 DIIS: error= 7.58D-08 at cycle  12 NSaved=  12.
 NSaved=12 IEnMin=12 EnMin= -270.420748553373     IErMin=12 ErrMin= 7.58D-08
 ErrMax= 7.58D-08  0.00D+00 EMaxC= 1.00D-01 BMatC= 2.03D-12 BMatP= 1.41D-11
 IDIUse=1 WtCom= 1.00D+00 WtEn= 0.00D+00
 Coeff-Com: -0.177D-05 0.283D-04-0.111D-04 0.457D-04 0.598D-04 0.208D-05
 Coeff-Com: -0.531D-03-0.461D-02-0.465D-02 0.244D-01 0.242D+00 0.743D+00
 Coeff:     -0.177D-05 0.283D-04-0.111D-04 0.457D-04 0.598D-04 0.208D-05
 Coeff:     -0.531D-03-0.461D-02-0.465D-02 0.244D-01 0.242D+00 0.743D+00
 Gap=     0.071 Goal=   None    Shift=    0.000
 RMSDP=2.69D-08 MaxDP=5.28D-07 DE=-1.72D-11 OVMax= 6.11D-07

 Cycle  13  Pass 1  IDiag  1:
 RMSU=  1.26D-08    CP:  9.97D-01  8.61D-01  2.52D-01  9.66D-01  1.01D+00
                    CP:  1.04D+00  9.58D-01  1.13D+00  8.34D-01  8.45D-01
                    CP:  8.65D-01  8.82D-01
 E= -270.420748553380     Delta-E=       -0.000000000006 Rises=F Damp=F
 DIIS: error= 2.48D-08 at cycle  13 NSaved=  13.
 NSaved=13 IEnMin=13 EnMin= -270.420748553380     IErMin=13 ErrMin= 2.48D-08
 ErrMax= 2.48D-08  0.00D+00 EMaxC= 1.00D-01 BMatC= 2.79D-13 BMatP= 2.03D-12
 IDIUse=1 WtCom= 1.00D+00 WtEn= 0.00D+00
 Coeff-Com: -0.772D-06 0.645D-05-0.781D-06 0.125D-06 0.387D-04 0.194D-03
 Coeff-Com: -0.424D-05-0.323D-02-0.776D-02-0.238D-02 0.693D-01 0.371D+00
 Coeff-Com:  0.573D+00
 Coeff:     -0.772D-06 0.645D-05-0.781D-06 0.125D-06 0.387D-04 0.194D-03
 Coeff:     -0.424D-05-0.323D-02-0.776D-02-0.238D-02 0.693D-01 0.371D+00
 Coeff:      0.573D+00
 Gap=     0.071 Goal=   None    Shift=    0.000
 RMSDP=8.37D-09 MaxDP=1.82D-07 DE=-6.25D-12 OVMax= 1.82D-07

 SCF Done:  E(RB3LYP) =  -270.420748553     A.U. after   13 cycles
            NFock= 13  Conv=0.84D-08     -V/T= 2.0098
 KE= 2.677928235224D+02 PE=-1.102053063737D+03 EE= 3.269896252263D+02
 Leave Link  502 at Tue Oct 15 10:42:48 2019, MaxMem=   280000000 cpu:              95.0 elap:               4.0
 (Enter /home/soft/g16/l701.exe)
 ... and contract with generalized density number  0.
[...]
 ! D6    D(11,1,4,14)          143.7649         -DE/DX =    0.0                 !
 ! D7    D(2,1,11,9)           -89.1625         -DE/DX =    0.0                 !
 ! D8    D(2,1,11,12)          147.86           -DE/DX =    0.0                 !
 ! D9    D(2,1,11,13)           34.7689         -DE/DX =    0.0                 !
 ! D10   D(3,1,11,9)           154.9442         -DE/DX =    0.0                 !
 ! D11   D(3,1,11,12)           31.9667         -DE/DX =    0.0                 !
 ! D12   D(3,1,11,13)          -81.1244         -DE/DX =    0.0                 !
 ! D13   D(4,1,11,9)            32.7911         -DE/DX =    0.0                 !
 ! D14   D(4,1,11,12)          -90.1864         -DE/DX =    0.0                 !
 ! D15   D(4,1,11,13)          156.7225         -DE/DX =    0.0                 !
 ! D16   D(1,4,5,6)             32.3261         -DE/DX =    0.0                 !
 ! D17   D(14,4,5,6)          -161.4613         -DE/DX =    0.0                 !
 ! D18   D(4,5,6,7)            126.363          -DE/DX =    0.0                 !
 ! D19   D(4,5,6,8)           -123.4619         -DE/DX =    0.0                 !
 ! D20   D(4,5,6,9)              2.1802         -DE/DX =    0.0                 !
 ! D21   D(5,6,9,10)          -166.1549         -DE/DX =    0.0                 !
 ! D22   D(5,6,9,11)           -14.8008         -DE/DX =    0.0                 !
 ! D23   D(7,6,9,10)            75.5975         -DE/DX =    0.0                 !
 ! D24   D(7,6,9,11)          -133.0485         -DE/DX =    0.0                 !
 ! D25   D(8,6,9,10)           -44.2432         -DE/DX =    0.0                 !
 ! D26   D(8,6,9,11)           107.1109         -DE/DX =    0.0                 !
 ! D27   D(6,9,11,1)            -4.429          -DE/DX =    0.0                 !
 ! D28   D(6,9,11,12)          112.8045         -DE/DX =    0.0                 !
 ! D29   D(6,9,11,13)         -127.9217         -DE/DX =    0.0                 !
 ! D30   D(10,9,11,1)          145.6192         -DE/DX =    0.0                 !
 ! D31   D(10,9,11,12)         -97.1474         -DE/DX =    0.0                 !
 ! D32   D(10,9,11,13)          22.1265         -DE/DX =    0.0                 !
 --------------------------------------------------------------------------------
 GradGradGradGradGradGradGradGradGradGradGradGradGradGradGradGradGradGrad

 Leave Link  103 at Tue Oct 15 10:47:03 2019, MaxMem=   280000000 cpu:               1.1 elap:               0.1
 (Enter /home/soft/g16/l9999.exe)

 ----------------------------------------------------------------------

 Electric dipole moment (input orientation):
 (Debye = 10**-18 statcoulomb cm , SI units = C m)
                  (au)            (Debye)         (10**-30 SI)
   Tot        0.465878D+00      0.118414D+01      0.394988D+01
   x          0.115954D+00      0.294726D+00      0.983101D+00
   y         -0.399030D+00     -0.101423D+01     -0.338312D+01
   z          0.210648D+00      0.535413D+00      0.178595D+01

 Dipole polarizability, Alpha (input orientation).
 (esu units = cm**3 , SI units = C**2 m**2 J**-1)
 Alpha(0;0):
               (au)            (10**-24 esu)      (10**-40 SI)
   iso        0.787766D+02      0.116735D+02      0.129885D+02
   aniso      0.471262D+02      0.698338D+01      0.777006D+01
   xx         0.711058D+02      0.105368D+02      0.117238D+02
   yx        -0.107359D+01     -0.159089D+00     -0.177010D+00
   yy         0.991739D+02      0.146961D+02      0.163516D+02
   zx         0.268055D+01      0.397217D+00      0.441963D+00
   zy         0.203354D+02      0.301339D+01      0.335285D+01
   zz         0.660501D+02      0.978761D+01      0.108902D+02

 ----------------------------------------------------------------------

 Dipole orientation:
     6          1.89034135         -0.89739795          1.68263021
     1          1.20823626          0.11719814          3.37087601
     1          3.51123399         -2.02941055          2.29814159
     6         -0.04902044         -2.59497939          0.64931487
     8         -2.17461542         -1.77604197         -0.40798346
     6         -2.03212633          0.59176186         -1.73373525
     1         -2.79384044          0.07915551         -3.59552311
     1         -3.48107011          1.79962960         -0.83512361
     6          0.45594829          1.84764826         -1.87293578
     1          0.30257014          3.80492621         -2.49265770
     6          2.66573191          1.17855712         -0.29044960
     1          4.24594185          0.34266461         -1.34565250
     1          3.46968196          2.85663400          0.66445006
     1         -0.11021295         -4.60176424          1.07211720

 Electric dipole moment (dipole orientation):
 (Debye = 10**-18 statcoulomb cm , SI units = C m)
                  (au)            (Debye)         (10**-30 SI)
   Tot        0.465878D+00      0.118414D+01      0.394988D+01
   x          0.000000D+00      0.000000D+00      0.000000D+00
   y          0.000000D+00      0.000000D+00      0.000000D+00
   z          0.465878D+00      0.118414D+01      0.394988D+01

 Dipole polarizability, Alpha (dipole orientation).
 (esu units = cm**3 , SI units = C**2 m**2 J**-1)
 Alpha(0;0):
               (au)            (10**-24 esu)      (10**-40 SI)
   iso        0.787766D+02      0.116735D+02      0.129885D+02
   aniso      0.471262D+02      0.698338D+01      0.777006D+01
   xx         0.683323D+02      0.101258D+02      0.112665D+02
   yx         0.473751D+01      0.702026D+00      0.781109D+00
   yy         0.920238D+02      0.136365D+02      0.151727D+02
   zx         0.455996D+01      0.675716D+00      0.751835D+00
   zy        -0.234700D+02     -0.347790D+01     -0.386968D+01
   zz         0.759737D+02      0.112581D+02      0.125264D+02

 ----------------------------------------------------------------------
 1\1\GINC-NODE13\Freq\RB3LYP\6-31+G(d)\C5H8O1\ROOT\15-Oct-2019\0\\#P Ge
 om=AllCheck Guess=TCheck SCRF=Check GenChk RB3LYP/6-31+G(d) Freq\\Titl
 e Card Required\\0,1\C,1.1095553725,-0.8507717827,-0.2531167607\H,1.06
 51748403,-1.4032869708,0.7005279628\H,1.9238322027,-1.300240456,-0.832
 4106178\C,-0.1409038144,-0.9775841841,-1.0143471145\O,-1.2933727147,-0
 .4490615345,-0.6161851455\C,-1.2118583075,0.782891793,0.1210349594\H,-
 1.8827806122,1.4333437893,-0.4564441411\H,-1.7337090324,0.5793101947,1
 .0743443515\C,0.1278364803,1.3681143057,0.3292524889\H,0.1205625475,2.
 1495847715,1.0883023347\C,1.4037682932,0.6473287115,0.1135801753\H,2.0
 003911778,1.0294810923,-0.7258891852\H,2.0671815218,0.7163713229,0.996
 7516509\H,-0.2721139749,-1.6994335426,-1.8146915086\\Version=ES64L-G16
 RevA.03\State=1-A\HF=-270.430933\RMSD=1.129e-09\RMSF=4.964e-05\ZeroPoi
 nt=0.1177812\Thermal=0.123117\Dipole=0.1159542,-0.3990298,0.2106476\Di
 poleDeriv=-0.0136625,-0.2927381,-0.1172584,-0.0615212,-0.1310233,-0.11
 20226,-0.2756507,0.0719187,0.1311918,0.0096473,0.1847148,0.0543647,0.0
 45803,0.028116,0.0645531,-0.024702,0.2239048,-0.0346048,-0.0613608,0.0
 955365,0.066683,0.0769057,0.0135054,-0.0283099,0.0962087,-0.0630492,0.
 0118882,0.8885749,0.6781826,0.3986748,-0.2901567,-0.094579,0.1955203,-
 0.0539434,-0.5509517,-0.2701989,-1.0104469,-0.8436624,-0.3952492,0.050
 922,0.0135156,0.0819016,0.224874,0.5018503,0.0103822,0.2664518,0.21196
 39,-0.0585137,0.1728435,0.1043784,-0.1868195,-0.0785001,-0.415601,0.15
 43818,0.0011532,0.0987079,-0.0013241,0.0348946,0.1246552,0.0412859,-0.
 0632379,0.0825079,0.077507,-0.0189458,0.0802876,0.1491129,-0.0739061,0
 .1363441,0.0937307,0.1457262,0.027227,-0.0461305,-0.0984772,-0.1073326
 ,-0.0629924,0.0241546,-0.6192642,0.1722339,-0.038962,0.4739202,-0.2447
 797,0.0267947,0.0370682,0.0073879,0.0203648,0.1175202,-0.0912529,0.027
 7742,-0.2726451,-0.0206898,0.2765259,-0.0445031,0.1748898,-0.0387317,0
 .0517101,-0.1489736,0.2429133,-0.066373,0.2874246,-0.1077086,-0.091065
 7,-0.002578,-0.0424967,0.084017,0.0262411,0.0817,0.0593404,-0.0143263,
 -0.1807971,-0.0330272,-0.1761728,0.0412796,0.1289003,0.0487887,-0.2321
 881,0.0038604,-0.1231558,0.022251,0.0258677,-0.0370247,0.0396447,0.042
 2041,-0.1568769,-0.0520121,-0.0759096,0.0811102\Polar=71.1057922,-1.07
 35854,99.1739425,2.6805528,20.3353548,66.0500776\Quadrupole=0.5169553,
 -0.892083,0.3751277,-2.1621512,-1.0016584,1.4371099\PG=C01 [X(C5H8O1)]
 \NImag=1\\0.53453466,-0.07235736,0.40583523,-0.04870301,-0.01113618,0.
 52395110,-0.03975405,0.00019402,0.01588362,0.04770774,-0.00052246,-0.0
 9185449,0.10751341,0.00560777,0.11347937,0.02383970,0.11059200,-0.2246
 1323,-0.01345394,-0.11326314,0.25070134,-0.19453090,0.07663976,0.10044
 821,-0.00109695,0.00008638,0.00193282,0.21178264,0.07730821,-0.0884836
 4,-0.05692250,-0.01185074,0.00636497,0.00797578,-0.08516362,0.09603343
 ,0.10591698,-0.05675377,-0.12548696,0.02228048,-0.01160207,-0.01677744
 ,-0.11110002,0.06090901,0.13397314,-0.17977565,0.00821521,-0.06505276,
 -0.00867856,-0.00108112,-0.01182530,-0.02128578,-0.00085021,-0.0153168
 2,0.57664548,-0.01678907,-0.07885838,-0.03713265,0.01344082,0.00343168
 ,0.00384534,0.01517266,-0.00100092,0.00896294,-0.06926969,0.36371745,-
 0.07390768,-0.02445237,-0.12087849,-0.02769857,-0.00465827,-0.01535962
 ,0.01788393,0.00501408,0.01123509,0.07129897,0.28806756,0.43601037,-0.
 04386113,0.01408591,0.01317349,0.00409706,0.00138349,0.00319917,-0.005
 36639,0.00006304,-0.00464339,-0.30070944,0.08703323,0.03893686,0.43431
 231,0.01431076,0.00767045,0.00400288,-0.00519354,-0.00050090,-0.002855
 48,-0.00161586,0.00259477,0.00033005,0.08831993,-0.10648318,-0.0623411
 9,-0.09641517,0.31861972,-0.00501141,0.01127586,0.01412918,-0.00000684
 ,0.00022259,-0.00014428,-0.00343733,-0.00294649,-0.00174898,0.05909560
 ,-0.06875272,-0.07642843,-0.06303567,0.16172802,0.17906810,-0.00255160
 ,-0.00782964,-0.00306103,0.00163588,0.00139011,-0.00115940,0.00044340,
 -0.00100817,-0.00037391,0.00661303,0.03322647,0.02771160,-0.08834980,-
 0.02799943,-0.01832162,0.53413225,-0.00572411,0.00364898,0.00262424,0.
 00272824,-0.00096679,0.00252197,-0.00168865,0.00008064,-0.00038784,0.0
 4191274,-0.02607533,-0.03263470,-0.02051618,-0.12691975,-0.03820752,-0
 .03690391,0.41322907,-0.00992330,-0.00582847,-0.00240847,0.00178642,0.
 00174399,0.00129662,-0.00072652,-0.00007574,-0.00060785,0.03450611,-0.
 03415732,-0.02572482,-0.00804759,-0.02648543,-0.08184837,-0.00275859,-
 0.04465957,0.49696853,0.00023740,-0.00072378,-0.00089243,-0.00039758,0
 .00022010,-0.00025520,0.00007302,-0.00007186,-0.00003555,0.00006376,-0
 .00124714,0.00158992,0.00257716,0.00115289,-0.00067602,-0.13202035,0.0
 9880376,-0.08560285,0.14965695,0.00141099,-0.00039826,0.00128817,-0.00
 038784,0.00002809,-0.00066209,0.00018725,0.00021786,-0.00000975,-0.012
 12216,-0.00064005,0.00424100,0.02817251,-0.04686341,-0.00241170,0.0900
 7267,-0.11396510,0.08316145,-0.09935531,0.15318055,0.00134115,0.000108
 50,0.00130044,0.00011037,-0.00006524,-0.00047507,0.00013442,0.00017773
 ,-0.00001911,-0.00516124,-0.00228201,0.00225410,0.01618884,-0.02794734
 ,0.00125136,-0.08318933,0.09700881,-0.11456794,0.09027066,-0.08532432,
 0.12921119,0.00253125,0.00199401,0.00162885,-0.00076356,-0.00032145,-0
 .00036462,-0.00010164,0.00000346,-0.00008814,-0.00530436,0.00407598,0.
 00314827,0.00126721,-0.00626650,-0.00248926,-0.08289564,-0.01482784,0.
 10345762,0.00827698,0.00337041,-0.01580230,0.10202120,0.00112079,0.002
 64618,-0.00173345,-0.00108809,-0.00029404,-0.00012374,-0.00009273,-0.0
 0023363,0.00009742,-0.00591229,0.00077012,-0.00168170,0.01951051,-0.00
 652728,-0.03715929,-0.01933684,-0.05113357,0.05197703,-0.00770767,-0.0
 0135465,0.02029522,0.02209577,0.05978402,0.00126514,0.00100142,0.00003
 523,0.00019742,0.00008510,-0.00081646,0.00009669,-0.00009236,-0.000090
 40,-0.00557761,-0.00037475,0.00014858,0.01079653,-0.00472270,-0.021003
 94,0.08977803,0.03555752,-0.21971214,0.00771223,0.00597586,-0.01865907
 ,-0.10472376,-0.03774096,0.25040200,0.01460615,0.01252014,0.01273410,-
 0.00129177,-0.00527812,-0.00002423,0.00005700,-0.00214277,-0.00057619,
 -0.00739319,0.00459032,-0.00929008,0.00474262,-0.00249591,0.00274082,-
 0.20938492,-0.05907767,-0.00860441,-0.02411774,-0.01131053,-0.00547805
 ,-0.02624747,-0.00881579,0.00002332,0.55126296,0.02287202,-0.03071710,
 -0.00436556,0.00535700,0.00104114,-0.00028355,-0.00070187,-0.00464657,
 -0.00165914,0.00695271,0.01433685,-0.00011927,-0.04881967,-0.02448881,
 -0.00678654,-0.03076174,-0.10142504,-0.02582942,0.01077148,0.00969181,
 -0.00224813,-0.00752974,0.00069883,0.00145412,-0.01474995,0.40408070,0
 .00801868,-0.00354036,-0.00646715,-0.00285908,0.00046846,0.00235139,-0
 .00087236,-0.00289803,0.00085744,-0.00752133,0.01513386,0.00168799,-0.
 01294339,-0.02701248,-0.00706070,-0.01800913,-0.02937565,-0.05455661,-
 0.00910322,-0.00234499,0.00361552,0.01773426,0.00274592,0.00804827,0.0
 0025495,0.23411546,0.27470332,-0.00428728,0.00103389,0.00137390,-0.000
 01866,0.00025759,-0.00008928,0.00033463,0.00129933,0.00012775,-0.00326
 869,0.00137902,0.00084575,-0.00449614,-0.00502691,-0.00314038,0.003827
 22,-0.02055836,-0.01896626,-0.00007087,0.00102856,-0.00017420,0.000785
 73,-0.00081579,0.00022492,-0.05386837,0.00093121,-0.00100473,0.0584894
 6,-0.00013593,-0.00513522,-0.00374389,-0.00045562,0.00167274,-0.000166
 45,-0.00039621,-0.00143204,-0.00033296,-0.00354936,-0.00332070,0.00439
 173,0.00514641,-0.00480067,-0.00597910,0.00001361,-0.00246072,-0.00625
 831,-0.00130932,-0.00107896,-0.00074482,0.00140064,0.00108314,0.000113
 53,0.00064061,-0.17344874,-0.14619505,-0.00006179,0.18900232,0.0039586
 0,0.00666181,0.00292656,0.00016062,-0.00214986,0.00014857,0.00008123,0
 .00063362,0.00041849,0.00242071,0.00531896,-0.00220987,-0.00758445,0.0
 0414639,0.00605648,0.00477238,-0.00815708,-0.00761711,0.00037649,0.000
 78157,0.00078095,-0.00192550,-0.00092502,0.00153300,-0.00361879,-0.167
 18456,-0.17710046,0.00156250,0.16981318,0.17261542,-0.08417658,-0.0154
 8894,-0.01575548,-0.00053106,-0.00125182,-0.00034611,0.00786637,0.0223
 8009,0.00323863,0.00085613,-0.03757142,-0.00036651,0.00255691,0.007086
 85,0.00157334,-0.02688577,0.01313126,-0.00340738,-0.00245377,-0.001023
 62,0.00124325,0.00114201,0.00066005,-0.00060416,-0.19888652,0.05385316
 ,0.02900907,0.00228791,-0.00026230,-0.00275735,0.52852310,0.00934802,-
 0.10895784,0.00107806,-0.00528051,-0.02874121,-0.00634615,-0.00243972,
 -0.00992655,0.00033229,-0.02767171,0.00031554,-0.02101788,0.00195925,0
 .00182151,0.00025606,-0.00388963,0.00386265,0.00979012,-0.00021003,-0.
 00020415,-0.00006288,-0.00490903,-0.00214332,0.00067461,0.06329669,-0.
 10504926,-0.03778100,0.02004411,-0.00092820,-0.00824296,0.01423116,0.3
 7175536,0.00198691,-0.00778097,-0.05864007,0.00497104,0.02205137,0.005
 59870,-0.00433717,-0.01253150,-0.00257180,-0.01872833,-0.01813215,-0.0
 1916740,0.00603723,-0.00667773,-0.00110015,0.00587886,0.00856517,0.005
 78042,-0.00274350,-0.00203078,-0.00291554,-0.00047871,0.00207239,-0.00
 075646,0.00270202,-0.02369686,-0.05981648,0.01842468,-0.00835413,-0.00
 219506,-0.00366548,-0.00853562,0.53524609,-0.00431335,-0.00653822,0.00
 332050,0.00002083,0.00034322,-0.00017091,0.00069750,0.00051756,0.00016
 884,0.00361409,-0.00054585,-0.00147113,-0.00311740,0.00233114,0.003018
 35,-0.00207488,-0.00123776,0.00064566,0.00001746,0.00018026,0.00061084
 ,-0.00057792,-0.00044918,0.00041408,-0.02252163,0.00079175,0.01419004,
 -0.00124704,0.00040265,0.00067645,-0.10556396,-0.05122142,0.10153813,0
 .12508875,-0.02352725,-0.02827256,0.01450317,-0.00209949,-0.00254408,-
 0.00178502,0.00013980,0.00042726,0.00017232,0.00634702,-0.00235878,0.0
 0717160,0.00044525,-0.00070287,-0.00083576,-0.00067547,0.00062177,-0.0
 0111907,-0.00001916,0.00003550,-0.00008768,0.00091421,0.00047178,-0.00
 027573,0.01529878,0.00379554,-0.01069604,0.00076686,-0.00132017,0.0000
 2694,-0.04904604,-0.05926717,0.06968096,0.04946640,0.08497196,-0.00603
 301,-0.00718784,0.00310789,-0.00046718,-0.00071876,-0.00050612,0.00007
 247,0.00004941,0.00080028,-0.00064457,-0.00398520,0.00474082,0.0001340
 1,0.00074728,-0.00095199,-0.00164898,0.00071469,-0.00093800,-0.0004441
 4,-0.00014909,-0.00014752,0.00033187,0.00022783,-0.00014703,0.00567814
 ,-0.00532937,0.00381673,0.00079395,-0.00022764,0.00022683,0.09849765,0
 .07711397,-0.19891125,-0.10822512,-0.07221085,0.21640920,-0.00254934,0
 .00152867,-0.00218024,0.00026136,-0.00013481,-0.00001229,0.00025841,-0
 .00017725,0.00001331,-0.00042876,-0.00203060,-0.00355265,-0.00052629,-
 0.00032515,0.00105636,0.00039545,0.00599086,-0.00313767,-0.00166545,-0
 .00100262,-0.00057465,0.00001830,0.00033262,0.00007811,-0.02589977,0.0
 0007934,-0.01698848,0.00122429,-0.00187250,0.00241147,-0.12187139,-0.0
 1228876,-0.10751089,0.00970363,0.00139346,0.01165540,0.14145409,-0.013
 97856,0.00431243,-0.01982978,-0.00066307,-0.00000656,-0.00000601,0.000
 32081,0.00025915,-0.00008411,-0.00440003,-0.00284808,-0.00123315,0.004
 10396,-0.00093672,-0.00303843,0.00064111,-0.00038596,0.00183787,-0.000
 13810,-0.00030407,-0.00000557,-0.00040401,-0.00028833,0.00023351,0.008
 50024,0.00514388,0.00811128,-0.00005152,0.00046318,0.00105127,-0.00668
 532,-0.05651061,-0.01319602,0.00572035,0.00246909,0.01029136,0.0091311
 8,0.04983028,0.00094823,0.00180233,-0.00123502,-0.00048506,-0.00024183
 ,-0.00058217,0.00011664,-0.00023641,-0.00057052,-0.00194601,-0.0024302
 0,0.00009544,0.00002095,0.00004842,-0.00031329,0.00103140,0.00171089,-
 0.00145739,-0.00042699,-0.00056429,-0.00027259,0.00010629,0.00010120,-
 0.00000891,0.00208929,0.00263841,0.00954763,-0.00003273,-0.00061612,0.
 00281109,-0.10477733,-0.01497481,-0.20075513,-0.01451243,-0.00281963,-
 0.02683484,0.11802682,0.01580468,0.21930379,0.00389040,-0.01327368,-0.
 01291773,-0.00119069,-0.00069888,-0.00127040,0.00086867,-0.00030708,0.
 00038803,-0.06094804,-0.03146473,-0.04512868,-0.00312668,0.03213690,0.
 02863406,-0.00288428,-0.00203238,0.00077873,-0.00017699,0.00077943,0.0
 0048023,-0.00015211,0.00049863,0.00031906,-0.00105736,0.00095430,0.000
 09473,0.00030781,0.00043909,-0.00053437,-0.00286337,-0.00096843,-0.004
 07480,0.00027392,0.00059563,0.00029951,-0.00037455,-0.00209704,-0.0001
 5906,0.06743327,0.00666394,0.00856421,0.00385407,-0.00030896,-0.001109
 92,0.00055654,-0.00044800,-0.00025472,0.00002561,-0.02689105,-0.160986
 24,-0.16074744,0.00384747,-0.01248287,-0.00736498,0.00306085,0.0018891
 4,-0.00409713,-0.00016585,0.00165484,0.00117773,0.00040409,-0.00347924
 ,-0.00188917,-0.00097605,0.00098676,-0.00073138,-0.00022621,0.00170404
 ,-0.00177425,-0.00001313,-0.00602675,-0.00143413,0.00023910,0.00167273
 ,0.00066421,-0.00062444,-0.00119767,-0.00022264,0.01543824,0.16906569,
 -0.00369698,-0.01476198,-0.00572102,-0.00041931,0.00061428,-0.00082224
 ,-0.00029301,0.00094340,0.00058863,-0.03554744,-0.15408166,-0.19640374
 ,0.00776741,-0.01296069,-0.00990499,-0.00065029,0.00471905,0.00539313,
 0.00023060,-0.00195104,-0.00135673,-0.00053485,0.00184715,0.00102732,0
 .00136910,-0.00070560,0.00037310,0.00005413,-0.00169996,0.00160511,-0.
 00188213,0.00771620,0.00020414,-0.00020331,-0.00172521,-0.00066501,0.0
 0071538,0.00006311,0.00027192,0.03309069,0.17198296,0.20541037\\0.0000
 2788,0.00001501,0.00002726,0.00002362,-0.00000415,0.00001738,-0.000004
 80,0.00000353,0.00000547,-0.00007531,0.00015534,-0.00003191,0.00005634
 ,-0.00010880,-0.00001337,-0.00012066,-0.00005812,-0.00007450,-0.000021
 81,0.00000101,-0.00001436,0.00001227,-0.00000194,0.00000186,0.00009593
 ,0.00004916,0.00008853,0.00004741,0.00003685,-0.00001149,-0.00000721,-
 0.00006241,-0.00001803,0.00000618,-0.00001825,-0.00000430,-0.00001127,
 0.00002074,0.00000679,-0.00002857,-0.00002797,0.00002066\\\@


 THE REAL VOYAGE OF DISCOVERY CONSISTS NOT IN SEEKING NEW LANDSCAPES 
 BUT IN HAVING NEW EYES.
                                                    -- MARCEL PROUST
 Job cpu time:       0 days  0 hours  9 minutes  0.2 seconds.
 Elapsed time:       0 days  0 hours  0 minutes 23.1 seconds.
 File lengths (MBytes):  RWF=    332 Int=      0 D2E=      0 Chk=      8 Scr=      8
 Normal termination of Gaussian 16 at Tue Oct 15 10:47:03 2019.
