 Entering Gaussian System, Link 0=g16
 Input=tsb2.gjf
 Output=tsb2.log
 Initial command:
 /home/soft/g16/l1.exe "/tmp/gaussian/Gau-197145.inp" -scrdir="/tmp/gaussian/"
 Entering Link 1 = /home/soft/g16/l1.exe PID=    197146.
  
 Copyright (c) 1988,1990,1992,1993,1995,1998,2003,2009,2016,
            Gaussian, Inc.  All Rights Reserved.
  
 This is part of the Gaussian(R) 16 program.  It is based on
 the Gaussian(R) 09 system (copyright 2009, Gaussian, Inc.),
 the Gaussian(R) 03 system (copyright 2003, Gaussian, Inc.),
 the Gaussian(R) 98 system (copyright 1998, Gaussian, Inc.),
 the Gaussian(R) 94 system (copyright 1995, Gaussian, Inc.),
 the Gaussian 92(TM) system (copyright 1992, Gaussian, Inc.),
 the Gaussian 90(TM) system (copyright 1990, Gaussian, Inc.),
 the Gaussian 88(TM) system (copyright 1988, Gaussian, Inc.),
 the Gaussian 86(TM) system (copyright 1986, Carnegie Mellon
 University), and the Gaussian 82(TM) system (copyright 1983,
 Carnegie Mellon University). Gaussian is a federally registered
 trademark of Gaussian, Inc.
  
 This software contains proprietary and confidential information,
 including trade secrets, belonging to Gaussian, Inc.
  
 This software is provided under written license and may be
 used, copied, transmitted, or stored only in accord with that
 written license.
  
 The following legend is applicable only to US Government
 contracts under FAR:
  
                    RESTRICTED RIGHTS LEGEND
  
 Use, reproduction and disclosure by the US Government is
 subject to restrictions as set forth in subparagraphs (a)
 and (c) of the Commercial Computer Software - Restricted
 Rights clause in FAR 52.227-19.
  
 Gaussian, Inc.
 340 Quinnipiac St., Bldg. 40, Wallingford CT 06492
  
  
 ---------------------------------------------------------------
 Warning -- This program may not be used in any manner that
 competes with the business of Gaussian, Inc. or will provide
 assistance to any competitor of Gaussian, Inc.  The licensee
 of this program is prohibited from giving any competitor of
 Gaussian, Inc. access to this program.  By using this program,
 the user acknowledges that Gaussian, Inc. is engaged in the
 business of creating and licensing software in the field of
 computational chemistry and represents and warrants to the
 licensee that it is not a competitor of Gaussian, Inc. and that
 it will not use this program in any manner prohibited above.
 ---------------------------------------------------------------
  

 Cite this work as:
 Gaussian 16, Revision A.03,
 M. J. Frisch, G. W. Trucks, H. B. Schlegel, G. E. Scuseria, 
 M. A. Robb, J. R. Cheeseman, G. Scalmani, V. Barone, 
 G. A. Petersson, H. Nakatsuji, X. Li, M. Caricato, A. V. Marenich, 
 J. Bloino, B. G. Janesko, R. Gomperts, B. Mennucci, H. P. Hratchian, 
 J. V. Ortiz, A. F. Izmaylov, J. L. Sonnenberg, D. Williams-Young, 
 F. Ding, F. Lipparini, F. Egidi, J. Goings, B. Peng, A. Petrone, 
 T. Henderson, D. Ranasinghe, V. G. Zakrzewski, J. Gao, N. Rega, 
 G. Zheng, W. Liang, M. Hada, M. Ehara, K. Toyota, R. Fukuda, 
 J. Hasegawa, M. Ishida, T. Nakajima, Y. Honda, O. Kitao, H. Nakai, 
 T. Vreven, K. Throssell, J. A. Montgomery, Jr., J. E. Peralta, 
 F. Ogliaro, M. J. Bearpark, J. J. Heyd, E. N. Brothers, K. N. Kudin, 
 V. N. Staroverov, T. A. Keith, R. Kobayashi, J. Normand, 
 K. Raghavachari, A. P. Rendell, J. C. Burant, S. S. Iyengar, 
 J. Tomasi, M. Cossi, J. M. Millam, M. Klene, C. Adamo, R. Cammi, 
 J. W. Ochterski, R. L. Martin, K. Morokuma, O. Farkas, 
 J. B. Foresman, and D. J. Fox, Gaussian, Inc., Wallingford CT, 2016.
 
 ******************************************
 Gaussian 16:  ES64L-G16RevA.03 25-Dec-2016
                15-Oct-2019 
 ******************************************
 %chk=tsb2.chk
 %nprocshared=24
 Will use up to   24 processors via shared memory.
 ------------------------------------------------
 #p opt=(calcall,ts,noeigen) freq b3lyp/6-31+g(d)
 ------------------------------------------------
 1/5=1,10=4,11=1,18=20,26=3,38=1/1,3;
 2/9=110,12=2,17=6,18=5,40=1/2;
 3/5=1,6=6,7=11,11=2,25=1,30=1,71=2,74=-5,140=1/1,2,3;
 4//1;
 5/5=2,38=5/2;
 8/6=4,10=90,11=11/1;
 11/6=1,8=1,9=11,15=111,16=1/1,2,10;
 10/6=1/2;
 6/7=2,8=2,9=2,10=2,18=1,28=1/1;
 7/10=1,25=1/1,2,3,16;
 1/5=1,10=4,11=1,18=20,26=3/3(3);
 2/9=110/2;
 7/8=1,9=1,25=1,44=-1/16;
 99//99;
 2/9=110/2;
 3/5=1,6=6,7=11,11=2,25=1,30=1,71=2,74=-5,140=1/1,2,3;
 4/5=5,16=3,69=1/1;
 5/5=2,38=5/2;
 8/6=4,10=90,11=11/1;
 11/6=1,8=1,9=11,15=111,16=1/1,2,10;
 10/6=1/2;
 7/10=1,25=1/1,2,3,16;
 1/5=1,10=4,11=1,18=20,26=3/3(-8);
 2/9=110/2;
 6/7=2,8=2,9=2,10=2,18=1,19=2,28=1/1;
 7/8=1,9=1,25=1,44=-1/16;
 99//99;
 Leave Link    1 at Tue Oct 15 10:57:23 2019, MaxMem=           0 cpu:               2.4 elap:               0.1
 (Enter /home/soft/g16/l101.exe)
 -------------------
 Title Card Required
 -------------------
 Symbolic Z-matrix:
 Charge =  0 Multiplicity = 1
 C                    -1.1354   -0.84444  -0.26113 
 H                    -1.21292  -0.89051  -1.36047 
 H                    -1.91491  -1.50712   0.13111 
 C                     0.17262  -1.3176    0.21259 
 O                     1.30991  -0.67102  -0.021 
 C                     1.22806   0.76287  -0.09239 
 H                     1.98628   1.06653   0.64219 
 H                     1.64472   1.02289  -1.08302 
 C                    -0.09036   1.3853    0.14209 
 H                    -0.11135   2.43001  -0.16621 
 C                    -1.3785    0.65403   0.13991 
 H                    -1.87026   0.60545   1.12099 
 H                    -2.11788   1.12945  -0.53252 
 H                     0.33852  -2.3295    0.56949 
 
 ITRead=  0  0  0  0  0  0  0  0  0  0  0  0  0  0
 MicOpt= -1 -1 -1 -1 -1 -1 -1 -1 -1 -1 -1 -1 -1 -1
 NAtoms=     14 NQM=       14 NQMF=       0 NMMI=      0 NMMIF=      0
                NMic=       0 NMicF=      0.
                    Isotopes and Nuclear Properties:
 (Nuclear quadrupole moments (NQMom) in fm**2, nuclear magnetic moments (NMagM)
  in nuclear magnetons)

  Atom         1           2           3           4           5           6           7           8           9          10
 IAtWgt=          12           1           1          12          16          12           1           1          12           1
 AtmWgt=  12.0000000   1.0078250   1.0078250  12.0000000  15.9949146  12.0000000   1.0078250   1.0078250  12.0000000   1.0078250
 NucSpn=           0           1           1           0           0           0           1           1           0           1
 AtZEff=  -0.0000000  -0.0000000  -0.0000000  -0.0000000  -0.0000000  -0.0000000  -0.0000000  -0.0000000  -0.0000000  -0.0000000
 NQMom=    0.0000000   0.0000000   0.0000000   0.0000000   0.0000000   0.0000000   0.0000000   0.0000000   0.0000000   0.0000000
 NMagM=    0.0000000   2.7928460   2.7928460   0.0000000   0.0000000   0.0000000   2.7928460   2.7928460   0.0000000   2.7928460
 AtZNuc=   6.0000000   1.0000000   1.0000000   6.0000000   8.0000000   6.0000000   1.0000000   1.0000000   6.0000000   1.0000000

  Atom        11          12          13          14
 IAtWgt=          12           1           1           1
 AtmWgt=  12.0000000   1.0078250   1.0078250   1.0078250
 NucSpn=           0           1           1           1
 AtZEff=  -0.0000000  -0.0000000  -0.0000000  -0.0000000
 NQMom=    0.0000000   0.0000000   0.0000000   0.0000000
 NMagM=    0.0000000   2.7928460   2.7928460   2.7928460
 AtZNuc=   6.0000000   1.0000000   1.0000000   1.0000000
 Leave Link  101 at Tue Oct 15 10:57:23 2019, MaxMem=   280000000 cpu:               5.1 elap:               0.3
 (Enter /home/soft/g16/l103.exe)

 GradGradGradGradGradGradGradGradGradGradGradGradGradGradGradGradGradGrad
 Berny optimization.
 Initialization pass.
                           ----------------------------
                           !    Initial Parameters    !
                           ! (Angstroms and Degrees)  !
 --------------------------                            --------------------------
 ! Name  Definition              Value          Derivative Info.                !
 --------------------------------------------------------------------------------
 ! R1    R(1,2)                  1.103          calculate D2E/DX2 analytically  !
 ! R2    R(1,3)                  1.0957         calculate D2E/DX2 analytically  !
 ! R3    R(1,4)                  1.4694         calculate D2E/DX2 analytically  !
 ! R4    R(1,11)                 1.5701         calculate D2E/DX2 analytically  !
 ! R5    R(4,5)                  1.3289         calculate D2E/DX2 analytically  !
 ! R6    R(4,14)                 1.0857         calculate D2E/DX2 analytically  !
 ! R7    R(5,6)                  1.438          calculate D2E/DX2 analytically  !
 ! R8    R(6,7)                  1.0985         calculate D2E/DX2 analytically  !
 ! R9    R(6,8)                  1.1057         calculate D2E/DX2 analytically  !
 ! R10   R(6,9)                  1.4767         calculate D2E/DX2 analytically  !
 ! R11   R(9,10)                 1.0895         calculate D2E/DX2 analytically  !
 ! R12   R(9,11)                 1.4812         calculate D2E/DX2 analytically  !
 ! R13   R(11,12)                1.0985         calculate D2E/DX2 analytically  !
 ! R14   R(11,13)                1.1067         calculate D2E/DX2 analytically  !
 ! A1    A(2,1,3)              106.3502         calculate D2E/DX2 analytically  !
 ! A2    A(2,1,4)              111.7414         calculate D2E/DX2 analytically  !
 ! A3    A(2,1,11)             106.4722         calculate D2E/DX2 analytically  !
 ! A4    A(3,1,4)              108.8513         calculate D2E/DX2 analytically  !
 ! A5    A(3,1,11)             112.0613         calculate D2E/DX2 analytically  !
 ! A6    A(4,1,11)             111.2714         calculate D2E/DX2 analytically  !
 ! A7    A(1,4,5)              123.2611         calculate D2E/DX2 analytically  !
 ! A8    A(1,4,14)             122.8261         calculate D2E/DX2 analytically  !
 ! A9    A(5,4,14)             112.3625         calculate D2E/DX2 analytically  !
 ! A10   A(4,5,6)              116.4337         calculate D2E/DX2 analytically  !
 ! A11   A(5,6,7)              101.7212         calculate D2E/DX2 analytically  !
 ! A12   A(5,6,8)              104.923          calculate D2E/DX2 analytically  !
 ! A13   A(5,6,9)              117.5961         calculate D2E/DX2 analytically  !
 ! A14   A(7,6,8)              105.9029         calculate D2E/DX2 analytically  !
 ! A15   A(7,6,9)              113.1762         calculate D2E/DX2 analytically  !
 ! A16   A(8,6,9)              112.3075         calculate D2E/DX2 analytically  !
 ! A17   A(6,9,10)             112.1143         calculate D2E/DX2 analytically  !
 ! A18   A(6,9,11)             124.6182         calculate D2E/DX2 analytically  !
 ! A19   A(10,9,11)            117.1452         calculate D2E/DX2 analytically  !
 ! A20   A(1,11,9)             109.6871         calculate D2E/DX2 analytically  !
 ! A21   A(1,11,12)            104.7867         calculate D2E/DX2 analytically  !
 ! A22   A(1,11,13)            110.9903         calculate D2E/DX2 analytically  !
 ! A23   A(9,11,12)            114.1942         calculate D2E/DX2 analytically  !
 ! A24   A(9,11,13)            111.7033         calculate D2E/DX2 analytically  !
 ! A25   A(12,11,13)           105.2217         calculate D2E/DX2 analytically  !
 ! D1    D(2,1,4,5)             67.4489         calculate D2E/DX2 analytically  !
 ! D2    D(2,1,4,14)           -97.2586         calculate D2E/DX2 analytically  !
 ! D3    D(3,1,4,5)           -175.3961         calculate D2E/DX2 analytically  !
 ! D4    D(3,1,4,14)            19.8964         calculate D2E/DX2 analytically  !
 ! D5    D(11,1,4,5)           -51.4217         calculate D2E/DX2 analytically  !
 ! D6    D(11,1,4,14)          143.8709         calculate D2E/DX2 analytically  !
 ! D7    D(2,1,11,9)           -89.2183         calculate D2E/DX2 analytically  !
 ! D8    D(2,1,11,12)          147.7825         calculate D2E/DX2 analytically  !
 ! D9    D(2,1,11,13)           34.6959         calculate D2E/DX2 analytically  !
 ! D10   D(3,1,11,9)           154.8958         calculate D2E/DX2 analytically  !
 ! D11   D(3,1,11,12)           31.8966         calculate D2E/DX2 analytically  !
 ! D12   D(3,1,11,13)          -81.19           calculate D2E/DX2 analytically  !
 ! D13   D(4,1,11,9)            32.7617         calculate D2E/DX2 analytically  !
 ! D14   D(4,1,11,12)          -90.2375         calculate D2E/DX2 analytically  !
 ! D15   D(4,1,11,13)          156.6759         calculate D2E/DX2 analytically  !
 ! D16   D(1,4,5,6)             32.4405         calculate D2E/DX2 analytically  !
 ! D17   D(14,4,5,6)          -161.4257         calculate D2E/DX2 analytically  !
 ! D18   D(4,5,6,7)            126.1502         calculate D2E/DX2 analytically  !
 ! D19   D(4,5,6,8)           -123.6737         calculate D2E/DX2 analytically  !
 ! D20   D(4,5,6,9)              1.9569         calculate D2E/DX2 analytically  !
 ! D21   D(5,6,9,10)          -166.0865         calculate D2E/DX2 analytically  !
 ! D22   D(5,6,9,11)           -14.5723         calculate D2E/DX2 analytically  !
 ! D23   D(7,6,9,10)            75.6762         calculate D2E/DX2 analytically  !
 ! D24   D(7,6,9,11)          -132.8095         calculate D2E/DX2 analytically  !
 ! D25   D(8,6,9,10)           -44.1796         calculate D2E/DX2 analytically  !
 ! D26   D(8,6,9,11)           107.3346         calculate D2E/DX2 analytically  !
 ! D27   D(6,9,11,1)            -4.5254         calculate D2E/DX2 analytically  !
 ! D28   D(6,9,11,12)          112.7279         calculate D2E/DX2 analytically  !
 ! D29   D(6,9,11,13)         -128.0218         calculate D2E/DX2 analytically  !
 ! D30   D(10,9,11,1)          145.7028         calculate D2E/DX2 analytically  !
 ! D31   D(10,9,11,12)         -97.0439         calculate D2E/DX2 analytically  !
 ! D32   D(10,9,11,13)          22.2064         calculate D2E/DX2 analytically  !
 --------------------------------------------------------------------------------
 Trust Radius=3.00D-01 FncErr=1.00D-07 GrdErr=1.00D-06 EigMax=2.50D+02 EigMin=1.00D-04
 Number of steps in this run=     81 maximum allowed number of steps=    100.
 Search for a saddle point of order  1.
 GradGradGradGradGradGradGradGradGradGradGradGradGradGradGradGradGradGrad

 Leave Link  103 at Tue Oct 15 10:57:23 2019, MaxMem=   280000000 cpu:               0.3 elap:               0.0
 (Enter /home/soft/g16/l202.exe)
                          Input orientation:                          
 ---------------------------------------------------------------------
 Center     Atomic      Atomic             Coordinates (Angstroms)
 Number     Number       Type             X           Y           Z
 ---------------------------------------------------------------------
      1          6           0       -1.135395   -0.844435   -0.261131
      2          1           0       -1.212918   -0.890513   -1.360471
      3          1           0       -1.914910   -1.507121    0.131110
      4          6           0        0.172621   -1.317599    0.212591
      5          8           0        1.309911   -0.671023   -0.020998
      6          6           0        1.228056    0.762871   -0.092387
      7          1           0        1.986278    1.066527    0.642188
      8          1           0        1.644718    1.022893   -1.083020
      9          6           0       -0.090363    1.385298    0.142085
     10          1           0       -0.111349    2.430007   -0.166212
     11          6           0       -1.378498    0.654030    0.139912
     12          1           0       -1.870260    0.605448    1.120993
     13          1           0       -2.117883    1.129450   -0.532517
     14          1           0        0.338517   -2.329496    0.569490
 ---------------------------------------------------------------------
                    Distance matrix (angstroms):
                    1          2          3          4          5
     1  C    0.000000
     2  H    1.103033   0.000000
     3  H    1.095741   1.760060   0.000000
     4  C    1.469423   2.139309   2.097700   0.000000
     5  O    2.463180   2.864791   3.334916   1.328929   0.000000
     6  C    2.863181   3.209372   3.883433   2.352724   1.438002
     7  H    3.769961   4.251530   4.701503   3.026212   1.978982
     8  H    3.448397   3.450244   4.532773   3.053454   2.027150
     9  C    2.495272   2.949088   3.419822   2.716576   2.493155
    10  H    3.432150   3.696696   4.340761   3.777391   3.414301
    11  C    1.570138   2.159671   2.226744   2.509696   3.001533
    12  H    2.133648   2.971138   2.333412   2.949011   3.612064
    13  H    2.221521   2.363201   2.726372   3.433605   3.905525
    14  H    2.251167   2.863978   2.438526   1.085741   2.010675
                    6          7          8          9         10
     6  C    0.000000
     7  H    1.098503   0.000000
     8  H    1.105700   1.759236   0.000000
     9  C    1.476693   2.159666   2.154699   0.000000
    10  H    2.139813   2.629188   2.429872   1.089451   0.000000
    11  C    2.619147   3.426974   3.281990   1.481232   2.203060
    12  H    3.331161   3.913404   4.169773   2.175881   2.842478
    13  H    3.394614   4.269430   3.804152   2.152065   2.419051
    14  H    3.285132   3.775364   3.959225   3.763816   4.836993
                   11         12         13         14
    11  C    0.000000
    12  H    1.098504   0.000000
    13  H    1.106741   1.752139   0.000000
    14  H    3.469021   3.714397   4.383221   0.000000
 Stoichiometry    C5H8O
 Framework group  C1[X(C5H8O)]
 Deg. of freedom    36
 Full point group                 C1      NOp   1
 Largest Abelian subgroup         C1      NOp   1
 Largest concise Abelian subgroup C1      NOp   1
                         Standard orientation:                         
 ---------------------------------------------------------------------
 Center     Atomic      Atomic             Coordinates (Angstroms)
 Number     Number       Type             X           Y           Z
 ---------------------------------------------------------------------
      1          6           0        1.135395   -0.844436    0.261131
      2          1           0        1.212918   -0.890514    1.360471
      3          1           0        1.914909   -1.507122   -0.131110
      4          6           0       -0.172622   -1.317599   -0.212591
      5          8           0       -1.309911   -0.671022    0.020998
      6          6           0       -1.228055    0.762872    0.092387
      7          1           0       -1.986277    1.066528   -0.642188
      8          1           0       -1.644717    1.022894    1.083020
      9          6           0        0.090364    1.385298   -0.142085
     10          1           0        0.111351    2.430007    0.166212
     11          6           0        1.378499    0.654029   -0.139912
     12          1           0        1.870261    0.605447   -1.120993
     13          1           0        2.117884    1.129449    0.532517
     14          1           0       -0.338518   -2.329496   -0.569490
 ---------------------------------------------------------------------
 Rotational constants (GHZ):           5.2233691           4.5055989           2.6011632
 Leave Link  202 at Tue Oct 15 10:57:23 2019, MaxMem=   280000000 cpu:               0.7 elap:               0.1
 (Enter /home/soft/g16/l301.exe)
 Standard basis: 6-31+G(d) (6D, 7F)
 Ernie: Thresh=  0.10000D-02 Tol=  0.10000D-05 Strict=F.
 There are   130 symmetry adapted cartesian basis functions of A   symmetry.
 There are   130 symmetry adapted basis functions of A   symmetry.
   130 basis functions,   224 primitive gaussians,   130 cartesian basis functions
    23 alpha electrons       23 beta electrons
       nuclear repulsion energy       238.4328081285 Hartrees.
 IExCor=  402 DFT=T Ex+Corr=B3LYP ExCW=0 ScaHFX=  0.200000
 ScaDFX=  0.800000  0.720000  1.000000  0.810000 ScalE2=  1.000000  1.000000
 IRadAn=      5 IRanWt=     -1 IRanGd=            0 ICorTp=0 IEmpDi=  4
 NAtoms=   14 NActive=   14 NUniq=   14 SFac= 1.00D+00 NAtFMM=   60 NAOKFM=F Big=F
 Integral buffers will be    131072 words long.
 Raffenetti 2 integral format.
 Two-electron integral symmetry is turned on.
 Leave Link  301 at Tue Oct 15 10:57:24 2019, MaxMem=   280000000 cpu:               2.2 elap:               0.1
 (Enter /home/soft/g16/l302.exe)
 NPDir=0 NMtPBC=     1 NCelOv=     1 NCel=       1 NClECP=     1 NCelD=      1
         NCelK=      1 NCelE2=     1 NClLst=     1 CellRange=     0.0.
 One-electron integrals computed using PRISM.
 One-electron integral symmetry used in STVInt
 NBasis=   130 RedAO= T EigKep=  4.02D-05  NBF=   130
 NBsUse=   130 1.00D-06 EigRej= -1.00D+00 NBFU=   130
 Precomputing XC quadrature grid using
 IXCGrd= 4 IRadAn=           5 IRanWt=          -1 IRanGd=           0 AccXCQ= 0.00D+00.
 Generated NRdTot=       0 NPtTot=           0 NUsed=           0 NTot=          32
 NSgBfM=   130   130   130   130   130 MxSgAt=    14 MxSgA2=    14.
 Leave Link  302 at Tue Oct 15 10:57:24 2019, MaxMem=   280000000 cpu:               4.0 elap:               0.3
 (Enter /home/soft/g16/l303.exe)
 DipDrv:  MaxL=1.
 Leave Link  303 at Tue Oct 15 10:57:24 2019, MaxMem=   280000000 cpu:               1.2 elap:               0.1
 (Enter /home/soft/g16/l401.exe)
 ExpMin= 4.38D-02 ExpMax= 5.48D+03 ExpMxC= 8.25D+02 IAcc=3 IRadAn=         5 AccDes= 0.00D+00
 Harris functional with IExCor=  402 and IRadAn=       5 diagonalized for initial guess.
 HarFok:  IExCor=  402 AccDes= 0.00D+00 IRadAn=         5 IDoV= 1 UseB2=F ITyADJ=14
 ICtDFT=  3500011 ScaDFX=  1.000000  1.000000  1.000000  1.000000
 FoFCou: FMM=F IPFlag=           0 FMFlag=      100000 FMFlg1=           0
         NFxFlg=           0 DoJE=T BraDBF=F KetDBF=T FulRan=T
         wScrn=  0.000000 ICntrl=       500 IOpCl=  0 I1Cent=   200000004 NGrid=           0
         NMat0=    1 NMatS0=      1 NMatT0=    0 NMatD0=    1 NMtDS0=    0 NMtDT0=    0
 Petite list used in FoFCou.
 Harris En= -270.463096048639    
 JPrj=0 DoOrth=F DoCkMO=F.
 Leave Link  401 at Tue Oct 15 10:57:24 2019, MaxMem=   280000000 cpu:               9.6 elap:               0.5
 (Enter /home/soft/g16/l502.exe)
 Integral symmetry usage will be decided dynamically.
 Closed shell SCF:
 Using DIIS extrapolation, IDIIS=  1040.
 NGot=   280000000 LenX=   279961518 LenY=   279944177
 Requested convergence on RMS density matrix=1.00D-08 within 128 cycles.
 Requested convergence on MAX density matrix=1.00D-06.
 Requested convergence on             energy=1.00D-06.
 No special actions if energy rises.
 Fock matrices will be formed incrementally for  20 cycles.

 Cycle   1  Pass 1  IDiag  1:
 FoFJK:  IHMeth= 1 ICntrl=       0 DoSepK=F KAlg= 0 I1Cent=           0 FoldK=F
 IRaf= 990000000 NMat=       1 IRICut=       1 DoRegI=T DoRafI=F ISym2E= 0 IDoP0=0 IntGTp=1.
 FoFCou: FMM=F IPFlag=           0 FMFlag=      100000 FMFlg1=           0
         NFxFlg=           0 DoJE=F BraDBF=F KetDBF=F FulRan=T
         wScrn=  0.000000 ICntrl=         0 IOpCl=  0 I1Cent=           0 NGrid=           0
         NMat0=    1 NMatS0=      1 NMatT0=    0 NMatD0=    1 NMtDS0=    0 NMtDT0=    0
 Symmetry not used in FoFCou.
 E= -270.161415420166    
 DIIS: error= 2.43D-02 at cycle   1 NSaved=   1.
 NSaved= 1 IEnMin= 1 EnMin= -270.161415420166     IErMin= 1 ErrMin= 2.43D-02
 ErrMax= 2.43D-02  0.00D+00 EMaxC= 1.00D-01 BMatC= 2.16D-01 BMatP= 2.16D-01
 IDIUse=3 WtCom= 7.57D-01 WtEn= 2.43D-01
 Coeff-Com:  0.100D+01
 Coeff-En:   0.100D+01
 Coeff:      0.100D+01
 Gap=    -0.201 Goal=   None    Shift=    0.000
 GapD=   -0.201 DampG=0.250 DampE=0.500 DampFc=0.2500 IDamp=-1.
 Damping current iteration by 2.50D-01
 RMSDP=2.30D-02 MaxDP=4.53D-01              OVMax= 7.05D-01

 Cycle   2  Pass 1  IDiag  1:
 RMSU=  5.69D-03    CP:  9.73D-01
 E= -270.273928299119     Delta-E=       -0.112512878953 Rises=F Damp=T
 DIIS: error= 1.18D-02 at cycle   2 NSaved=   2.
 NSaved= 2 IEnMin= 2 EnMin= -270.273928299119     IErMin= 2 ErrMin= 1.18D-02
 ErrMax= 1.18D-02  0.00D+00 EMaxC= 1.00D-01 BMatC= 3.85D-02 BMatP= 2.16D-01
 IDIUse=3 WtCom= 8.82D-01 WtEn= 1.18D-01
 Coeff-Com: -0.232D+00 0.123D+01
 Coeff-En:   0.225D-01 0.977D+00
 Coeff:     -0.202D+00 0.120D+01
 Gap=     0.311 Goal=   None    Shift=    0.000
 RMSDP=1.37D-02 MaxDP=3.21D-01 DE=-1.13D-01 OVMax= 8.95D-01

 Cycle   3  Pass 1  IDiag  1:
 RMSU=  1.22D-02    CP:  1.03D+00 -2.40D-02
 E= -270.328516400743     Delta-E=       -0.054588101624 Rises=F Damp=F
 DIIS: error= 1.53D-02 at cycle   3 NSaved=   3.
 NSaved= 3 IEnMin= 3 EnMin= -270.328516400743     IErMin= 2 ErrMin= 1.18D-02
 ErrMax= 1.53D-02  0.00D+00 EMaxC= 1.00D-01 BMatC= 7.51D-02 BMatP= 3.85D-02
 IDIUse=2 WtCom= 0.00D+00 WtEn= 1.00D+00
 Coeff-En:   0.000D+00 0.252D+00 0.748D+00
 Coeff:      0.000D+00 0.252D+00 0.748D+00
 Gap=    -0.062 Goal=   None    Shift=    0.000
 RMSDP=1.99D-02 MaxDP=3.68D-01 DE=-5.46D-02 OVMax= 8.60D-01

 Cycle   4  Pass 1  IDiag  1:
 RMSU=  8.93D-03    CP:  8.51D-01  1.69D+00 -1.42D-01
 E= -269.728437488305     Delta-E=        0.600078912437 Rises=F Damp=F
 DIIS: error= 4.79D-02 at cycle   4 NSaved=   4.
 NSaved= 4 IEnMin= 3 EnMin= -270.328516400743     IErMin= 2 ErrMin= 1.18D-02
 ErrMax= 4.79D-02  0.00D+00 EMaxC= 1.00D-01 BMatC= 4.95D-01 BMatP= 3.85D-02
 IDIUse=2 WtCom= 0.00D+00 WtEn= 1.00D+00
 Coeff-En:   0.000D+00 0.000D+00 0.778D+00 0.222D+00
 Coeff:      0.000D+00 0.000D+00 0.778D+00 0.222D+00
 Gap=     0.037 Goal=   None    Shift=    0.000
 RMSDP=1.28D-02 MaxDP=2.75D-01 DE= 6.00D-01 OVMax= 4.93D-01

 Cycle   5  Pass 1  IDiag  1:
 RMSU=  5.20D-03    CP:  9.43D-01  3.08D-01  5.26D-01  8.90D-01
 E= -270.352636255717     Delta-E=       -0.624198767412 Rises=F Damp=F
 DIIS: error= 1.62D-02 at cycle   5 NSaved=   5.
 NSaved= 5 IEnMin= 5 EnMin= -270.352636255717     IErMin= 2 ErrMin= 1.18D-02
 ErrMax= 1.62D-02  0.00D+00 EMaxC= 1.00D-01 BMatC= 6.34D-02 BMatP= 3.85D-02
 IDIUse=2 WtCom= 0.00D+00 WtEn= 1.00D+00
 Coeff-En:   0.000D+00 0.000D+00 0.457D+00 0.000D+00 0.543D+00
 Coeff:      0.000D+00 0.000D+00 0.457D+00 0.000D+00 0.543D+00
 Gap=     0.057 Goal=   None    Shift=    0.000
 RMSDP=6.55D-03 MaxDP=1.49D-01 DE=-6.24D-01 OVMax= 3.00D-01

 Cycle   6  Pass 1  IDiag  1:
 RMSU=  9.54D-04    CP:  9.98D-01 -6.71D-02  8.19D-01  4.13D-01  6.29D-01
 E= -270.425419312973     Delta-E=       -0.072783057256 Rises=F Damp=F
 DIIS: error= 4.46D-03 at cycle   6 NSaved=   6.
 NSaved= 6 IEnMin= 6 EnMin= -270.425419312973     IErMin= 6 ErrMin= 4.46D-03
 ErrMax= 4.46D-03  0.00D+00 EMaxC= 1.00D-01 BMatC= 3.96D-03 BMatP= 3.85D-02
 IDIUse=3 WtCom= 9.55D-01 WtEn= 4.46D-02
 Coeff-Com: -0.101D+00 0.139D+00 0.842D-01-0.274D-01 0.217D+00 0.688D+00
 Coeff-En:   0.000D+00 0.000D+00 0.000D+00 0.000D+00 0.138D+00 0.862D+00
 Coeff:     -0.965D-01 0.133D+00 0.804D-01-0.261D-01 0.214D+00 0.695D+00
 Gap=     0.067 Goal=   None    Shift=    0.000
 RMSDP=2.57D-03 MaxDP=8.21D-02 DE=-7.28D-02 OVMax= 1.06D-01

 Cycle   7  Pass 1  IDiag  1:
 RMSU=  7.00D-04    CP:  9.88D-01  1.66D-02  8.60D-01  6.10D-01  9.22D-01
                    CP:  6.34D-01
 E= -270.429180736935     Delta-E=       -0.003761423962 Rises=F Damp=F
 DIIS: error= 2.73D-03 at cycle   7 NSaved=   7.
 NSaved= 7 IEnMin= 7 EnMin= -270.429180736935     IErMin= 7 ErrMin= 2.73D-03
 ErrMax= 2.73D-03  0.00D+00 EMaxC= 1.00D-01 BMatC= 1.39D-03 BMatP= 3.96D-03
 IDIUse=3 WtCom= 9.73D-01 WtEn= 2.73D-02
 Coeff-Com: -0.427D-01 0.486D-01 0.966D-02-0.109D-01 0.639D-01 0.518D+00
 Coeff-Com:  0.413D+00
 Coeff-En:   0.000D+00 0.000D+00 0.000D+00 0.000D+00 0.000D+00 0.331D+00
 Coeff-En:   0.669D+00
 Coeff:     -0.416D-01 0.472D-01 0.940D-02-0.106D-01 0.621D-01 0.513D+00
 Coeff:      0.420D+00
 Gap=     0.070 Goal=   None    Shift=    0.000
 RMSDP=6.81D-04 MaxDP=1.67D-02 DE=-3.76D-03 OVMax= 2.66D-02

 Cycle   8  Pass 1  IDiag  1:
 RMSU=  1.67D-04    CP:  9.94D-01 -1.94D-02  8.73D-01  5.57D-01  8.64D-01
                    CP:  7.83D-01  8.62D-01
 E= -270.430820367574     Delta-E=       -0.001639630638 Rises=F Damp=F
 DIIS: error= 5.80D-04 at cycle   8 NSaved=   8.
 NSaved= 8 IEnMin= 8 EnMin= -270.430820367574     IErMin= 8 ErrMin= 5.80D-04
 ErrMax= 5.80D-04  0.00D+00 EMaxC= 1.00D-01 BMatC= 9.51D-05 BMatP= 1.39D-03
 IDIUse=3 WtCom= 9.94D-01 WtEn= 5.80D-03
 Coeff-Com: -0.716D-02 0.712D-02-0.190D-02-0.232D-02-0.681D-04 0.212D+00
 Coeff-Com:  0.188D+00 0.604D+00
 Coeff-En:   0.000D+00 0.000D+00 0.000D+00 0.000D+00 0.000D+00 0.477D-01
 Coeff-En:   0.000D+00 0.952D+00
 Coeff:     -0.712D-02 0.708D-02-0.189D-02-0.231D-02-0.677D-04 0.211D+00
 Coeff:      0.187D+00 0.606D+00
 Gap=     0.071 Goal=   None    Shift=    0.000
 RMSDP=1.16D-04 MaxDP=3.26D-03 DE=-1.64D-03 OVMax= 4.80D-03

 Cycle   9  Pass 1  IDiag  1:
 RMSU=  4.16D-05    CP:  9.94D-01 -2.48D-02  8.71D-01  5.48D-01  8.52D-01
                    CP:  8.05D-01  8.27D-01  9.26D-01
 E= -270.430912912408     Delta-E=       -0.000092544835 Rises=F Damp=F
 DIIS: error= 2.93D-04 at cycle   9 NSaved=   9.
 NSaved= 9 IEnMin= 9 EnMin= -270.430912912408     IErMin= 9 ErrMin= 2.93D-04
 ErrMax= 2.93D-04  0.00D+00 EMaxC= 1.00D-01 BMatC= 1.57D-05 BMatP= 9.51D-05
 IDIUse=3 WtCom= 9.97D-01 WtEn= 2.93D-03
 Coeff-Com:  0.235D-02-0.360D-02-0.228D-02-0.330D-05-0.100D-01 0.732D-01
 Coeff-Com:  0.498D-01 0.338D+00 0.552D+00
 Coeff-En:   0.000D+00 0.000D+00 0.000D+00 0.000D+00 0.000D+00 0.000D+00
 Coeff-En:   0.000D+00 0.000D+00 0.100D+01
 Coeff:      0.234D-02-0.359D-02-0.227D-02-0.329D-05-0.998D-02 0.730D-01
 Coeff:      0.496D-01 0.337D+00 0.554D+00
 Gap=     0.072 Goal=   None    Shift=    0.000
 RMSDP=7.56D-05 MaxDP=2.29D-03 DE=-9.25D-05 OVMax= 2.43D-03

 Cycle  10  Pass 1  IDiag  1:
 RMSU=  1.72D-05    CP:  9.95D-01 -2.91D-02  8.74D-01  5.43D-01  8.49D-01
                    CP:  8.17D-01  8.37D-01  1.03D+00  9.80D-01
 E= -270.430930832123     Delta-E=       -0.000017919715 Rises=F Damp=F
 DIIS: error= 9.05D-05 at cycle  10 NSaved=  10.
 NSaved=10 IEnMin=10 EnMin= -270.430930832123     IErMin=10 ErrMin= 9.05D-05
 ErrMax= 9.05D-05  0.00D+00 EMaxC= 1.00D-01 BMatC= 1.74D-06 BMatP= 1.57D-05
 IDIUse=1 WtCom= 1.00D+00 WtEn= 0.00D+00
 Coeff-Com:  0.175D-02-0.252D-02-0.190D-03 0.279D-03-0.265D-02 0.345D-02
 Coeff-Com: -0.106D-01-0.586D-03 0.608D-01 0.950D+00
 Coeff:      0.175D-02-0.252D-02-0.190D-03 0.279D-03-0.265D-02 0.345D-02
 Coeff:     -0.106D-01-0.586D-03 0.608D-01 0.950D+00
 Gap=     0.072 Goal=   None    Shift=    0.000
 RMSDP=2.58D-05 MaxDP=4.71D-04 DE=-1.79D-05 OVMax= 1.09D-03

 Cycle  11  Pass 1  IDiag  1:
 RMSU=  5.24D-06    CP:  9.95D-01 -3.06D-02  8.74D-01  5.41D-01  8.47D-01
                    CP:  8.18D-01  8.35D-01  1.07D+00  1.07D+00  1.11D+00
 E= -270.430932991870     Delta-E=       -0.000002159747 Rises=F Damp=F
 DIIS: error= 7.86D-06 at cycle  11 NSaved=  11.
 NSaved=11 IEnMin=11 EnMin= -270.430932991870     IErMin=11 ErrMin= 7.86D-06
 ErrMax= 7.86D-06  0.00D+00 EMaxC= 1.00D-01 BMatC= 1.41D-08 BMatP= 1.74D-06
 IDIUse=1 WtCom= 1.00D+00 WtEn= 0.00D+00
 Coeff-Com:  0.324D-03-0.429D-03 0.656D-04 0.666D-04-0.479D-03-0.450D-03
 Coeff-Com: -0.395D-02-0.104D-01-0.110D-01 0.261D+00 0.765D+00
 Coeff:      0.324D-03-0.429D-03 0.656D-04 0.666D-04-0.479D-03-0.450D-03
 Coeff:     -0.395D-02-0.104D-01-0.110D-01 0.261D+00 0.765D+00
 Gap=     0.072 Goal=   None    Shift=    0.000
 RMSDP=3.10D-06 MaxDP=5.84D-05 DE=-2.16D-06 OVMax= 1.31D-04

 Cycle  12  Pass 1  IDiag  1:
 RMSU=  1.18D-06    CP:  9.95D-01 -3.07D-02  8.74D-01  5.41D-01  8.47D-01
                    CP:  8.18D-01  8.35D-01  1.07D+00  1.07D+00  1.14D+00
                    CP:  1.06D+00
 E= -270.430933009639     Delta-E=       -0.000000017769 Rises=F Damp=F
 DIIS: error= 1.77D-06 at cycle  12 NSaved=  12.
 NSaved=12 IEnMin=12 EnMin= -270.430933009639     IErMin=12 ErrMin= 1.77D-06
 ErrMax= 1.77D-06  0.00D+00 EMaxC= 1.00D-01 BMatC= 9.98D-10 BMatP= 1.41D-08
 IDIUse=1 WtCom= 1.00D+00 WtEn= 0.00D+00
 Coeff-Com: -0.147D-04 0.300D-04 0.366D-04 0.613D-05-0.902D-04 0.742D-03
 Coeff-Com: -0.227D-04-0.178D-03-0.576D-02 0.446D-01 0.377D+00 0.584D+00
 Coeff:     -0.147D-04 0.300D-04 0.366D-04 0.613D-05-0.902D-04 0.742D-03
 Coeff:     -0.227D-04-0.178D-03-0.576D-02 0.446D-01 0.377D+00 0.584D+00
 Gap=     0.072 Goal=   None    Shift=    0.000
 RMSDP=1.49D-06 MaxDP=3.82D-05 DE=-1.78D-08 OVMax= 1.54D-05

 Cycle  13  Pass 1  IDiag  1:
 RMSU=  4.31D-07    CP:  9.95D-01 -3.06D-02  8.74D-01  5.41D-01  8.47D-01
                    CP:  8.18D-01  8.34D-01  1.07D+00  1.07D+00  1.12D+00
                    CP:  1.07D+00  9.80D-01
 E= -270.430933010627     Delta-E=       -0.000000000988 Rises=F Damp=F
 DIIS: error= 3.33D-07 at cycle  13 NSaved=  13.
 NSaved=13 IEnMin=13 EnMin= -270.430933010627     IErMin=13 ErrMin= 3.33D-07
 ErrMax= 3.33D-07  0.00D+00 EMaxC= 1.00D-01 BMatC= 3.65D-11 BMatP= 9.98D-10
 IDIUse=1 WtCom= 1.00D+00 WtEn= 0.00D+00
 Coeff-Com:  0.260D-05 0.166D-07 0.795D-05 0.239D-05-0.220D-04 0.220D-04
 Coeff-Com: -0.246D-04-0.508D-04-0.140D-02 0.547D-02 0.450D-01 0.143D+00
 Coeff-Com:  0.808D+00
 Coeff:      0.260D-05 0.166D-07 0.795D-05 0.239D-05-0.220D-04 0.220D-04
 Coeff:     -0.246D-04-0.508D-04-0.140D-02 0.547D-02 0.450D-01 0.143D+00
 Coeff:      0.808D+00
 Gap=     0.072 Goal=   None    Shift=    0.000
 RMSDP=3.16D-07 MaxDP=7.87D-06 DE=-9.88D-10 OVMax= 3.42D-06

 Cycle  14  Pass 1  IDiag  1:
 RMSU=  7.50D-08    CP:  9.95D-01 -3.06D-02  8.74D-01  5.41D-01  8.47D-01
                    CP:  8.18D-01  8.34D-01  1.07D+00  1.07D+00  1.13D+00
                    CP:  1.09D+00  1.04D+00  9.92D-01
 E= -270.430933010663     Delta-E=       -0.000000000036 Rises=F Damp=F
 DIIS: error= 7.25D-08 at cycle  14 NSaved=  14.
 NSaved=14 IEnMin=14 EnMin= -270.430933010663     IErMin=14 ErrMin= 7.25D-08
 ErrMax= 7.25D-08  0.00D+00 EMaxC= 1.00D-01 BMatC= 1.71D-12 BMatP= 3.65D-11
 IDIUse=1 WtCom= 1.00D+00 WtEn= 0.00D+00
 Coeff-Com:  0.169D-05-0.176D-05 0.132D-05 0.729D-06-0.984D-06-0.431D-04
 Coeff-Com: -0.107D-04-0.953D-04-0.288D-03-0.753D-03-0.419D-02 0.164D-01
 Coeff-Com:  0.223D+00 0.766D+00
 Coeff:      0.169D-05-0.176D-05 0.132D-05 0.729D-06-0.984D-06-0.431D-04
 Coeff:     -0.107D-04-0.953D-04-0.288D-03-0.753D-03-0.419D-02 0.164D-01
 Coeff:      0.223D+00 0.766D+00
 Gap=     0.072 Goal=   None    Shift=    0.000
 RMSDP=6.92D-08 MaxDP=1.40D-06 DE=-3.59D-11 OVMax= 1.40D-06

 Cycle  15  Pass 1  IDiag  1:
 RMSU=  1.60D-08    CP:  9.95D-01 -3.06D-02  8.74D-01  5.41D-01  8.47D-01
                    CP:  8.18D-01  8.34D-01  1.07D+00  1.07D+00  1.13D+00
                    CP:  1.09D+00  1.06D+00  1.03D+00  1.05D+00
 E= -270.430933010668     Delta-E=       -0.000000000005 Rises=F Damp=F
 DIIS: error= 2.89D-08 at cycle  15 NSaved=  15.
 NSaved=15 IEnMin=15 EnMin= -270.430933010668     IErMin=15 ErrMin= 2.89D-08
 ErrMax= 2.89D-08  0.00D+00 EMaxC= 1.00D-01 BMatC= 3.35D-13 BMatP= 1.71D-12
 IDIUse=1 WtCom= 1.00D+00 WtEn= 0.00D+00
 Coeff-Com:  0.477D-06-0.733D-06-0.161D-06 0.616D-07 0.176D-05-0.217D-04
 Coeff-Com:  0.199D-05-0.246D-04 0.274D-04-0.103D-02-0.718D-02-0.599D-02
 Coeff-Com:  0.409D-01 0.405D+00 0.568D+00
 Coeff:      0.477D-06-0.733D-06-0.161D-06 0.616D-07 0.176D-05-0.217D-04
 Coeff:      0.199D-05-0.246D-04 0.274D-04-0.103D-02-0.718D-02-0.599D-02
 Coeff:      0.409D-01 0.405D+00 0.568D+00
 Gap=     0.072 Goal=   None    Shift=    0.000
 RMSDP=1.23D-08 MaxDP=2.74D-07 DE=-5.12D-12 OVMax= 3.60D-07

 Cycle  16  Pass 1  IDiag  1:
 RMSU=  5.42D-09    CP:  9.95D-01 -3.06D-02  8.74D-01  5.41D-01  8.47D-01
                    CP:  8.18D-01  8.34D-01  1.07D+00  1.07D+00  1.13D+00
                    CP:  1.09D+00  1.07D+00  1.04D+00  1.11D+00  9.42D-01
 E= -270.430933010671     Delta-E=       -0.000000000003 Rises=F Damp=F
 DIIS: error= 8.94D-09 at cycle  16 NSaved=  16.
 NSaved=16 IEnMin=16 EnMin= -270.430933010671     IErMin=16 ErrMin= 8.94D-09
 ErrMax= 8.94D-09  0.00D+00 EMaxC= 1.00D-01 BMatC= 1.57D-14 BMatP= 3.35D-13
 IDIUse=1 WtCom= 1.00D+00 WtEn= 0.00D+00
 Coeff-Com: -0.290D-07 0.175D-07-0.139D-06-0.344D-07 0.415D-06-0.106D-05
 Coeff-Com:  0.227D-05 0.400D-05 0.335D-04-0.156D-03-0.103D-02-0.222D-02
 Coeff-Com: -0.529D-02 0.276D-01 0.103D+00 0.878D+00
 Coeff:     -0.290D-07 0.175D-07-0.139D-06-0.344D-07 0.415D-06-0.106D-05
 Coeff:      0.227D-05 0.400D-05 0.335D-04-0.156D-03-0.103D-02-0.222D-02
 Coeff:     -0.529D-02 0.276D-01 0.103D+00 0.878D+00
 Gap=     0.072 Goal=   None    Shift=    0.000
 RMSDP=5.02D-09 MaxDP=1.20D-07 DE=-3.18D-12 OVMax= 1.63D-07

 SCF Done:  E(RB3LYP) =  -270.430933011     A.U. after   16 cycles
            NFock= 16  Conv=0.50D-08     -V/T= 2.0097
 KE= 2.678235780586D+02 PE=-1.104920270327D+03 EE= 3.282329511291D+02
 Leave Link  502 at Tue Oct 15 10:57:29 2019, MaxMem=   280000000 cpu:             116.4 elap:               4.9
 (Enter /home/soft/g16/l801.exe)
 DoSCS=F DFT=T ScalE2(SS,OS)=  1.000000  1.000000
 Range of M.O.s used for correlation:     1   130
 NBasis=   130 NAE=    23 NBE=    23 NFC=     0 NFV=     0
 NROrb=    130 NOA=    23 NOB=    23 NVA=   107 NVB=   107

 **** Warning!!: The largest alpha MO coefficient is  0.68203104D+02


 **** Warning!!: The smallest alpha delta epsilon is  0.71550269D-01

 Leave Link  801 at Tue Oct 15 10:57:29 2019, MaxMem=   280000000 cpu:               0.9 elap:               0.1
 (Enter /home/soft/g16/l1101.exe)
 Using compressed storage, NAtomX=    14.
 Will process     15 centers per pass.
 Leave Link 1101 at Tue Oct 15 10:57:30 2019, MaxMem=   280000000 cpu:               3.9 elap:               0.2
 (Enter /home/soft/g16/l1102.exe)
 Symmetrizing basis deriv contribution to polar:
 IMax=3 JMax=2 DiffMx= 0.00D+00
 Leave Link 1102 at Tue Oct 15 10:57:30 2019, MaxMem=   280000000 cpu:               1.2 elap:               0.1
 (Enter /home/soft/g16/l1110.exe)
 Forming Gx(P) for the SCF density, NAtomX=    14.
 Integral derivatives from FoFJK, PRISM(SPDF).
 Do as many integral derivatives as possible in FoFJK.
 G2DrvN: MDV=     279998856.
 G2DrvN: will do    15 centers at a time, making    1 passes.
 Calling FoFCou, ICntrl=  3107 FMM=F I1Cent=   0 AccDes= 0.00D+00.
 FoFJK:  IHMeth= 1 ICntrl=    3107 DoSepK=F KAlg= 0 I1Cent=           0 FoldK=F
 IRaf=         0 NMat=       1 IRICut=       1 DoRegI=T DoRafI=F ISym2E= 0 IDoP0=0 IntGTp=1.
 FoFCou: FMM=F IPFlag=           0 FMFlag=      100000 FMFlg1=           0
         NFxFlg=           0 DoJE=F BraDBF=F KetDBF=F FulRan=T
         wScrn=  0.000000 ICntrl=      3107 IOpCl=  0 I1Cent=           0 NGrid=           0
         NMat0=    1 NMatS0=      1 NMatT0=    0 NMatD0=    1 NMtDS0=    0 NMtDT0=    0
 Symmetry not used in FoFCou.
 End of G2Drv F.D. properties file   721 does not exist.
 End of G2Drv F.D. properties file   722 does not exist.
 End of G2Drv F.D. properties file   788 does not exist.
 Leave Link 1110 at Tue Oct 15 10:57:35 2019, MaxMem=   280000000 cpu:             135.7 elap:               5.7
 (Enter /home/soft/g16/l1002.exe)
 Minotr:  Closed shell wavefunction.
          IDoAtm=11111111111111
          Direct CPHF calculation.
          Differentiating once with respect to electric field.
                with respect to dipole field.
          Differentiating once with respect to nuclear coordinates.
          Requested convergence is 1.0D-08 RMS, and 1.0D-07 maximum.
          Secondary convergence is 1.0D-12 RMS, and 1.0D-12 maximum.
          NewPWx=T KeepS1=F KeepF1=F KeepIn=T MapXYZ=F SortEE=F KeepMc=T.
         4236 words used for storage of precomputed grid.
 Keep R1 ints in memory in canonical form, NReq=59094296.
 FoFCou: FMM=F IPFlag=           0 FMFlag=           0 FMFlg1=           0
         NFxFlg=           0 DoJE=F BraDBF=F KetDBF=F FulRan=T
         wScrn=  0.000000 ICntrl=       600 IOpCl=  0 I1Cent=           0 NGrid=           0
         NMat0=    1 NMatS0=   8515 NMatT0=    0 NMatD0=    1 NMtDS0=    0 NMtDT0=    0
 Symmetry not used in FoFCou.
 Two-electron integral symmetry not used.
          MDV=     280000000 using IRadAn=       1.
          Solving linear equations simultaneously, MaxMat=       0.
          There are    45 degrees of freedom in the 1st order CPHF.  IDoFFX=6 NUNeed=     3.
     42 vectors produced by pass  0 Test12= 5.47D-15 2.22D-09 XBig12= 8.60D+02 2.67D+01.
 AX will form    42 AO Fock derivatives at one time.
     42 vectors produced by pass  1 Test12= 5.47D-15 2.22D-09 XBig12= 2.23D+02 5.05D+00.
     42 vectors produced by pass  2 Test12= 5.47D-15 2.22D-09 XBig12= 2.06D+00 2.58D-01.
     42 vectors produced by pass  3 Test12= 5.47D-15 2.22D-09 XBig12= 5.57D-03 1.25D-02.
     42 vectors produced by pass  4 Test12= 5.47D-15 2.22D-09 XBig12= 6.04D-06 4.20D-04.
     33 vectors produced by pass  5 Test12= 5.47D-15 2.22D-09 XBig12= 4.39D-09 1.09D-05.
      3 vectors produced by pass  6 Test12= 5.47D-15 2.22D-09 XBig12= 3.44D-12 2.66D-07.
      2 vectors produced by pass  7 Test12= 5.47D-15 2.22D-09 XBig12= 2.45D-15 4.90D-09.
 InvSVY:  IOpt=1 It=  1 EMax= 4.26D-14
 Solved reduced A of dimension   248 with    45 vectors.
 FullF1:  Do perturbations      1 to       3.
 Isotropic polarizability for W=    0.000000       78.78 Bohr**3.
 End of Minotr F.D. properties file   721 does not exist.
 End of Minotr F.D. properties file   722 does not exist.
 End of Minotr F.D. properties file   788 does not exist.
 Leave Link 1002 at Tue Oct 15 10:57:43 2019, MaxMem=   280000000 cpu:             180.0 elap:               7.5
 (Enter /home/soft/g16/l601.exe)
 Copying SCF densities to generalized density rwf, IOpCl= 0 IROHF=0.

 **********************************************************************

            Population analysis using the SCF density.

 **********************************************************************

 Orbital symmetries:
       Occupied  (A) (A) (A) (A) (A) (A) (A) (A) (A) (A) (A) (A)
                 (A) (A) (A) (A) (A) (A) (A) (A) (A) (A) (A)
       Virtual   (A) (A) (A) (A) (A) (A) (A) (A) (A) (A) (A) (A)
                 (A) (A) (A) (A) (A) (A) (A) (A) (A) (A) (A) (A)
                 (A) (A) (A) (A) (A) (A) (A) (A) (A) (A) (A) (A)
                 (A) (A) (A) (A) (A) (A) (A) (A) (A) (A) (A) (A)
                 (A) (A) (A) (A) (A) (A) (A) (A) (A) (A) (A) (A)
                 (A) (A) (A) (A) (A) (A) (A) (A) (A) (A) (A) (A)
                 (A) (A) (A) (A) (A) (A) (A) (A) (A) (A) (A) (A)
                 (A) (A) (A) (A) (A) (A) (A) (A) (A) (A) (A) (A)
                 (A) (A) (A) (A) (A) (A) (A) (A) (A) (A) (A)
 The electronic state is 1-A.
 Alpha  occ. eigenvalues --  -19.21493 -10.25979 -10.25217 -10.20585 -10.19558
 Alpha  occ. eigenvalues --  -10.17121  -1.09474  -0.80301  -0.77682  -0.66634
 Alpha  occ. eigenvalues --   -0.63968  -0.53711  -0.50801  -0.48559  -0.48212
 Alpha  occ. eigenvalues --   -0.44167  -0.41281  -0.40833  -0.37847  -0.35249
 Alpha  occ. eigenvalues --   -0.34281  -0.31290  -0.14604
 Alpha virt. eigenvalues --   -0.07449   0.00427   0.02439   0.02708   0.03395
 Alpha virt. eigenvalues --    0.04501   0.05173   0.06382   0.06892   0.07978
 Alpha virt. eigenvalues --    0.08837   0.09903   0.11433   0.11887   0.12616
 Alpha virt. eigenvalues --    0.13406   0.13829   0.14747   0.15482   0.17016
 Alpha virt. eigenvalues --    0.18748   0.19594   0.20294   0.22008   0.22393
 Alpha virt. eigenvalues --    0.24501   0.24798   0.26360   0.28241   0.29235
 Alpha virt. eigenvalues --    0.29728   0.31157   0.32369   0.33096   0.35523
 Alpha virt. eigenvalues --    0.37156   0.38537   0.39358   0.43164   0.62327
 Alpha virt. eigenvalues --    0.65128   0.65363   0.66257   0.67696   0.69486
 Alpha virt. eigenvalues --    0.71546   0.72034   0.73162   0.75681   0.76792
 Alpha virt. eigenvalues --    0.77128   0.85075   0.91766   0.93850   0.94843
 Alpha virt. eigenvalues --    0.97686   0.99543   1.01518   1.05779   1.06382
 Alpha virt. eigenvalues --    1.10097   1.12762   1.14957   1.16448   1.23555
 Alpha virt. eigenvalues --    1.30214   1.31804   1.32544   1.41226   1.43177
 Alpha virt. eigenvalues --    1.48190   1.51291   1.57442   1.66720   1.69133
 Alpha virt. eigenvalues --    1.74205   1.80188   1.81377   1.88671   1.90671
 Alpha virt. eigenvalues --    1.95030   1.99740   2.00240   2.08053   2.10538
 Alpha virt. eigenvalues --    2.14794   2.22611   2.25021   2.29718   2.33125
 Alpha virt. eigenvalues --    2.39208   2.39635   2.44746   2.49514   2.61095
 Alpha virt. eigenvalues --    2.62132   2.70003   2.73119   2.79203   2.98475
 Alpha virt. eigenvalues --    3.03382   4.17911   4.23808   4.26262   4.41320
 Alpha virt. eigenvalues --    4.44999   4.61035
          Condensed to atoms (all electrons):
               1          2          3          4          5          6
     1  C    6.430732   0.328566   0.439750  -0.509502  -0.047493  -0.055984
     2  H    0.328566   0.520601  -0.040292   0.040703  -0.003202  -0.011893
     3  H    0.439750  -0.040292   0.527732  -0.113682   0.007562   0.005562
     4  C   -0.509502   0.040703  -0.113682   6.445728   0.160427  -0.271867
     5  O   -0.047493  -0.003202   0.007562   0.160427   8.199804   0.104847
     6  C   -0.055984  -0.011893   0.005562  -0.271867   0.104847   5.837194
     7  H    0.027780  -0.000225   0.000040  -0.063547  -0.042464   0.495063
     8  H   -0.044973   0.001663  -0.000051   0.058744  -0.037186   0.372534
     9  C    0.352401  -0.073947   0.046897  -0.465103  -0.058754  -0.014764
    10  H    0.011113  -0.000092  -0.000103  -0.005667   0.008211  -0.019593
    11  C   -0.415965   0.001896  -0.072284   0.454713  -0.012322  -0.025048
    12  H    0.014174   0.000786  -0.002225  -0.112374   0.004883   0.006439
    13  H   -0.083553   0.002059  -0.001526   0.073505  -0.000297  -0.017200
    14  H   -0.082325   0.001663  -0.002077   0.400638  -0.063021   0.030981
               7          8          9         10         11         12
     1  C    0.027780  -0.044973   0.352401   0.011113  -0.415965   0.014174
     2  H   -0.000225   0.001663  -0.073947  -0.000092   0.001896   0.000786
     3  H    0.000040  -0.000051   0.046897  -0.000103  -0.072284  -0.002225
     4  C   -0.063547   0.058744  -0.465103  -0.005667   0.454713  -0.112374
     5  O   -0.042464  -0.037186  -0.058754   0.008211  -0.012322   0.004883
     6  C    0.495063   0.372534  -0.014764  -0.019593  -0.025048   0.006439
     7  H    0.525735  -0.047476  -0.091676   0.000659  -0.033886   0.000097
     8  H   -0.047476   0.552602  -0.116744  -0.003210   0.053410  -0.000193
     9  C   -0.091676  -0.116744   6.825468   0.366251  -0.754388   0.049439
    10  H    0.000659  -0.003210   0.366251   0.534624  -0.056989   0.001272
    11  C   -0.033886   0.053410  -0.754388  -0.056989   6.681762   0.320719
    12  H    0.000097  -0.000193   0.049439   0.001272   0.320719   0.545226
    13  H   -0.000202   0.000464  -0.219998  -0.006047   0.540806  -0.052488
    14  H    0.000042  -0.000300  -0.020804   0.000010   0.024811   0.000033
              13         14
     1  C   -0.083553  -0.082325
     2  H    0.002059   0.001663
     3  H   -0.001526  -0.002077
     4  C    0.073505   0.400638
     5  O   -0.000297  -0.063021
     6  C   -0.017200   0.030981
     7  H   -0.000202   0.000042
     8  H    0.000464  -0.000300
     9  C   -0.219998  -0.020804
    10  H   -0.006047   0.000010
    11  C    0.540806   0.024811
    12  H   -0.052488   0.000033
    13  H    0.580281  -0.000122
    14  H   -0.000122   0.519526
 Mulliken charges:
               1
     1  C   -0.364722
     2  H    0.231713
     3  H    0.204696
     4  C   -0.092717
     5  O   -0.220993
     6  C   -0.436271
     7  H    0.230061
     8  H    0.210715
     9  C    0.175719
    10  H    0.169560
    11  C   -0.707236
    12  H    0.224213
    13  H    0.184317
    14  H    0.190944
 Sum of Mulliken charges =  -0.00000
 Mulliken charges with hydrogens summed into heavy atoms:
               1
     1  C    0.071688
     4  C    0.098227
     5  O   -0.220993
     6  C    0.004504
     9  C    0.345279
    11  C   -0.298705
 APT charges:
               1
     1  C   -0.004498
     2  H    0.001053
     3  H   -0.011989
     4  C    0.174599
     5  O   -0.328849
     6  C    0.175071
     7  H    0.067771
     8  H    0.023756
     9  C   -0.320841
    10  H    0.041209
    11  C    0.205221
    12  H   -0.012673
    13  H   -0.058351
    14  H    0.048522
 Sum of APT charges =   0.00000
 APT charges with hydrogens summed into heavy atoms:
               1
     1  C   -0.015434
     4  C    0.223121
     5  O   -0.328849
     6  C    0.266598
     9  C   -0.279633
    11  C    0.134197
 Electronic spatial extent (au):  <R**2>=            521.8178
 Charge=             -0.0000 electrons
 Dipole moment (field-independent basis, Debye):
    X=              0.4008    Y=             -0.6474    Z=              0.9069  Tot=              1.1841
 Quadrupole moment (field-independent basis, Debye-Ang):
   XX=            -37.1674   YY=            -37.1808   ZZ=            -39.3658
   XY=             -2.9834   XZ=             -0.0940   YZ=              2.1417
 Traceless Quadrupole moment (field-independent basis, Debye-Ang):
   XX=              0.7373   YY=              0.7239   ZZ=             -1.4612
   XY=             -2.9834   XZ=             -0.0940   YZ=              2.1417
 Octapole moment (field-independent basis, Debye-Ang**2):
  XXX=             -5.5220  YYY=            -11.0383  ZZZ=              5.2793  XYY=             -2.6536
  XXY=              2.8256  XXZ=             -1.3089  XZZ=             -2.1544  YZZ=             -3.4617
  YYZ=              1.5842  XYZ=             -0.3037
 Hexadecapole moment (field-independent basis, Debye-Ang**3):
 XXXX=           -340.0234 YYYY=           -306.7866 ZZZZ=            -81.7177 XXXY=             -9.5695
 XXXZ=             -0.8661 YYYX=              2.4129 YYYZ=             15.6721 ZZZX=             -1.3911
 ZZZY=              3.3542 XXYY=           -107.0511 XXZZ=            -66.6073 YYZZ=            -72.0126
 XXYZ=              1.2389 YYXZ=              0.5028 ZZXY=             -0.8862
 N-N= 2.384328081285D+02 E-N=-1.104920270860D+03  KE= 2.678235780586D+02
  Exact polarizability:  71.558  -0.144 108.757   1.211  -2.069  56.015
 Approx polarizability: 102.057  20.863 344.521   0.150  -7.273  79.690
 No NMR shielding tensors so no spin-rotation constants.
 Leave Link  601 at Tue Oct 15 10:57:43 2019, MaxMem=   280000000 cpu:               3.3 elap:               0.2
 (Enter /home/soft/g16/l701.exe)
 ... and contract with generalized density number  0.
 Compute integral second derivatives.
 Leave Link  701 at Tue Oct 15 10:57:43 2019, MaxMem=   280000000 cpu:               4.1 elap:               0.2
 (Enter /home/soft/g16/l702.exe)
 L702 exits ... SP integral derivatives will be done elsewhere.
 Leave Link  702 at Tue Oct 15 10:57:43 2019, MaxMem=   280000000 cpu:               0.5 elap:               0.0
 (Enter /home/soft/g16/l703.exe)
 Integral derivatives from FoFJK, PRISM(SPDF).
 Compute integral second derivatives, UseDBF=F ICtDFT=           0.
 Calling FoFJK, ICntrl=    100127 FMM=F ISym2X=0 I1Cent= 0 IOpClX= 0 NMat=1 NMatS=1 NMatT=0.
 FoFJK:  IHMeth= 1 ICntrl=  100127 DoSepK=F KAlg= 0 I1Cent=           0 FoldK=F
 IRaf=         0 NMat=       1 IRICut=       1 DoRegI=T DoRafI=F ISym2E= 0 IDoP0=0 IntGTp=1.
 FoFCou: FMM=F IPFlag=           0 FMFlag=      100000 FMFlg1=         800
         NFxFlg=           0 DoJE=F BraDBF=F KetDBF=F FulRan=T
         wScrn=  0.000000 ICntrl=    100127 IOpCl=  0 I1Cent=           0 NGrid=           0
         NMat0=    1 NMatS0=      1 NMatT0=    0 NMatD0=    1 NMtDS0=    0 NMtDT0=    0
 Symmetry not used in FoFCou.
 Leave Link  703 at Tue Oct 15 10:57:51 2019, MaxMem=   280000000 cpu:             187.3 elap:               7.8
 (Enter /home/soft/g16/l716.exe)
 Dipole        = 1.57671376D-01-2.54705038D-01 3.56804019D-01
 Polarizability= 7.15577702D+01-1.44108802D-01 1.08757241D+02
                 1.21065203D+00-2.06936727D+00 5.60148187D+01
 ***** Axes restored to original set *****
 -------------------------------------------------------------------
 Center     Atomic                   Forces (Hartrees/Bohr)
 Number     Number              X              Y              Z
 -------------------------------------------------------------------
      1        6           0.000029977   -0.000025999    0.000013784
      2        1           0.000025323   -0.000004520    0.000014752
      3        1          -0.000004610   -0.000005786    0.000003789
      4        6          -0.000086873   -0.000122536   -0.000091365
      5        8           0.000060721    0.000102661    0.000032026
      6        6          -0.000123105    0.000086767   -0.000025063
      7        1          -0.000023345    0.000005856   -0.000010954
      8        1           0.000012470    0.000000698    0.000001156
      9        6           0.000100739   -0.000085822    0.000044699
     10        1           0.000043944   -0.000027177   -0.000032446
     11        6          -0.000005488    0.000063783    0.000014377
     12        1           0.000006982    0.000018148    0.000003508
     13        1          -0.000011827   -0.000021405   -0.000002488
     14        1          -0.000024908    0.000015331    0.000034225
 -------------------------------------------------------------------
 Cartesian Forces:  Max     0.000123105 RMS     0.000049666
 FormGI is forming the generalized inverse of G from B-inverse, IUseBI=4.
 Leave Link  716 at Tue Oct 15 10:57:51 2019, MaxMem=   280000000 cpu:               1.7 elap:               0.1
 (Enter /home/soft/g16/l103.exe)

 GradGradGradGradGradGradGradGradGradGradGradGradGradGradGradGradGradGrad
 Berny optimization.
 Red2BG is reusing G-inverse.
 Internal  Forces:  Max     0.000161016 RMS     0.000029065
 Search for a saddle point.
 Step number   1 out of a maximum of   81
 All quantities printed in internal units (Hartrees-Bohrs-Radians)
 Swapping is turned off.
 Second derivative matrix not updated -- analytic derivatives used.
 ITU=  0
     Eigenvalues ---   -0.00442   0.00204   0.00482   0.00750   0.01167
     Eigenvalues ---    0.03303   0.03747   0.04480   0.04915   0.05352
     Eigenvalues ---    0.05591   0.06509   0.07379   0.07416   0.08602
     Eigenvalues ---    0.09710   0.10518   0.11538   0.12908   0.18293
     Eigenvalues ---    0.20658   0.22085   0.23995   0.27888   0.29500
     Eigenvalues ---    0.30031   0.30871   0.31226   0.31741   0.32895
     Eigenvalues ---    0.33570   0.33918   0.34977   0.35458   0.36397
     Eigenvalues ---    0.45279
 Eigenvectors required to have negative eigenvalues:
                          D24       D22       D27       D26       D28
   1                   -0.31875  -0.31560   0.29942  -0.29849   0.28479
                          D29       D23       D21       D25       D30
   1                    0.26635  -0.24536  -0.24222  -0.22510   0.22001
 RFO step:  Lambda0=9.258068821D-08 Lambda=-6.05377366D-07.
 Linear search not attempted -- option 19 set.
 Iteration  1 RMS(Cart)=  0.00141340 RMS(Int)=  0.00000146
 Iteration  2 RMS(Cart)=  0.00000176 RMS(Int)=  0.00000050
 Iteration  3 RMS(Cart)=  0.00000000 RMS(Int)=  0.00000050
 ITry= 1 IFail=0 DXMaxC= 4.33D-03 DCOld= 1.00D+10 DXMaxT= 3.00D-01 DXLimC= 3.00D+00 Rises=F
 Variable       Old X    -DE/DX   Delta X   Delta X   Delta X     New X
                                 (Linear)    (Quad)   (Total)
    R1        2.08443  -0.00001   0.00000  -0.00003  -0.00003   2.08440
    R2        2.07065   0.00001   0.00000  -0.00001  -0.00001   2.07064
    R3        2.77681  -0.00005   0.00000  -0.00025  -0.00025   2.77656
    R4        2.96713   0.00005   0.00000   0.00043   0.00043   2.96756
    R5        2.51131   0.00010   0.00000   0.00020   0.00020   2.51151
    R6        2.05175  -0.00001   0.00000  -0.00006  -0.00006   2.05170
    R7        2.71743  -0.00001   0.00000  -0.00025  -0.00025   2.71718
    R8        2.07587  -0.00002   0.00000  -0.00007  -0.00007   2.07580
    R9        2.08947   0.00000   0.00000   0.00010   0.00010   2.08957
   R10        2.79054  -0.00016   0.00000  -0.00027  -0.00028   2.79027
   R11        2.05876  -0.00002   0.00000   0.00002   0.00002   2.05879
   R12        2.79912   0.00000   0.00000   0.00000   0.00000   2.79913
   R13        2.07587   0.00000   0.00000  -0.00006  -0.00006   2.07581
   R14        2.09144  -0.00000   0.00000   0.00003   0.00003   2.09146
    A1        1.85616   0.00000   0.00000   0.00015   0.00015   1.85631
    A2        1.95025  -0.00001   0.00000  -0.00029  -0.00029   1.94996
    A3        1.85829   0.00000   0.00000  -0.00019  -0.00019   1.85810
    A4        1.89981  -0.00000   0.00000   0.00017   0.00017   1.89999
    A5        1.95584   0.00001   0.00000   0.00012   0.00012   1.95596
    A6        1.94205  -0.00000   0.00000   0.00003   0.00003   1.94208
    A7        2.15131  -0.00003   0.00000  -0.00019  -0.00019   2.15112
    A8        2.14372   0.00000   0.00000   0.00025   0.00025   2.14397
    A9        1.96110   0.00004   0.00000   0.00024   0.00024   1.96134
   A10        2.03215   0.00001   0.00000  -0.00004  -0.00004   2.03211
   A11        1.77537   0.00001   0.00000   0.00032   0.00032   1.77569
   A12        1.83125  -0.00000   0.00000  -0.00008  -0.00008   1.83117
   A13        2.05244   0.00000   0.00000   0.00006   0.00006   2.05250
   A14        1.84835  -0.00000   0.00000  -0.00010  -0.00010   1.84826
   A15        1.97530  -0.00002   0.00000  -0.00036  -0.00036   1.97493
   A16        1.96014   0.00001   0.00000   0.00017   0.00017   1.96030
   A17        1.95676  -0.00007   0.00000  -0.00093  -0.00093   1.95583
   A18        2.17500   0.00004   0.00000  -0.00026  -0.00027   2.17473
   A19        2.04457   0.00002   0.00000  -0.00008  -0.00008   2.04449
   A20        1.91440  -0.00002   0.00000  -0.00036  -0.00036   1.91404
   A21        1.82887   0.00002   0.00000  -0.00000  -0.00000   1.82887
   A22        1.93715  -0.00001   0.00000  -0.00012  -0.00012   1.93702
   A23        1.99306  -0.00000   0.00000  -0.00015  -0.00015   1.99291
   A24        1.94959   0.00002   0.00000   0.00050   0.00050   1.95009
   A25        1.83646  -0.00000   0.00000   0.00012   0.00012   1.83658
    D1        1.17720   0.00003   0.00000  -0.00076  -0.00076   1.17645
    D2       -1.69748  -0.00002   0.00000  -0.00226  -0.00226  -1.69975
    D3       -3.06124   0.00003   0.00000  -0.00063  -0.00063  -3.06187
    D4        0.34726  -0.00002   0.00000  -0.00214  -0.00214   0.34512
    D5       -0.89748   0.00003   0.00000  -0.00034  -0.00034  -0.89782
    D6        2.51102  -0.00001   0.00000  -0.00185  -0.00185   2.50917
    D7       -1.55715   0.00002   0.00000   0.00097   0.00097  -1.55618
    D8        2.57929   0.00001   0.00000   0.00135   0.00135   2.58064
    D9        0.60556   0.00001   0.00000   0.00127   0.00127   0.60683
   D10        2.70344   0.00001   0.00000   0.00084   0.00084   2.70429
   D11        0.55670   0.00000   0.00000   0.00122   0.00122   0.55792
   D12       -1.41703   0.00000   0.00000   0.00114   0.00114  -1.41589
   D13        0.57180   0.00001   0.00000   0.00051   0.00051   0.57231
   D14       -1.57494   0.00001   0.00000   0.00089   0.00089  -1.57405
   D15        2.73451   0.00001   0.00000   0.00081   0.00081   2.73532
   D16        0.56619  -0.00002   0.00000  -0.00200  -0.00200   0.56420
   D17       -2.81741   0.00001   0.00000  -0.00062  -0.00062  -2.81803
   D18        2.20174  -0.00000   0.00000   0.00371   0.00371   2.20545
   D19       -2.15851  -0.00000   0.00000   0.00370   0.00370  -2.15482
   D20        0.03416   0.00002   0.00000   0.00390   0.00390   0.03805
   D21       -2.89876  -0.00000   0.00000  -0.00119  -0.00119  -2.89995
   D22       -0.25433  -0.00000   0.00000  -0.00399  -0.00399  -0.25832
   D23        1.32080   0.00000   0.00000  -0.00137  -0.00137   1.31943
   D24       -2.31796  -0.00000   0.00000  -0.00417  -0.00417  -2.32213
   D25       -0.77108   0.00001   0.00000  -0.00111  -0.00111  -0.77219
   D26        1.87334   0.00001   0.00000  -0.00390  -0.00390   1.86944
   D27       -0.07898   0.00000   0.00000   0.00168   0.00168  -0.07730
   D28        1.96747   0.00002   0.00000   0.00134   0.00134   1.96881
   D29       -2.23440   0.00002   0.00000   0.00175   0.00175  -2.23265
   D30        2.54299  -0.00002   0.00000  -0.00146  -0.00146   2.54153
   D31       -1.69374  -0.00001   0.00000  -0.00180  -0.00181  -1.69554
   D32        0.38757  -0.00000   0.00000  -0.00139  -0.00139   0.38618
         Item               Value     Threshold  Converged?
 Maximum Force            0.000161     0.000450     YES
 RMS     Force            0.000029     0.000300     YES
 Maximum Displacement     0.004334     0.001800     NO 
 RMS     Displacement     0.001414     0.001200     NO 
 Predicted change in Energy=-2.563974D-07
 Lowest energy point so far.  Saving SCF results.
 GradGradGradGradGradGradGradGradGradGradGradGradGradGradGradGradGradGrad

 Leave Link  103 at Tue Oct 15 10:57:51 2019, MaxMem=   280000000 cpu:               0.7 elap:               0.1
 (Enter /home/soft/g16/l202.exe)
                          Input orientation:                          
 ---------------------------------------------------------------------
 Center     Atomic      Atomic             Coordinates (Angstroms)
 Number     Number       Type             X           Y           Z
 ---------------------------------------------------------------------
      1          6           0       -1.134954   -0.844264   -0.261635
      2          1           0       -1.210850   -0.889217   -1.361121
      3          1           0       -1.914993   -1.507317    0.128928
      4          6           0        0.172435   -1.317755    0.213079
      5          8           0        1.309984   -0.670970   -0.019266
      6          6           0        1.227636    0.762663   -0.092605
      7          1           0        1.987057    1.067919    0.640009
      8          1           0        1.642425    1.021261   -1.084455
      9          6           0       -0.090288    1.385132    0.143619
     10          1           0       -0.110781    2.429655   -0.165389
     11          6           0       -1.378561    0.654110    0.140336
     12          1           0       -1.870520    0.604798    1.121247
     13          1           0       -2.117875    1.129673   -0.532094
     14          1           0        0.337810   -2.329351    0.570979
 ---------------------------------------------------------------------
                    Distance matrix (angstroms):
                    1          2          3          4          5
     1  C    0.000000
     2  H    1.103019   0.000000
     3  H    1.095737   1.760145   0.000000
     4  C    1.469290   2.138978   2.097707   0.000000
     5  O    2.463026   2.864055   3.334954   1.329034   0.000000
     6  C    2.862275   3.206876   3.883040   2.352665   1.437868
     7  H    3.770459   4.249883   4.703088   3.027633   1.979092
     8  H    3.445439   3.444945   4.530036   3.052124   2.027015
     9  C    2.495149   2.948316   3.419946   2.716515   2.492960
    10  H    3.431726   3.695245   4.340685   3.777106   3.413767
    11  C    1.570367   2.159713   2.227029   2.509808   3.001598
    12  H    2.133823   2.971430   2.334031   2.948669   3.611643
    13  H    2.221646   2.363450   2.726138   3.433760   3.905833
    14  H    2.251169   2.864497   2.438498   1.085710   2.010905
                    6          7          8          9         10
     6  C    0.000000
     7  H    1.098464   0.000000
     8  H    1.105753   1.759183   0.000000
     9  C    1.476547   2.159256   2.154730   0.000000
    10  H    2.139046   2.627530   2.429400   1.089464   0.000000
    11  C    2.618837   3.427578   3.280437   1.481233   2.203019
    12  H    3.331205   3.914967   4.168854   2.175754   2.842924
    13  H    3.394155   4.269438   3.802198   2.152431   2.419267
    14  H    3.285222   3.777065   3.958419   3.763415   4.836487
                   11         12         13         14
    11  C    0.000000
    12  H    1.098472   0.000000
    13  H    1.106756   1.752203   0.000000
    14  H    3.468779   3.713320   4.383151   0.000000
 Stoichiometry    C5H8O
 Framework group  C1[X(C5H8O)]
 Deg. of freedom    36
 Full point group                 C1      NOp   1
 RotChk:  IX=0 Diff= 1.15D-03
 Largest Abelian subgroup         C1      NOp   1
 Largest concise Abelian subgroup C1      NOp   1
                         Standard orientation:                         
 ---------------------------------------------------------------------
 Center     Atomic      Atomic             Coordinates (Angstroms)
 Number     Number       Type             X           Y           Z
 ---------------------------------------------------------------------
      1          6           0        1.134344   -0.845141    0.261807
      2          1           0        1.210444   -0.890194    1.361274
      3          1           0        1.913778   -1.508789   -0.128951
      4          6           0       -0.173519   -1.317590   -0.212639
      5          8           0       -1.310511   -0.669922    0.019977
      6          6           0       -1.227023    0.763644    0.093352
      7          1           0       -1.986364    1.069522   -0.639085
      8          1           0       -1.641393    1.022528    1.085302
      9          6           0        0.091336    1.385089   -0.143136
     10          1           0        0.112715    2.429583    0.165907
     11          6           0        1.379037    0.653058   -0.140161
     12          1           0        1.870744    0.603397   -1.121181
     13          1           0        2.118870    1.128016    0.532126
     14          1           0       -0.339765   -2.329042   -0.570541
 ---------------------------------------------------------------------
 Rotational constants (GHZ):           5.2235713           4.5059922           2.6017186
 Leave Link  202 at Tue Oct 15 10:57:52 2019, MaxMem=   280000000 cpu:               0.8 elap:               0.1
 (Enter /home/soft/g16/l301.exe)
 Standard basis: 6-31+G(d) (6D, 7F)
 Ernie: Thresh=  0.10000D-02 Tol=  0.10000D-05 Strict=F.
 There are   130 symmetry adapted cartesian basis functions of A   symmetry.
 There are   130 symmetry adapted basis functions of A   symmetry.
   130 basis functions,   224 primitive gaussians,   130 cartesian basis functions
    23 alpha electrons       23 beta electrons
       nuclear repulsion energy       238.4421377280 Hartrees.
 IExCor=  402 DFT=T Ex+Corr=B3LYP ExCW=0 ScaHFX=  0.200000
 ScaDFX=  0.800000  0.720000  1.000000  0.810000 ScalE2=  1.000000  1.000000
 IRadAn=      5 IRanWt=     -1 IRanGd=            0 ICorTp=0 IEmpDi=  4
 NAtoms=   14 NActive=   14 NUniq=   14 SFac= 1.00D+00 NAtFMM=   60 NAOKFM=F Big=F
 Integral buffers will be    131072 words long.
 Raffenetti 2 integral format.
 Two-electron integral symmetry is turned on.
 Leave Link  301 at Tue Oct 15 10:57:52 2019, MaxMem=   280000000 cpu:               1.5 elap:               0.1
 (Enter /home/soft/g16/l302.exe)
 NPDir=0 NMtPBC=     1 NCelOv=     1 NCel=       1 NClECP=     1 NCelD=      1
         NCelK=      1 NCelE2=     1 NClLst=     1 CellRange=     0.0.
 One-electron integrals computed using PRISM.
 One-electron integral symmetry used in STVInt
 NBasis=   130 RedAO= T EigKep=  4.02D-05  NBF=   130
 NBsUse=   130 1.00D-06 EigRej= -1.00D+00 NBFU=   130
 Precomputing XC quadrature grid using
 IXCGrd= 4 IRadAn=           5 IRanWt=          -1 IRanGd=           0 AccXCQ= 0.00D+00.
 Generated NRdTot=       0 NPtTot=           0 NUsed=           0 NTot=          32
 NSgBfM=   130   130   130   130   130 MxSgAt=    14 MxSgA2=    14.
 Leave Link  302 at Tue Oct 15 10:57:52 2019, MaxMem=   280000000 cpu:               3.7 elap:               0.2
 (Enter /home/soft/g16/l303.exe)
 DipDrv:  MaxL=1.
 Leave Link  303 at Tue Oct 15 10:57:52 2019, MaxMem=   280000000 cpu:               0.5 elap:               0.0
 (Enter /home/soft/g16/l401.exe)
 Initial guess from the checkpoint file:  "tsb2.chk"
 B after Tr=    -0.000000    0.000000   -0.000000
         Rot=    1.000000    0.000001   -0.000001    0.000391 Ang=   0.04 deg.
 Guess basis will be translated and rotated to current coordinates.
 JPrj=2 DoOrth=T DoCkMO=T.
 Leave Link  401 at Tue Oct 15 10:57:52 2019, MaxMem=   280000000 cpu:               2.8 elap:               0.2
 (Enter /home/soft/g16/l502.exe)
 Integral symmetry usage will be decided dynamically.
 Closed shell SCF:
 Using DIIS extrapolation, IDIIS=  1040.
 NGot=   280000000 LenX=   279961518 LenY=   279944177
 Requested convergence on RMS density matrix=1.00D-08 within 128 cycles.
 Requested convergence on MAX density matrix=1.00D-06.
 Requested convergence on             energy=1.00D-06.
 No special actions if energy rises.
 Fock matrices will be formed incrementally for  20 cycles.

 Cycle   1  Pass 1  IDiag  1:
 FoFJK:  IHMeth= 1 ICntrl=       0 DoSepK=F KAlg= 0 I1Cent=           0 FoldK=F
 IRaf= 990000000 NMat=       1 IRICut=       1 DoRegI=T DoRafI=F ISym2E= 0 IDoP0=0 IntGTp=1.
 FoFCou: FMM=F IPFlag=           0 FMFlag=      100000 FMFlg1=           0
         NFxFlg=           0 DoJE=F BraDBF=F KetDBF=F FulRan=T
         wScrn=  0.000000 ICntrl=         0 IOpCl=  0 I1Cent=           0 NGrid=           0
         NMat0=    1 NMatS0=      1 NMatT0=    0 NMatD0=    1 NMtDS0=    0 NMtDT0=    0
 Symmetry not used in FoFCou.
 E= -270.430929249785    
 DIIS: error= 8.96D-05 at cycle   1 NSaved=   1.
 NSaved= 1 IEnMin= 1 EnMin= -270.430929249785     IErMin= 1 ErrMin= 8.96D-05
 ErrMax= 8.96D-05  0.00D+00 EMaxC= 1.00D-01 BMatC= 1.95D-06 BMatP= 1.95D-06
 IDIUse=1 WtCom= 1.00D+00 WtEn= 0.00D+00
 Coeff-Com:  0.100D+01
 Coeff:      0.100D+01
 Gap=     0.451 Goal=   None    Shift=    0.000
 RMSDP=7.01D-05 MaxDP=1.79D-03              OVMax= 8.58D-04

 Cycle   2  Pass 1  IDiag  1:
 RMSU=  6.93D-05    CP:  1.00D+00
 E= -270.430933144039     Delta-E=       -0.000003894254 Rises=F Damp=F
 DIIS: error= 1.62D-05 at cycle   2 NSaved=   2.
 NSaved= 2 IEnMin= 2 EnMin= -270.430933144039     IErMin= 2 ErrMin= 1.62D-05
 ErrMax= 1.62D-05  0.00D+00 EMaxC= 1.00D-01 BMatC= 8.33D-08 BMatP= 1.95D-06
 IDIUse=1 WtCom= 1.00D+00 WtEn= 0.00D+00
 Coeff-Com: -0.299D-01 0.103D+01
 Coeff:     -0.299D-01 0.103D+01
 Gap=     0.072 Goal=   None    Shift=    0.000
 RMSDP=5.64D-05 MaxDP=1.68D-03 DE=-3.89D-06 OVMax= 1.63D-03

 Cycle   3  Pass 1  IDiag  1:
 RMSU=  5.20D-05    CP:  9.99D-01  1.23D+00
 E= -270.430930887860     Delta-E=        0.000002256179 Rises=F Damp=F
 DIIS: error= 9.19D-05 at cycle   3 NSaved=   3.
 NSaved= 3 IEnMin= 2 EnMin= -270.430933144039     IErMin= 2 ErrMin= 1.62D-05
 ErrMax= 9.19D-05  0.00D+00 EMaxC= 1.00D-01 BMatC= 1.84D-06 BMatP= 8.33D-08
 IDIUse=1 WtCom= 1.00D+00 WtEn= 0.00D+00
 Coeff-Com: -0.560D-01 0.893D+00 0.163D+00
 Coeff:     -0.560D-01 0.893D+00 0.163D+00
 Gap=     0.072 Goal=   None    Shift=    0.000
 RMSDP=3.27D-05 MaxDP=6.49D-04 DE= 2.26D-06 OVMax= 1.46D-03

 Cycle   4  Pass 1  IDiag  1:
 RMSU=  1.40D-05    CP:  9.99D-01  1.18D+00  4.37D-01
 E= -270.430933259440     Delta-E=       -0.000002371580 Rises=F Damp=F
 DIIS: error= 7.06D-06 at cycle   4 NSaved=   4.
 NSaved= 4 IEnMin= 4 EnMin= -270.430933259440     IErMin= 4 ErrMin= 7.06D-06
 ErrMax= 7.06D-06  0.00D+00 EMaxC= 1.00D-01 BMatC= 1.17D-08 BMatP= 8.33D-08
 IDIUse=1 WtCom= 1.00D+00 WtEn= 0.00D+00
 Coeff-Com: -0.294D-01 0.346D+00 0.899D-01 0.593D+00
 Coeff:     -0.294D-01 0.346D+00 0.899D-01 0.593D+00
 Gap=     0.072 Goal=   None    Shift=    0.000
 RMSDP=7.87D-06 MaxDP=3.26D-04 DE=-2.37D-06 OVMax= 9.12D-05

 Cycle   5  Pass 1  IDiag  1:
 RMSU=  2.15D-06    CP:  9.99D-01  1.15D+00  3.59D-01  6.16D-01
 E= -270.430933271566     Delta-E=       -0.000000012125 Rises=F Damp=F
 DIIS: error= 1.93D-06 at cycle   5 NSaved=   5.
 NSaved= 5 IEnMin= 5 EnMin= -270.430933271566     IErMin= 5 ErrMin= 1.93D-06
 ErrMax= 1.93D-06  0.00D+00 EMaxC= 1.00D-01 BMatC= 1.23D-09 BMatP= 1.17D-08
 IDIUse=1 WtCom= 1.00D+00 WtEn= 0.00D+00
 Coeff-Com: -0.992D-02 0.105D+00 0.300D-01 0.306D+00 0.569D+00
 Coeff:     -0.992D-02 0.105D+00 0.300D-01 0.306D+00 0.569D+00
 Gap=     0.072 Goal=   None    Shift=    0.000
 RMSDP=1.08D-06 MaxDP=3.01D-05 DE=-1.21D-08 OVMax= 2.69D-05

 Cycle   6  Pass 1  IDiag  1:
 RMSU=  5.24D-07    CP:  9.99D-01  1.16D+00  3.54D-01  6.75D-01  1.04D+00
 E= -270.430933272518     Delta-E=       -0.000000000953 Rises=F Damp=F
 DIIS: error= 8.36D-07 at cycle   6 NSaved=   6.
 NSaved= 6 IEnMin= 6 EnMin= -270.430933272518     IErMin= 6 ErrMin= 8.36D-07
 ErrMax= 8.36D-07  0.00D+00 EMaxC= 1.00D-01 BMatC= 2.68D-10 BMatP= 1.23D-09
 IDIUse=1 WtCom= 1.00D+00 WtEn= 0.00D+00
 Coeff-Com: -0.185D-02 0.162D-01 0.784D-02 0.941D-01 0.346D+00 0.538D+00
 Coeff:     -0.185D-02 0.162D-01 0.784D-02 0.941D-01 0.346D+00 0.538D+00
 Gap=     0.072 Goal=   None    Shift=    0.000
 RMSDP=8.94D-07 MaxDP=3.64D-05 DE=-9.53D-10 OVMax= 8.09D-06

 Cycle   7  Pass 1  IDiag  1:
 RMSU=  1.76D-07    CP:  9.99D-01  1.16D+00  3.67D-01  7.03D-01  1.04D+00
                    CP:  8.95D-01
 E= -270.430933272770     Delta-E=       -0.000000000252 Rises=F Damp=F
 DIIS: error= 3.33D-07 at cycle   7 NSaved=   7.
 NSaved= 7 IEnMin= 7 EnMin= -270.430933272770     IErMin= 7 ErrMin= 3.33D-07
 ErrMax= 3.33D-07  0.00D+00 EMaxC= 1.00D-01 BMatC= 2.06D-11 BMatP= 2.68D-10
 IDIUse=1 WtCom= 1.00D+00 WtEn= 0.00D+00
 Coeff-Com:  0.105D-03-0.380D-02 0.140D-02 0.119D-01 0.118D+00 0.278D+00
 Coeff-Com:  0.594D+00
 Coeff:      0.105D-03-0.380D-02 0.140D-02 0.119D-01 0.118D+00 0.278D+00
 Coeff:      0.594D+00
 Gap=     0.072 Goal=   None    Shift=    0.000
 RMSDP=1.20D-07 MaxDP=2.67D-06 DE=-2.52D-10 OVMax= 2.31D-06

 Cycle   8  Pass 1  IDiag  1:
 RMSU=  7.28D-08    CP:  9.99D-01  1.16D+00  3.67D-01  7.00D-01  1.07D+00
                    CP:  9.14D-01  1.12D+00
 E= -270.430933272789     Delta-E=       -0.000000000019 Rises=F Damp=F
 DIIS: error= 6.61D-08 at cycle   8 NSaved=   8.
 NSaved= 8 IEnMin= 8 EnMin= -270.430933272789     IErMin= 8 ErrMin= 6.61D-08
 ErrMax= 6.61D-08  0.00D+00 EMaxC= 1.00D-01 BMatC= 1.43D-12 BMatP= 2.06D-11
 IDIUse=1 WtCom= 1.00D+00 WtEn= 0.00D+00
 Coeff-Com:  0.294D-03-0.429D-02-0.252D-03-0.737D-02 0.138D-01 0.657D-01
 Coeff-Com:  0.269D+00 0.663D+00
 Coeff:      0.294D-03-0.429D-02-0.252D-03-0.737D-02 0.138D-01 0.657D-01
 Coeff:      0.269D+00 0.663D+00
 Gap=     0.072 Goal=   None    Shift=    0.000
 RMSDP=7.62D-08 MaxDP=2.22D-06 DE=-1.93D-11 OVMax= 9.78D-07

 Cycle   9  Pass 1  IDiag  1:
 RMSU=  2.82D-08    CP:  9.99D-01  1.16D+00  3.66D-01  6.99D-01  1.09D+00
                    CP:  9.71D-01  1.17D+00  1.03D+00
 E= -270.430933272795     Delta-E=       -0.000000000006 Rises=F Damp=F
 DIIS: error= 9.97D-09 at cycle   9 NSaved=   9.
 NSaved= 9 IEnMin= 9 EnMin= -270.430933272795     IErMin= 9 ErrMin= 9.97D-09
 ErrMax= 9.97D-09  0.00D+00 EMaxC= 1.00D-01 BMatC= 3.48D-14 BMatP= 1.43D-12
 IDIUse=1 WtCom= 1.00D+00 WtEn= 0.00D+00
 Coeff-Com:  0.582D-04-0.704D-03-0.193D-03-0.236D-02-0.342D-02-0.182D-02
 Coeff-Com:  0.278D-01 0.148D+00 0.832D+00
 Coeff:      0.582D-04-0.704D-03-0.193D-03-0.236D-02-0.342D-02-0.182D-02
 Coeff:      0.278D-01 0.148D+00 0.832D+00
 Gap=     0.072 Goal=   None    Shift=    0.000
 RMSDP=1.98D-08 MaxDP=4.69D-07 DE=-6.03D-12 OVMax= 3.14D-07

 Cycle  10  Pass 1  IDiag  1:
 RMSU=  5.72D-09    CP:  9.99D-01  1.16D+00  3.66D-01  6.99D-01  1.09D+00
                    CP:  9.74D-01  1.21D+00  1.13D+00  8.89D-01
 E= -270.430933272794     Delta-E=        0.000000000002 Rises=F Damp=F
 DIIS: error= 4.88D-09 at cycle  10 NSaved=  10.
 NSaved=10 IEnMin= 9 EnMin= -270.430933272795     IErMin=10 ErrMin= 4.88D-09
 ErrMax= 4.88D-09  0.00D+00 EMaxC= 1.00D-01 BMatC= 7.81D-15 BMatP= 3.48D-14
 IDIUse=1 WtCom= 1.00D+00 WtEn= 0.00D+00
 Coeff-Com:  0.755D-05-0.262D-04-0.682D-04-0.636D-03-0.254D-02-0.564D-02
 Coeff-Com: -0.535D-02 0.189D-01 0.391D+00 0.604D+00
 Coeff:      0.755D-05-0.262D-04-0.682D-04-0.636D-03-0.254D-02-0.564D-02
 Coeff:     -0.535D-02 0.189D-01 0.391D+00 0.604D+00
 Gap=     0.072 Goal=   None    Shift=    0.000
 RMSDP=4.31D-09 MaxDP=9.94D-08 DE= 1.59D-12 OVMax= 5.87D-08

 SCF Done:  E(RB3LYP) =  -270.430933273     A.U. after   10 cycles
            NFock= 10  Conv=0.43D-08     -V/T= 2.0097
 KE= 2.678239655565D+02 PE=-1.104938459771D+03 EE= 3.282414232141D+02
 Leave Link  502 at Tue Oct 15 10:57:55 2019, MaxMem=   280000000 cpu:              73.0 elap:               3.1
 (Enter /home/soft/g16/l801.exe)
 DoSCS=F DFT=T ScalE2(SS,OS)=  1.000000  1.000000
 Range of M.O.s used for correlation:     1   130
 NBasis=   130 NAE=    23 NBE=    23 NFC=     0 NFV=     0
 NROrb=    130 NOA=    23 NOB=    23 NVA=   107 NVB=   107

 **** Warning!!: The largest alpha MO coefficient is  0.68165257D+02


 **** Warning!!: The smallest alpha delta epsilon is  0.71555940D-01

 Leave Link  801 at Tue Oct 15 10:57:55 2019, MaxMem=   280000000 cpu:               0.9 elap:               0.1
 (Enter /home/soft/g16/l1101.exe)
 Using compressed storage, NAtomX=    14.
 Will process     15 centers per pass.
 Leave Link 1101 at Tue Oct 15 10:57:55 2019, MaxMem=   280000000 cpu:               3.1 elap:               0.2
 (Enter /home/soft/g16/l1102.exe)
 Symmetrizing basis deriv contribution to polar:
 IMax=3 JMax=2 DiffMx= 0.00D+00
 Leave Link 1102 at Tue Oct 15 10:57:55 2019, MaxMem=   280000000 cpu:               1.2 elap:               0.1
 (Enter /home/soft/g16/l1110.exe)
 Forming Gx(P) for the SCF density, NAtomX=    14.
 Integral derivatives from FoFJK, PRISM(SPDF).
 Do as many integral derivatives as possible in FoFJK.
 G2DrvN: MDV=     279998856.
 G2DrvN: will do    15 centers at a time, making    1 passes.
 Calling FoFCou, ICntrl=  3107 FMM=F I1Cent=   0 AccDes= 0.00D+00.
 FoFJK:  IHMeth= 1 ICntrl=    3107 DoSepK=F KAlg= 0 I1Cent=           0 FoldK=F
 IRaf=         0 NMat=       1 IRICut=       1 DoRegI=T DoRafI=F ISym2E= 0 IDoP0=0 IntGTp=1.
 FoFCou: FMM=F IPFlag=           0 FMFlag=      100000 FMFlg1=           0
         NFxFlg=           0 DoJE=F BraDBF=F KetDBF=F FulRan=T
         wScrn=  0.000000 ICntrl=      3107 IOpCl=  0 I1Cent=           0 NGrid=           0
         NMat0=    1 NMatS0=      1 NMatT0=    0 NMatD0=    1 NMtDS0=    0 NMtDT0=    0
 Symmetry not used in FoFCou.
 End of G2Drv F.D. properties file   721 does not exist.
 End of G2Drv F.D. properties file   722 does not exist.
 End of G2Drv F.D. properties file   788 does not exist.
 Leave Link 1110 at Tue Oct 15 10:58:01 2019, MaxMem=   280000000 cpu:             136.2 elap:               5.8
 (Enter /home/soft/g16/l1002.exe)
 Minotr:  Closed shell wavefunction.
          IDoAtm=11111111111111
          Direct CPHF calculation.
          Differentiating once with respect to electric field.
                with respect to dipole field.
          Differentiating once with respect to nuclear coordinates.
          Requested convergence is 1.0D-08 RMS, and 1.0D-07 maximum.
          Secondary convergence is 1.0D-12 RMS, and 1.0D-12 maximum.
          NewPWx=T KeepS1=F KeepF1=F KeepIn=T MapXYZ=F SortEE=F KeepMc=T.
         4236 words used for storage of precomputed grid.
 Keep R1 ints in memory in canonical form, NReq=59094296.
 FoFCou: FMM=F IPFlag=           0 FMFlag=           0 FMFlg1=           0
         NFxFlg=           0 DoJE=F BraDBF=F KetDBF=F FulRan=T
         wScrn=  0.000000 ICntrl=       600 IOpCl=  0 I1Cent=           0 NGrid=           0
         NMat0=    1 NMatS0=   8515 NMatT0=    0 NMatD0=    1 NMtDS0=    0 NMtDT0=    0
 Symmetry not used in FoFCou.
 Two-electron integral symmetry not used.
          MDV=     280000000 using IRadAn=       1.
          Solving linear equations simultaneously, MaxMat=       0.
          There are    45 degrees of freedom in the 1st order CPHF.  IDoFFX=6 NUNeed=     3.
     42 vectors produced by pass  0 Test12= 5.47D-15 2.22D-09 XBig12= 8.58D+02 2.67D+01.
 AX will form    42 AO Fock derivatives at one time.
[...]
 ! D6    D(11,1,4,14)          143.765          -DE/DX =    0.0                 !
 ! D7    D(2,1,11,9)           -89.1625         -DE/DX =    0.0                 !
 ! D8    D(2,1,11,12)          147.86           -DE/DX =    0.0                 !
 ! D9    D(2,1,11,13)           34.7689         -DE/DX =    0.0                 !
 ! D10   D(3,1,11,9)           154.9442         -DE/DX =    0.0                 !
 ! D11   D(3,1,11,12)           31.9667         -DE/DX =    0.0                 !
 ! D12   D(3,1,11,13)          -81.1244         -DE/DX =    0.0                 !
 ! D13   D(4,1,11,9)            32.7911         -DE/DX =    0.0                 !
 ! D14   D(4,1,11,12)          -90.1864         -DE/DX =    0.0                 !
 ! D15   D(4,1,11,13)          156.7225         -DE/DX =    0.0                 !
 ! D16   D(1,4,5,6)             32.3261         -DE/DX =    0.0                 !
 ! D17   D(14,4,5,6)          -161.4613         -DE/DX =    0.0                 !
 ! D18   D(4,5,6,7)            126.3629         -DE/DX =    0.0                 !
 ! D19   D(4,5,6,8)           -123.4619         -DE/DX =    0.0                 !
 ! D20   D(4,5,6,9)              2.1801         -DE/DX =    0.0                 !
 ! D21   D(5,6,9,10)          -166.1549         -DE/DX =    0.0                 !
 ! D22   D(5,6,9,11)           -14.8008         -DE/DX =    0.0                 !
 ! D23   D(7,6,9,10)            75.5975         -DE/DX =    0.0                 !
 ! D24   D(7,6,9,11)          -133.0484         -DE/DX =    0.0                 !
 ! D25   D(8,6,9,10)           -44.2432         -DE/DX =    0.0                 !
 ! D26   D(8,6,9,11)           107.1109         -DE/DX =    0.0                 !
 ! D27   D(6,9,11,1)            -4.429          -DE/DX =    0.0                 !
 ! D28   D(6,9,11,12)          112.8045         -DE/DX =    0.0                 !
 ! D29   D(6,9,11,13)         -127.9217         -DE/DX =    0.0                 !
 ! D30   D(10,9,11,1)          145.6192         -DE/DX =    0.0                 !
 ! D31   D(10,9,11,12)         -97.1473         -DE/DX =    0.0                 !
 ! D32   D(10,9,11,13)          22.1266         -DE/DX =    0.0                 !
 --------------------------------------------------------------------------------
 GradGradGradGradGradGradGradGradGradGradGradGradGradGradGradGradGradGrad

 Leave Link  103 at Tue Oct 15 10:58:41 2019, MaxMem=   280000000 cpu:               1.5 elap:               0.1
 (Enter /home/soft/g16/l9999.exe)

 ----------------------------------------------------------------------

 Electric dipole moment (input orientation):
 (Debye = 10**-18 statcoulomb cm , SI units = C m)
                  (au)            (Debye)         (10**-30 SI)
   Tot        0.468449D+00      0.119068D+01      0.397168D+01
   x         -0.157922D+00     -0.401399D+00     -0.133892D+01
   y         -0.255976D+00     -0.650626D+00     -0.217025D+01
   z         -0.359140D+00     -0.912842D+00     -0.304491D+01

 Dipole polarizability, Alpha (input orientation).
 (esu units = cm**3 , SI units = C**2 m**2 J**-1)
 Alpha(0;0):
               (au)            (10**-24 esu)      (10**-40 SI)
   iso        0.787801D+02      0.116740D+02      0.129891D+02
   aniso      0.471103D+02      0.698103D+01      0.776744D+01
   xx         0.715527D+02      0.106030D+02      0.117974D+02
   yx         0.146246D+00      0.216715D-01      0.241128D-01
   yy         0.108751D+03      0.161152D+02      0.179306D+02
   zx         0.120874D+01      0.179117D+00      0.199295D+00
   zy         0.210425D+01      0.311818D+00      0.346944D+00
   zz         0.560365D+02      0.830375D+01      0.923917D+01

 ----------------------------------------------------------------------

 Dipole orientation:
     6         -1.67374667          0.83197644          1.97387727
     1         -1.09864642         -0.24772561          3.66154996
     1         -3.17114235          2.12278838          2.58964551
     6          0.42880650          2.32332441          0.94217121
     8          2.46074753          1.29188125         -0.11377785
     6          2.07937292         -1.05136386         -1.43544723
     1          2.89528391         -0.62457545         -3.29584306
     1          3.39370000         -2.39990963         -0.52975744
     6         -0.52407023         -2.04461356         -1.58085138
     1         -0.56926648         -4.00798788         -2.19869654
     6         -2.65580931         -1.15389930         -0.00052893
     1         -4.14085419         -0.16050360         -1.05731686
     1         -3.62836363         -2.74072841          0.95358699
     1          0.69254189          4.31402738          1.36288384

 Electric dipole moment (dipole orientation):
 (Debye = 10**-18 statcoulomb cm , SI units = C m)
                  (au)            (Debye)         (10**-30 SI)
   Tot        0.468449D+00      0.119068D+01      0.397168D+01
   x          0.000000D+00      0.000000D+00      0.000000D+00
   y          0.000000D+00      0.000000D+00      0.000000D+00
   z          0.468449D+00      0.119068D+01      0.397168D+01

 Dipole polarizability, Alpha (dipole orientation).
 (esu units = cm**3 , SI units = C**2 m**2 J**-1)
 Alpha(0;0):
               (au)            (10**-24 esu)      (10**-40 SI)
   iso        0.787801D+02      0.116740D+02      0.129891D+02
   aniso      0.471103D+02      0.698103D+01      0.776744D+01
   xx         0.695506D+02      0.103063D+02      0.114673D+02
   yx         0.701126D+01      0.103896D+01      0.115600D+01
   yy         0.908080D+02      0.134564D+02      0.149722D+02
   zx        -0.213425D+01     -0.316263D+00     -0.351890D+00
   zy         0.238167D+02      0.352928D+01      0.392685D+01
   zz         0.759816D+02      0.112593D+02      0.125277D+02

 ----------------------------------------------------------------------
 1\1\GINC-NODE13\Freq\RB3LYP\6-31+G(d)\C5H8O1\ROOT\15-Oct-2019\0\\#P Ge
 om=AllCheck Guess=TCheck SCRF=Check GenChk RB3LYP/6-31+G(d) Freq\\Titl
 e Card Required\\0,1\C,-1.134954235,-0.844264233,-0.2616347265\H,-1.21
 08500614,-0.8892169483,-1.3611205388\H,-1.9149932722,-1.5073166525,0.1
 28928477\C,0.172435417,-1.3177554694,0.2130785648\O,1.3099843599,-0.67
 09703103,-0.0192656308\C,1.2276355472,0.7626634662,-0.0926046494\H,1.9
 870567208,1.0679190256,0.6400086845\H,1.6424246696,1.021260672,-1.0844
 551951\C,-0.090287762,1.3851324724,0.1436188511\H,-0.1107809096,2.4296
 548461,-0.1653890206\C,-1.3785610144,0.6541103137,0.1403364678\H,-1.87
 05199468,0.6047978937,1.1212472261\H,-2.1178749504,1.1296730407,-0.532
 0941605\H,0.3378104374,-2.3293511168,0.5709786503\\Version=ES64L-G16Re
 vA.03\State=1-A\HF=-270.4309333\RMSD=2.755e-09\RMSF=1.964e-06\ZeroPoin
 t=0.1177834\Thermal=0.1231187\Dipole=-0.1579225,-0.2559759,-0.3591398\
 DipoleDeriv=-0.0300356,0.2908992,0.0459269,0.1810441,-0.0925806,-0.024
 7736,-0.2029753,-0.2195273,0.1097853,-0.0022145,-0.2015771,-0.0525825,
 -0.0255621,0.1343607,0.0270308,-0.0589511,-0.1138366,-0.129346,-0.0541
 691,-0.1099306,0.0260339,-0.1110501,-0.0232192,0.0213303,0.0609036,0.0
 558783,0.0416362,0.8877892,-0.727513,-0.0717439,0.2518846,-0.2775125,-
 0.2295887,-0.0165579,0.626916,-0.0872285,-0.9729013,0.8912987,0.125395
 1,-0.1373522,0.2486927,0.0613508,0.2537389,-0.4750376,-0.2624736,0.233
 523,-0.1322993,-0.1326704,-0.1138515,-0.1309721,0.0492979,-0.1291436,0
 .284401,0.4229006,-0.0121237,-0.0889392,-0.0416316,-0.0002205,0.165165
 6,0.0051772,-0.0670667,-0.0263199,0.0495494,0.0085382,-0.1308311,0.087
 3782,-0.0001952,0.1482532,0.0068637,0.1565343,0.0883,-0.085026,-0.1101
 761,0.0688313,-0.0607218,-0.0243166,-0.2731704,-0.1851983,-0.1023649,-
 0.5029631,-0.5791585,0.0286884,-0.0090146,0.0041626,-0.0237233,-0.0618
 131,0.0726793,0.0308652,0.2536667,0.1564374,0.3214325,-0.0526334,0.176
 6008,-0.0800313,0.0151065,0.0131275,0.2333419,-0.0725334,0.2797404,-0.
 0916732,0.0821199,0.0471268,0.0044868,0.0971342,0.0323319,0.0988391,-0
 .0097092,-0.0435951,-0.2188367,0.124635,-0.1261981,0.0801414,0.0951515
 ,0.0588435,-0.210144,0.0996939,-0.0517245,0.0121588,-0.0050458,-0.0270
 76,-0.0012541,-0.0445966,0.0915279,-0.0470196,0.0110712,0.1785029\Pola
 r=71.5526688,0.1462463,108.7510521,1.2087437,2.1042496,56.0364675\Quad
 rupole=0.5480868,0.5386896,-1.0867763,2.2195005,-0.073717,-1.5982032\P
 G=C01 [X(C5H8O1)]\NImag=1\\0.53329282,0.08104518,0.42098836,-0.0124163
 9,-0.05160713,0.50994546,-0.03897722,-0.00841854,-0.01307439,0.0477539
 9,-0.01114879,-0.03064227,-0.00436516,0.00213598,0.04986718,-0.0057215
 9,-0.00777958,-0.28662998,0.01471861,0.00743864,0.31429860,-0.18228609
 ,-0.10852488,0.06568602,0.00171684,0.00124265,0.00035756,0.19880552,-0
 .11164289,-0.14208344,0.05974181,0.00019947,-0.00014778,0.00074837,0.1
 2061992,0.15306764,0.07021775,0.05920416,-0.08416904,0.02403413,0.0201
 9579,-0.01306917,-0.07243698,-0.06331832,0.08992594,-0.19130781,0.0264
 0008,-0.04972154,-0.01305198,0.00782753,-0.00970839,-0.02155094,0.0072
 3501,-0.01054196,0.59268202,0.05392011,-0.11371556,0.03583997,0.001461
 21,-0.00102483,0.00364610,-0.02265813,0.00748526,-0.00848452,0.0068181
 6,0.61604351,-0.04599181,0.02603477,-0.07470868,-0.03048456,0.01162896
 ,-0.00653904,0.01141360,-0.00790785,0.00301739,0.04928732,-0.19614337,
 0.16777168,-0.04409187,-0.01932171,0.01063715,0.00456495,-0.00283688,0
 .00179452,-0.00596418,0.00258052,-0.00345033,-0.29777593,-0.09053180,0
 .02364172,0.42868057,-0.01030494,0.01549238,-0.00225827,0.00477400,-0.
 00152114,0.00161662,0.00314223,0.00054521,0.00057700,-0.10180540,-0.15
 274018,0.03306387,0.10998227,0.42052694,-0.00560559,-0.00845124,0.0064
 9503,0.00199911,-0.00065751,0.00040911,-0.00158760,0.00392901,0.000907
 42,0.04093474,0.03814700,-0.03287983,-0.04983997,-0.04691934,0.0829444
 6,-0.00298379,0.00918209,0.00133586,0.00145107,-0.00087686,-0.00196390
 ,0.00048189,0.00108159,0.00005677,0.00823882,-0.04019613,0.00856604,-0
 .08786277,0.03214539,-0.00086535,0.53778339,0.00954430,0.00093237,-0.0
 0190145,-0.00350497,0.00130448,-0.00215198,0.00188059,-0.00027201,0.00
 036841,-0.05110988,-0.05297781,0.02370425,0.02205613,-0.14436976,0.003
 48013,0.03195545,0.39456000,-0.00574661,0.00667548,0.00076199,0.000047
 96,-0.00166955,-0.00075365,0.00005652,0.00013511,-0.00029348,0.0105496
 9,0.02412123,-0.00054371,0.00480143,-0.00961263,-0.06516261,0.01243665
 ,-0.01235199,0.51242178,0.00024209,0.00099888,-0.00044240,-0.00039292,
 -0.00006459,-0.00028706,0.00007430,0.00007503,-0.00001004,0.00049025,0
 .00054572,0.00198174,0.00242122,-0.00080738,-0.00111804,-0.15975023,-0
 .05350710,-0.12516021,0.17904544,-0.00203720,0.00054194,-0.00147087,0.
 00036274,-0.00037965,0.00067543,-0.00021044,0.00023571,0.00016744,0.01
 247002,0.00069015,-0.00638452,-0.03520399,-0.04870800,-0.02013832,-0.0
 4535269,-0.03976662,-0.03873256,0.05202397,0.07749573,0.00054558,-0.00
 062489,0.00035438,0.00031716,0.00012294,-0.00006777,0.00001949,-0.0000
 5321,-0.00003971,0.00108871,0.00145288,0.00047290,0.00140905,0.0017548
 4,0.00338277,-0.11906903,-0.05178920,-0.16127561,0.12925740,0.05237087
 ,0.17562443,0.00262291,-0.00252798,0.00034509,-0.00070046,0.00046735,-
 0.00017583,-0.00009569,0.00004173,-0.00008536,-0.00537387,-0.00500777,
 0.00162455,0.00131959,0.00672176,0.00068746,-0.06398088,-0.02863959,0.
 08117436,0.00731340,0.00504845,-0.01933336,0.08100308,-0.00129222,0.00
 181188,0.00281050,0.00090963,-0.00043198,0.00023357,0.00001988,-0.0002
 0117,-0.00015846,0.00800952,-0.00018650,0.00061559,-0.01852858,-0.0268
 7689,0.03638940,-0.02021191,-0.05095153,0.03801260,0.00238548,0.005674
 10,-0.00778051,0.02231439,0.06940891,0.00041113,0.00019117,0.00080253,
 0.00069037,0.00006955,-0.00075062,0.00012643,0.00002968,-0.00012840,-0
 .00147279,0.00076569,0.00118157,0.00030357,0.00091788,-0.00083670,0.07
 119868,0.05555779,-0.23849191,0.00671697,0.00618596,-0.02473324,-0.085
 33142,-0.05904782,0.26162810,0.01428068,-0.01807064,0.00285410,-0.0015
 3908,0.00456107,0.00283194,0.00009545,0.00208773,0.00064139,-0.0095335
 5,-0.00034808,-0.00951309,0.00659472,0.00208314,0.00324705,-0.20495374
 ,0.05642009,0.03807916,-0.02509902,0.01305786,0.00401544,-0.02325298,0
 .00739481,0.00726522,0.54762915,-0.02486421,-0.02850509,-0.00466809,-0
 .00340129,0.00139298,0.00014172,0.00081865,-0.00534831,-0.00170003,-0.
 00155882,0.01779482,0.00887544,0.04787692,-0.03493871,-0.01312920,0.03
 539050,-0.11451747,-0.00957271,-0.00474576,0.00648790,0.00430314,-0.00
 174148,0.00393621,-0.00343482,0.00417724,0.56847826,-0.00607086,-0.006
 21059,-0.00840100,-0.00466338,-0.00144829,0.00222196,-0.00028519,-0.00
 058493,0.00151986,-0.00918881,-0.00671003,0.00048443,0.01098163,0.0125
 0900,0.00141161,0.01660848,-0.00834547,-0.04599318,-0.00947236,0.00250
 984,0.00782352,0.02232860,-0.00582809,0.00175271,-0.04207396,-0.080549
 48,0.11410827,-0.00378643,-0.00256574,0.00115409,0.00001784,0.00006779
 ,-0.00004010,0.00029803,-0.00135462,-0.00053845,-0.00288222,-0.0019902
 6,-0.00030488,-0.00541626,0.00491421,0.00067091,0.00359444,0.02756822,
 -0.00768661,-0.00002241,-0.00100420,-0.00058805,0.00060258,0.00068324,
 0.00070530,-0.05420261,0.00928383,-0.00008755,0.05841764,-0.00157622,-
 0.00218305,0.00122788,0.00036070,0.00039043,0.00025691,0.00026483,-0.0
 0090222,-0.00039210,0.00172539,0.00091764,-0.00295707,-0.00088641,-0.0
 0323220,0.00121481,-0.00169631,-0.00970643,0.00555565,0.00097407,-0.00
 066022,-0.00011604,-0.00039798,0.00084460,-0.00043819,0.00843104,-0.30
 304327,0.07961900,-0.00897896,0.32511731,0.00393921,-0.00915297,-0.000
 54978,0.00051882,0.00227787,0.00139777,0.00020401,-0.00118813,-0.00007
 179,0.00336810,-0.00350112,-0.00682537,-0.00805781,-0.00950017,0.00541
 251,0.00383269,0.00403516,-0.00020073,0.00098151,-0.00144096,0.0003270
 3,-0.00221940,0.00050598,0.00195636,-0.00218024,0.10075598,-0.04712253
 ,-0.00156721,-0.08934819,0.03656259,-0.08490636,0.01922958,-0.00486408
 ,0.00014738,-0.00239001,-0.00067782,0.00657754,-0.02054976,-0.00821252
 ,0.00268158,0.03500690,0.01712691,0.00277882,-0.00625224,-0.00200388,-
 0.02690177,-0.01038465,-0.00645308,-0.00252369,0.00064627,0.00170501,0
 .00124792,-0.00055143,-0.00122504,-0.20060338,-0.06124324,0.01796258,0
 .00269174,0.00202265,-0.00205003,0.52600616,-0.01184391,-0.10056508,-0
 .02201484,0.00178485,-0.01485147,-0.00463176,0.00338540,-0.01325989,-0
 .00637095,0.03517246,-0.02039492,0.01675780,-0.00459372,-0.00139104,0.
 00004175,0.00018227,0.01187358,-0.00658147,0.00154933,-0.00166136,0.00
 055038,0.00445498,-0.00073733,-0.00115097,-0.05584335,-0.11986379,0.01
 204526,-0.02563952,-0.00788335,0.00804040,-0.01832313,0.39983662,-0.00
 072041,-0.01651240,-0.06588425,0.00576118,-0.03276331,-0.00897838,-0.0
 0328975,0.00915877,0.00205030,-0.00369719,0.01397225,-0.00034318,0.004
 35094,0.00712037,0.00193320,0.00974053,-0.00421342,-0.00227729,-0.0021
 9940,0.00263599,-0.00139567,0.00145801,-0.00201978,-0.00225018,-0.0098
 4383,-0.00138203,-0.04329697,0.00729185,0.00507139,0.00436901,-0.01237
 540,-0.06091072,0.50945507,-0.00294793,0.00367823,0.00541455,0.0000584
 4,-0.00031079,-0.00030529,0.00068205,-0.00055024,-0.00010012,0.0030615
 4,0.00133393,-0.00121328,-0.00293953,-0.00349547,0.00181475,-0.0020525
 2,0.00077329,0.00132860,0.00002386,-0.00042102,0.00045447,-0.00051947,
 0.00021191,0.00063655,-0.02113162,-0.00694436,0.01572752,-0.00116483,-
 0.00071730,0.00053559,-0.08263008,-0.00024355,0.09762775,0.10067467,0.
 02057092,-0.01862286,-0.02830341,0.00208877,-0.00314534,0.00017544,-0.
 00018891,0.00060945,-0.00025551,-0.00634233,0.00051245,-0.00875558,-0.
 00032831,-0.00076141,0.00095522,0.00155382,0.00009286,0.00149836,0.000
 23337,-0.00010073,0.00008444,-0.00089415,0.00032545,0.00062153,-0.0152
 0596,-0.00267522,0.00887489,-0.00112378,-0.00105996,-0.00058729,0.0000
 8189,-0.02901562,0.01916267,0.00479630,0.05387989,0.00517081,-0.004615
 14,-0.00791556,0.00056188,-0.00063797,0.00005741,-0.00000940,-0.000094
 91,0.00063932,-0.00364200,0.00163794,0.00241159,0.00013560,-0.00028608
 ,-0.00104840,-0.00097097,-0.00023654,-0.00044698,-0.00038596,0.0002220
 8,-0.00001752,-0.00007513,-0.00000365,-0.00004819,0.00139250,0.0026270
 6,0.00888991,0.00046814,-0.00037961,-0.00012027,0.09390569,0.01175414,
 -0.25219146,-0.10266723,-0.01321588,0.27201097,-0.00184477,-0.00072853
 ,-0.00152504,0.00025192,0.00016790,-0.00001176,0.00025716,0.00020556,0
 .00003952,-0.00056146,0.00346341,-0.00204189,-0.00063176,-0.00032876,0
 .00126162,-0.00021384,-0.00385696,-0.00585327,-0.00167766,0.00119884,0
 .00013984,0.00003616,-0.00034522,-0.00011091,-0.02739240,0.00775743,-0
 .01162767,0.00156789,0.00050628,0.00306122,-0.14118829,0.06819180,-0.0
 9091733,0.00864777,-0.00485060,0.00612308,0.16291562,0.01384496,-0.004
 37166,0.01679439,0.00082401,-0.00023537,0.00010050,-0.00029992,-0.0000
 5015,0.00039145,0.00467973,-0.00375570,-0.00127278,-0.00340246,-0.0020
 1054,0.00251173,-0.00109359,0.00086961,-0.00049019,0.00030782,-0.00053
 899,-0.00016518,0.00027863,-0.00009498,-0.00031050,-0.00906294,0.01053
 669,-0.00653210,-0.00015201,0.00114697,-0.00194069,0.06179663,-0.09996
 216,0.06054254,0.00199487,-0.00077553,0.00314787,-0.07155132,0.1002002
 1,0.00834380,-0.00340092,0.00674576,-0.00018488,0.00041176,-0.00034050
 ,-0.00010056,0.00049082,-0.00025755,0.00049992,0.00005023,0.00115552,-
 0.00174818,-0.00091863,0.00085486,0.00033306,-0.00007492,-0.00210540,-
 0.00013032,0.00029913,-0.00002606,0.00025290,-0.00010724,-0.00022699,0
 .00137745,-0.00299111,0.00568204,0.00005628,-0.00031390,0.00178931,-0.
 09109109,0.06163049,-0.13799085,-0.01898238,0.01723204,-0.02252808,0.1
 0052075,-0.07186439,0.14742291,0.00269379,0.01962398,-0.00538302,-0.00
 130078,0.00115764,-0.00081088,0.00090813,-0.00002906,0.00038621,-0.065
 11645,0.05818272,-0.02409234,-0.00167757,-0.04076881,0.01040478,-0.002
 85008,0.00080506,0.00242543,-0.00014462,-0.00057859,0.00003828,-0.0002
 2229,-0.00099948,0.00008595,-0.00089161,-0.00080540,-0.00013905,0.0002
 8461,-0.00003179,-0.00036646,-0.00337757,0.00176608,-0.00318695,0.0002
 3765,-0.00039105,-0.00000699,-0.00016633,0.00183560,0.00085324,0.07162
 312,-0.00421511,0.00092207,0.00017468,0.00042345,-0.00057525,-0.000470
 00,0.00050813,0.00032169,-0.00022436,0.05047851,-0.29864831,0.10274050
 ,-0.00686198,-0.02001465,0.00262656,-0.00206361,0.00292873,0.00301267,
 0.00003115,0.00069003,-0.00011047,-0.00011833,-0.00252077,0.00004305,0
 .00031799,0.00026498,0.00065100,0.00029179,0.00025376,0.00104413,0.000
 91054,-0.00212419,0.00013769,-0.00010581,0.00073659,0.00008069,0.00017
 017,-0.00095839,-0.00044337,-0.03976691,0.31872371,-0.00635503,0.01624
 929,0.00315314,-0.00024202,-0.00060373,-0.00125574,-0.00015415,-0.0010
 8621,-0.00003109,-0.01775579,0.09520575,-0.05465526,0.00504070,0.01193
 555,-0.00382343,-0.00123952,-0.00608079,0.00436078,0.00026818,0.003100
 49,-0.00042945,-0.00065045,-0.00362207,0.00014497,0.00190686,0.0007241
 3,0.00091936,0.00046629,0.00099945,0.00307588,-0.00174726,-0.00915950,
 -0.00319936,-0.00027148,0.00251308,0.00030724,0.00094185,-0.00091265,-
 0.00017496,0.01979181,-0.10926279,0.05160792\\-0.00000040,0.00000038,-
 0.00000208,-0.00000036,0.00000309,-0.00000211,0.00000004,-0.00000040,-
 0.00000341,0.00000007,-0.00000060,-0.00000314,0.00000020,0.00000072,-0
 .00000227,-0.00000042,-0.00000040,0.00000088,0.00000015,-0.00000162,0.
 00000182,-0.00000019,0.00000243,0.00000177,0.00000020,-0.00000101,0.00
 000310,-0.00000002,0.00000021,0.00000543,0.00000051,0.00000010,0.00000
 161,0.00000020,-0.00000264,0.00000149,-0.00000010,0.00000122,0.0000028
 6,0.00000012,-0.00000144,-0.00000594\\\@


 ALMOST ANYTHING IS EASIER TO GET INTO THAN OUT OF.

                         -- AGNES ALLEN'S LAW FROM
                PAUL DICKSON'S "THE OFFICIAL RULES"
 Job cpu time:       0 days  0 hours  9 minutes  7.8 seconds.
 Elapsed time:       0 days  0 hours  0 minutes 23.4 seconds.
 File lengths (MBytes):  RWF=    332 Int=      0 D2E=      0 Chk=      8 Scr=      8
 Normal termination of Gaussian 16 at Tue Oct 15 10:58:41 2019.
