 Entering Gaussian System, Link 0=g16
 Input=tsb3.gjf
 Output=tsb3.log
 Initial command:
 /home/soft/g16/l1.exe "/tmp/gaussian/Gau-124198.inp" -scrdir="/tmp/gaussian/"
 Entering Link 1 = /home/soft/g16/l1.exe PID=    124200.
  
 Copyright (c) 1988,1990,1992,1993,1995,1998,2003,2009,2016,
            Gaussian, Inc.  All Rights Reserved.
  
 This is part of the Gaussian(R) 16 program.  It is based on
 the Gaussian(R) 09 system (copyright 2009, Gaussian, Inc.),
 the Gaussian(R) 03 system (copyright 2003, Gaussian, Inc.),
 the Gaussian(R) 98 system (copyright 1998, Gaussian, Inc.),
 the Gaussian(R) 94 system (copyright 1995, Gaussian, Inc.),
 the Gaussian 92(TM) system (copyright 1992, Gaussian, Inc.),
 the Gaussian 90(TM) system (copyright 1990, Gaussian, Inc.),
 the Gaussian 88(TM) system (copyright 1988, Gaussian, Inc.),
 the Gaussian 86(TM) system (copyright 1986, Carnegie Mellon
 University), and the Gaussian 82(TM) system (copyright 1983,
 Carnegie Mellon University). Gaussian is a federally registered
 trademark of Gaussian, Inc.
  
 This software contains proprietary and confidential information,
 including trade secrets, belonging to Gaussian, Inc.
  
 This software is provided under written license and may be
 used, copied, transmitted, or stored only in accord with that
 written license.
  
 The following legend is applicable only to US Government
 contracts under FAR:
  
                    RESTRICTED RIGHTS LEGEND
  
 Use, reproduction and disclosure by the US Government is
 subject to restrictions as set forth in subparagraphs (a)
 and (c) of the Commercial Computer Software - Restricted
 Rights clause in FAR 52.227-19.
  
 Gaussian, Inc.
 340 Quinnipiac St., Bldg. 40, Wallingford CT 06492
  
  
 ---------------------------------------------------------------
 Warning -- This program may not be used in any manner that
 competes with the business of Gaussian, Inc. or will provide
 assistance to any competitor of Gaussian, Inc.  The licensee
 of this program is prohibited from giving any competitor of
 Gaussian, Inc. access to this program.  By using this program,
 the user acknowledges that Gaussian, Inc. is engaged in the
 business of creating and licensing software in the field of
 computational chemistry and represents and warrants to the
 licensee that it is not a competitor of Gaussian, Inc. and that
 it will not use this program in any manner prohibited above.
 ---------------------------------------------------------------
  

 Cite this work as:
 Gaussian 16, Revision A.03,
 M. J. Frisch, G. W. Trucks, H. B. Schlegel, G. E. Scuseria, 
 M. A. Robb, J. R. Cheeseman, G. Scalmani, V. Barone, 
 G. A. Petersson, H. Nakatsuji, X. Li, M. Caricato, A. V. Marenich, 
 J. Bloino, B. G. Janesko, R. Gomperts, B. Mennucci, H. P. Hratchian, 
 J. V. Ortiz, A. F. Izmaylov, J. L. Sonnenberg, D. Williams-Young, 
 F. Ding, F. Lipparini, F. Egidi, J. Goings, B. Peng, A. Petrone, 
 T. Henderson, D. Ranasinghe, V. G. Zakrzewski, J. Gao, N. Rega, 
 G. Zheng, W. Liang, M. Hada, M. Ehara, K. Toyota, R. Fukuda, 
 J. Hasegawa, M. Ishida, T. Nakajima, Y. Honda, O. Kitao, H. Nakai, 
 T. Vreven, K. Throssell, J. A. Montgomery, Jr., J. E. Peralta, 
 F. Ogliaro, M. J. Bearpark, J. J. Heyd, E. N. Brothers, K. N. Kudin, 
 V. N. Staroverov, T. A. Keith, R. Kobayashi, J. Normand, 
 K. Raghavachari, A. P. Rendell, J. C. Burant, S. S. Iyengar, 
 J. Tomasi, M. Cossi, J. M. Millam, M. Klene, C. Adamo, R. Cammi, 
 J. W. Ochterski, R. L. Martin, K. Morokuma, O. Farkas, 
 J. B. Foresman, and D. J. Fox, Gaussian, Inc., Wallingford CT, 2016.
 
 ******************************************
 Gaussian 16:  ES64L-G16RevA.03 25-Dec-2016
                15-Oct-2019 
 ******************************************
 %chk=tsb3.chk
 %nprocshared=24
 Will use up to   24 processors via shared memory.
 -----------------------------------------------
 #p opt=(calcfc,ts,noeigen) freq b3lyp/6-31+g(d)
 -----------------------------------------------
 1/5=1,10=4,11=1,18=20,26=3,38=1/1,3;
 2/9=110,12=2,17=6,18=5,40=1/2;
 3/5=1,6=6,7=11,11=2,25=1,30=1,71=2,74=-5,140=1/1,2,3;
 4//1;
 5/5=2,38=5/2;
 8/6=4,10=90,11=11/1;
 11/6=1,8=1,9=11,15=111,16=1/1,2,10;
 10/6=1,13=1/2;
 6/7=2,8=2,9=2,10=2,28=1/1;
 7/10=1,18=20,25=1/1,2,3,16;
 1/5=1,10=4,11=1,18=20,26=3/3(2);
 2/9=110/2;
 99//99;
 2/9=110/2;
 3/5=1,6=6,7=11,11=2,25=1,30=1,71=1,74=-5/1,2,3;
 4/5=5,16=3,69=1/1;
 5/5=2,38=5/2;
 7//1,2,3,16;
 1/5=1,11=1,18=20,26=3/3(-5);
 2/9=110/2;
 6/7=2,8=2,9=2,10=2,19=2,28=1/1;
 99/9=1/99;
 Leave Link    1 at Tue Oct 15 11:52:10 2019, MaxMem=           0 cpu:               2.7 elap:               0.1
 (Enter /home/soft/g16/l101.exe)
 -------------------
 Title Card Required
 -------------------
 Symbolic Z-matrix:
 Charge =  0 Multiplicity = 1
 C                     1.0983   -1.07968   0.26756 
 H                     1.2198   -1.01913   1.36219 
 H                     1.8811   -1.75641  -0.09288 
 C                    -0.16986  -1.41788  -0.34091 
 O                    -1.32374  -0.89041   0.00761 
 C                    -1.25972   1.04345  -0.0308 
 H                    -1.76789   1.44093  -0.91984 
 H                    -1.93018   1.25706   0.82216 
 C                     0.14412   1.6818    0.09563 
 H                     0.11291   2.69991   0.48216 
 C                     1.42274   0.9893   -0.22802 
 H                     1.91444   0.93964  -1.20904 
 H                     2.16257   1.46426   0.44427 
 H                    -0.15818  -2.22919  -1.06231 
 
 Add virtual bond connecting atoms C6         and O5         Dist= 3.66D+00.
 ITRead=  0  0  0  0  0  0  0  0  0  0  0  0  0  0
 MicOpt= -1 -1 -1 -1 -1 -1 -1 -1 -1 -1 -1 -1 -1 -1
 NAtoms=     14 NQM=       14 NQMF=       0 NMMI=      0 NMMIF=      0
                NMic=       0 NMicF=      0.
                    Isotopes and Nuclear Properties:
 (Nuclear quadrupole moments (NQMom) in fm**2, nuclear magnetic moments (NMagM)
  in nuclear magnetons)

  Atom         1           2           3           4           5           6           7           8           9          10
 IAtWgt=          12           1           1          12          16          12           1           1          12           1
 AtmWgt=  12.0000000   1.0078250   1.0078250  12.0000000  15.9949146  12.0000000   1.0078250   1.0078250  12.0000000   1.0078250
 NucSpn=           0           1           1           0           0           0           1           1           0           1
 AtZEff=  -0.0000000  -0.0000000  -0.0000000  -0.0000000  -0.0000000  -0.0000000  -0.0000000  -0.0000000  -0.0000000  -0.0000000
 NQMom=    0.0000000   0.0000000   0.0000000   0.0000000   0.0000000   0.0000000   0.0000000   0.0000000   0.0000000   0.0000000
 NMagM=    0.0000000   2.7928460   2.7928460   0.0000000   0.0000000   0.0000000   2.7928460   2.7928460   0.0000000   2.7928460
 AtZNuc=   6.0000000   1.0000000   1.0000000   6.0000000   8.0000000   6.0000000   1.0000000   1.0000000   6.0000000   1.0000000

  Atom        11          12          13          14
 IAtWgt=          12           1           1           1
 AtmWgt=  12.0000000   1.0078250   1.0078250   1.0078250
 NucSpn=           0           1           1           1
 AtZEff=  -0.0000000  -0.0000000  -0.0000000  -0.0000000
 NQMom=    0.0000000   0.0000000   0.0000000   0.0000000
 NMagM=    0.0000000   2.7928460   2.7928460   2.7928460
 AtZNuc=   6.0000000   1.0000000   1.0000000   1.0000000
 Leave Link  101 at Tue Oct 15 11:52:10 2019, MaxMem=   280000000 cpu:               4.3 elap:               0.2
 (Enter /home/soft/g16/l103.exe)

 GradGradGradGradGradGradGradGradGradGradGradGradGradGradGradGradGradGrad
 Berny optimization.
 Initialization pass.
                           ----------------------------
                           !    Initial Parameters    !
                           ! (Angstroms and Degrees)  !
 --------------------------                            --------------------------
 ! Name  Definition              Value          Derivative Info.                !
 --------------------------------------------------------------------------------
 ! R1    R(1,2)                  1.103          calculate D2E/DX2 analytically  !
 ! R2    R(1,3)                  1.0957         calculate D2E/DX2 analytically  !
 ! R3    R(1,4)                  1.4467         calculate D2E/DX2 analytically  !
 ! R4    R(4,5)                  1.3157         calculate D2E/DX2 analytically  !
 ! R5    R(4,14)                 1.0857         calculate D2E/DX2 analytically  !
 ! R6    R(5,6)                  1.9353         calculate D2E/DX2 analytically  !
 ! R7    R(6,7)                  1.0985         calculate D2E/DX2 analytically  !
 ! R8    R(6,8)                  1.1058         calculate D2E/DX2 analytically  !
 ! R9    R(6,9)                  1.5473         calculate D2E/DX2 analytically  !
 ! R10   R(9,10)                 1.0895         calculate D2E/DX2 analytically  !
 ! R11   R(9,11)                 1.4897         calculate D2E/DX2 analytically  !
 ! R12   R(11,12)                1.0985         calculate D2E/DX2 analytically  !
 ! R13   R(11,13)                1.1068         calculate D2E/DX2 analytically  !
 ! A1    A(2,1,3)              106.3589         calculate D2E/DX2 analytically  !
 ! A2    A(2,1,4)              121.789          calculate D2E/DX2 analytically  !
 ! A3    A(3,1,4)              110.091          calculate D2E/DX2 analytically  !
 ! A4    A(1,4,5)              124.308          calculate D2E/DX2 analytically  !
 ! A5    A(1,4,14)             116.4063         calculate D2E/DX2 analytically  !
 ! A6    A(5,4,14)             119.0133         calculate D2E/DX2 analytically  !
 ! A7    A(4,5,6)              111.4897         calculate D2E/DX2 analytically  !
 ! A8    A(5,6,7)              111.2441         calculate D2E/DX2 analytically  !
 ! A9    A(5,6,8)               99.0717         calculate D2E/DX2 analytically  !
 ! A10   A(5,6,9)              116.1443         calculate D2E/DX2 analytically  !
 ! A11   A(7,6,8)              105.8974         calculate D2E/DX2 analytically  !
 ! A12   A(7,6,9)              109.6677         calculate D2E/DX2 analytically  !
 ! A13   A(8,6,9)              114.0406         calculate D2E/DX2 analytically  !
 ! A14   A(6,9,10)             112.8629         calculate D2E/DX2 analytically  !
 ! A15   A(6,9,11)             124.6931         calculate D2E/DX2 analytically  !
 ! A16   A(10,9,11)            122.418          calculate D2E/DX2 analytically  !
 ! A17   A(9,11,12)            126.8164         calculate D2E/DX2 analytically  !
 ! A18   A(9,11,13)            104.0215         calculate D2E/DX2 analytically  !
 ! A19   A(12,11,13)           105.2283         calculate D2E/DX2 analytically  !
 ! D1    D(2,1,4,5)             46.2854         calculate D2E/DX2 analytically  !
 ! D2    D(2,1,4,14)          -127.6415         calculate D2E/DX2 analytically  !
 ! D3    D(3,1,4,5)            171.7022         calculate D2E/DX2 analytically  !
 ! D4    D(3,1,4,14)            -2.2247         calculate D2E/DX2 analytically  !
 ! D5    D(1,4,5,6)             53.1692         calculate D2E/DX2 analytically  !
 ! D6    D(14,4,5,6)          -133.0514         calculate D2E/DX2 analytically  !
 ! D7    D(4,5,6,7)            103.5813         calculate D2E/DX2 analytically  !
 ! D8    D(4,5,6,8)           -145.3381         calculate D2E/DX2 analytically  !
 ! D9    D(4,5,6,9)            -22.7948         calculate D2E/DX2 analytically  !
 ! D10   D(5,6,9,10)          -155.8259         calculate D2E/DX2 analytically  !
 ! D11   D(5,6,9,11)            22.3556         calculate D2E/DX2 analytically  !
 ! D12   D(7,6,9,10)            77.0111         calculate D2E/DX2 analytically  !
 ! D13   D(7,6,9,11)          -104.8074         calculate D2E/DX2 analytically  !
 ! D14   D(8,6,9,10)           -41.5405         calculate D2E/DX2 analytically  !
 ! D15   D(8,6,9,11)           136.641          calculate D2E/DX2 analytically  !
 ! D16   D(6,9,11,12)           87.6849         calculate D2E/DX2 analytically  !
 ! D17   D(6,9,11,13)         -150.6396         calculate D2E/DX2 analytically  !
 ! D18   D(10,9,11,12)         -94.3001         calculate D2E/DX2 analytically  !
 ! D19   D(10,9,11,13)          27.3754         calculate D2E/DX2 analytically  !
 --------------------------------------------------------------------------------
 Trust Radius=3.00D-01 FncErr=1.00D-07 GrdErr=1.00D-06 EigMax=2.50D+02 EigMin=1.00D-04
 Number of steps in this run=     61 maximum allowed number of steps=    100.
 Search for a saddle point of order  1.
 GradGradGradGradGradGradGradGradGradGradGradGradGradGradGradGradGradGrad

 Leave Link  103 at Tue Oct 15 11:52:10 2019, MaxMem=   280000000 cpu:               0.2 elap:               0.0
 (Enter /home/soft/g16/l202.exe)
                          Input orientation:                          
 ---------------------------------------------------------------------
 Center     Atomic      Atomic             Coordinates (Angstroms)
 Number     Number       Type             X           Y           Z
 ---------------------------------------------------------------------
      1          6           0        1.098305   -1.079682    0.267558
      2          1           0        1.219799   -1.019135    1.362191
      3          1           0        1.881099   -1.756408   -0.092876
      4          6           0       -0.169856   -1.417884   -0.340914
      5          8           0       -1.323736   -0.890411    0.007607
      6          6           0       -1.259717    1.043449   -0.030798
      7          1           0       -1.767887    1.440931   -0.919840
      8          1           0       -1.930178    1.257057    0.822164
      9          6           0        0.144124    1.681802    0.095633
     10          1           0        0.112913    2.699914    0.482164
     11          6           0        1.422737    0.989299   -0.228022
     12          1           0        1.914444    0.939638   -1.209042
     13          1           0        2.162570    1.464257    0.444265
     14          1           0       -0.158180   -2.229192   -1.062309
 ---------------------------------------------------------------------
                    Distance matrix (angstroms):
                    1          2          3          4          5
     1  C    0.000000
     2  H    1.103018   0.000000
     3  H    1.095736   1.760145   0.000000
     4  C    1.446670   2.233990   2.093452   0.000000
     5  O    2.443293   2.884621   3.321297   1.315725   0.000000
     6  C    3.187000   3.513214   4.208061   2.709637   1.935300
     7  H    3.997307   4.492868   4.921580   3.325911   2.548055
     8  H    3.865183   3.923650   4.944097   3.406874   2.375477
     9  C    2.926741   3.171168   3.856670   3.145984   2.962877
    10  H    3.911828   3.978815   4.828660   4.208762   3.896100
    11  C    2.152100   2.569780   2.786981   2.888534   3.336456
    12  H    2.631365   3.306140   2.918150   3.264332   3.913453
    13  H    2.763242   2.810452   3.277259   3.789915   4.229592
    14  H    2.160711   3.039945   2.306943   1.085710   2.072577
                    6          7          8          9         10
     6  C    0.000000
     7  H    1.098464   0.000000
     8  H    1.105752   1.759183   0.000000
     9  C    1.547337   2.178300   2.238523   0.000000
    10  H    2.211588   2.662341   2.524214   1.089464   0.000000
    11  C    2.690240   3.295855   3.523722   1.489685   2.268525
    12  H    3.387379   3.727531   4.359778   2.320994   3.033853
    13  H    3.480634   4.160506   4.115376   2.059852   2.393612
    14  H    3.603828   4.010145   4.341099   4.089999   5.172521
                   11         12         13         14
    11  C    0.000000
    12  H    1.098473   0.000000
    13  H    1.106756   1.752203   0.000000
    14  H    3.681577   3.789298   4.614889   0.000000
 Stoichiometry    C5H8O
 Framework group  C1[X(C5H8O)]
 Deg. of freedom    36
 Full point group                 C1      NOp   1
 Largest Abelian subgroup         C1      NOp   1
 Largest concise Abelian subgroup C1      NOp   1
                         Standard orientation:                         
 ---------------------------------------------------------------------
 Center     Atomic      Atomic             Coordinates (Angstroms)
 Number     Number       Type             X           Y           Z
 ---------------------------------------------------------------------
      1          6           0        0.983096    1.234120    0.323329
      2          1           0        0.870259    1.356616    1.413701
      3          1           0        1.565121    2.094551   -0.025302
      4          6           0        1.502406    0.014894   -0.256893
      5          8           0        1.116539   -1.194306    0.089624
      6          6           0       -0.807011   -1.381166   -0.012479
      7          1           0       -1.105255   -1.944436   -0.907130
      8          1           0       -0.961255   -2.065908    0.841936
      9          6           0       -1.624914   -0.070543    0.074435
     10          1           0       -2.643043   -0.229625    0.428044
     11          6           0       -1.092412    1.283896   -0.243526
     12          1           0       -1.073263    1.769046   -1.228871
     13          1           0       -1.681324    1.962144    0.403057
     14          1           0        2.329465    0.124857   -0.951622
 ---------------------------------------------------------------------
 Rotational constants (GHZ):           4.4367915           3.5058732           2.1101920
 Leave Link  202 at Tue Oct 15 11:52:10 2019, MaxMem=   280000000 cpu:               1.2 elap:               0.1
 (Enter /home/soft/g16/l301.exe)
 Standard basis: 6-31+G(d) (6D, 7F)
 Ernie: Thresh=  0.10000D-02 Tol=  0.10000D-05 Strict=F.
 There are   130 symmetry adapted cartesian basis functions of A   symmetry.
 There are   130 symmetry adapted basis functions of A   symmetry.
   130 basis functions,   224 primitive gaussians,   130 cartesian basis functions
    23 alpha electrons       23 beta electrons
       nuclear repulsion energy       218.9102964637 Hartrees.
 IExCor=  402 DFT=T Ex+Corr=B3LYP ExCW=0 ScaHFX=  0.200000
 ScaDFX=  0.800000  0.720000  1.000000  0.810000 ScalE2=  1.000000  1.000000
 IRadAn=      5 IRanWt=     -1 IRanGd=            0 ICorTp=0 IEmpDi=  4
 NAtoms=   14 NActive=   14 NUniq=   14 SFac= 1.00D+00 NAtFMM=   60 NAOKFM=F Big=F
 Integral buffers will be    131072 words long.
 Raffenetti 2 integral format.
 Two-electron integral symmetry is turned on.
 Leave Link  301 at Tue Oct 15 11:52:10 2019, MaxMem=   280000000 cpu:               1.6 elap:               0.1
 (Enter /home/soft/g16/l302.exe)
 NPDir=0 NMtPBC=     1 NCelOv=     1 NCel=       1 NClECP=     1 NCelD=      1
         NCelK=      1 NCelE2=     1 NClLst=     1 CellRange=     0.0.
 One-electron integrals computed using PRISM.
 One-electron integral symmetry used in STVInt
 NBasis=   130 RedAO= T EigKep=  8.79D-05  NBF=   130
 NBsUse=   130 1.00D-06 EigRej= -1.00D+00 NBFU=   130
 Precomputing XC quadrature grid using
 IXCGrd= 4 IRadAn=           5 IRanWt=          -1 IRanGd=           0 AccXCQ= 0.00D+00.
 Generated NRdTot=       0 NPtTot=           0 NUsed=           0 NTot=          32
 NSgBfM=   130   130   130   130   130 MxSgAt=    14 MxSgA2=    14.
 Leave Link  302 at Tue Oct 15 11:52:10 2019, MaxMem=   280000000 cpu:               4.7 elap:               0.3
 (Enter /home/soft/g16/l303.exe)
 DipDrv:  MaxL=1.
 Leave Link  303 at Tue Oct 15 11:52:11 2019, MaxMem=   280000000 cpu:               1.2 elap:               0.1
 (Enter /home/soft/g16/l401.exe)
 ExpMin= 4.38D-02 ExpMax= 5.48D+03 ExpMxC= 8.25D+02 IAcc=3 IRadAn=         5 AccDes= 0.00D+00
 Harris functional with IExCor=  402 and IRadAn=       5 diagonalized for initial guess.
 HarFok:  IExCor=  402 AccDes= 0.00D+00 IRadAn=         5 IDoV= 1 UseB2=F ITyADJ=14
 ICtDFT=  3500011 ScaDFX=  1.000000  1.000000  1.000000  1.000000
 FoFCou: FMM=F IPFlag=           0 FMFlag=      100000 FMFlg1=           0
         NFxFlg=           0 DoJE=T BraDBF=F KetDBF=T FulRan=T
         wScrn=  0.000000 ICntrl=       500 IOpCl=  0 I1Cent=   200000004 NGrid=           0
         NMat0=    1 NMatS0=      1 NMatT0=    0 NMatD0=    1 NMtDS0=    0 NMtDT0=    0
 Petite list used in FoFCou.
 Harris En= -270.374582200421    
 JPrj=0 DoOrth=F DoCkMO=F.
 Leave Link  401 at Tue Oct 15 11:52:11 2019, MaxMem=   280000000 cpu:               9.5 elap:               0.5
 (Enter /home/soft/g16/l502.exe)
 Integral symmetry usage will be decided dynamically.
 Closed shell SCF:
 Using DIIS extrapolation, IDIIS=  1040.
 NGot=   280000000 LenX=   279961518 LenY=   279944177
 Requested convergence on RMS density matrix=1.00D-08 within 128 cycles.
 Requested convergence on MAX density matrix=1.00D-06.
 Requested convergence on             energy=1.00D-06.
 No special actions if energy rises.
 Fock matrices will be formed incrementally for  20 cycles.

 Cycle   1  Pass 1  IDiag  1:
 FoFJK:  IHMeth= 1 ICntrl=       0 DoSepK=F KAlg= 0 I1Cent=           0 FoldK=F
 IRaf= 990000000 NMat=       1 IRICut=       1 DoRegI=T DoRafI=F ISym2E= 0 IDoP0=0 IntGTp=1.
 FoFCou: FMM=F IPFlag=           0 FMFlag=      100000 FMFlg1=           0
         NFxFlg=           0 DoJE=F BraDBF=F KetDBF=F FulRan=T
         wScrn=  0.000000 ICntrl=         0 IOpCl=  0 I1Cent=           0 NGrid=           0
         NMat0=    1 NMatS0=      1 NMatT0=    0 NMatD0=    1 NMtDS0=    0 NMtDT0=    0
 Symmetry not used in FoFCou.
 E= -270.234938859827    
 DIIS: error= 2.63D-02 at cycle   1 NSaved=   1.
 NSaved= 1 IEnMin= 1 EnMin= -270.234938859827     IErMin= 1 ErrMin= 2.63D-02
 ErrMax= 2.63D-02  0.00D+00 EMaxC= 1.00D-01 BMatC= 1.13D-01 BMatP= 1.13D-01
 IDIUse=3 WtCom= 7.37D-01 WtEn= 2.63D-01
 Coeff-Com:  0.100D+01
 Coeff-En:   0.100D+01
 Coeff:      0.100D+01
 Gap=     0.087 Goal=   None    Shift=    0.000
 GapD=    0.087 DampG=0.500 DampE=0.500 DampFc=0.2500 IDamp=-1.
 Damping current iteration by 2.50D-01
 RMSDP=1.44D-02 MaxDP=2.83D-01              OVMax= 3.17D-01

 Cycle   2  Pass 1  IDiag  1:
 RMSU=  3.60D-03    CP:  9.95D-01
 E= -270.278887252201     Delta-E=       -0.043948392374 Rises=F Damp=T
 DIIS: error= 1.26D-02 at cycle   2 NSaved=   2.
 NSaved= 2 IEnMin= 2 EnMin= -270.278887252201     IErMin= 2 ErrMin= 1.26D-02
 ErrMax= 1.26D-02  0.00D+00 EMaxC= 1.00D-01 BMatC= 2.93D-02 BMatP= 1.13D-01
 IDIUse=3 WtCom= 8.74D-01 WtEn= 1.26D-01
 Coeff-Com: -0.729D+00 0.173D+01
 Coeff-En:   0.000D+00 0.100D+01
 Coeff:     -0.637D+00 0.164D+01
 Gap=     0.102 Goal=   None    Shift=    0.000
 RMSDP=4.58D-03 MaxDP=8.30D-02 DE=-4.39D-02 OVMax= 3.28D-01

 Cycle   3  Pass 1  IDiag  1:
 RMSU=  4.07D-03    CP:  9.76D-01  4.35D-01
 E= -270.334955774860     Delta-E=       -0.056068522659 Rises=F Damp=F
 DIIS: error= 8.18D-03 at cycle   3 NSaved=   3.
 NSaved= 3 IEnMin= 3 EnMin= -270.334955774860     IErMin= 3 ErrMin= 8.18D-03
 ErrMax= 8.18D-03  0.00D+00 EMaxC= 1.00D-01 BMatC= 1.93D-02 BMatP= 2.93D-02
 IDIUse=3 WtCom= 9.18D-01 WtEn= 8.18D-02
 Coeff-Com: -0.495D+00 0.107D+01 0.424D+00
 Coeff-En:   0.000D+00 0.000D+00 0.100D+01
 Coeff:     -0.455D+00 0.984D+00 0.471D+00
 Gap=     0.095 Goal=   None    Shift=    0.000
 RMSDP=4.08D-03 MaxDP=7.43D-02 DE=-5.61D-02 OVMax= 2.12D-01

 Cycle   4  Pass 1  IDiag  1:
 RMSU=  2.38D-03    CP:  9.79D-01  1.07D+00  4.11D-01
 E= -270.344149510612     Delta-E=       -0.009193735752 Rises=F Damp=F
 DIIS: error= 6.34D-03 at cycle   4 NSaved=   4.
 NSaved= 4 IEnMin= 4 EnMin= -270.344149510612     IErMin= 4 ErrMin= 6.34D-03
 ErrMax= 6.34D-03  0.00D+00 EMaxC= 1.00D-01 BMatC= 1.24D-02 BMatP= 1.93D-02
 IDIUse=3 WtCom= 9.37D-01 WtEn= 6.34D-02
 Coeff-Com: -0.182D+00 0.376D+00 0.403D+00 0.403D+00
 Coeff-En:   0.000D+00 0.000D+00 0.419D+00 0.581D+00
 Coeff:     -0.170D+00 0.352D+00 0.404D+00 0.414D+00
 Gap=     0.101 Goal=   None    Shift=    0.000
 RMSDP=1.91D-03 MaxDP=3.77D-02 DE=-9.19D-03 OVMax= 1.05D-01

 Cycle   5  Pass 1  IDiag  1:
 RMSU=  7.36D-04    CP:  9.79D-01  7.88D-01  6.02D-01  4.89D-01
 E= -270.358643678076     Delta-E=       -0.014494167463 Rises=F Damp=F
 DIIS: error= 1.55D-03 at cycle   5 NSaved=   5.
 NSaved= 5 IEnMin= 5 EnMin= -270.358643678076     IErMin= 5 ErrMin= 1.55D-03
 ErrMax= 1.55D-03  0.00D+00 EMaxC= 1.00D-01 BMatC= 8.64D-04 BMatP= 1.24D-02
 IDIUse=3 WtCom= 9.84D-01 WtEn= 1.55D-02
 Coeff-Com: -0.432D-01 0.907D-01 0.212D+00 0.281D+00 0.459D+00
 Coeff-En:   0.000D+00 0.000D+00 0.000D+00 0.276D-01 0.972D+00
 Coeff:     -0.426D-01 0.893D-01 0.209D+00 0.277D+00 0.467D+00
 Gap=     0.103 Goal=   None    Shift=    0.000
 RMSDP=3.92D-04 MaxDP=7.00D-03 DE=-1.45D-02 OVMax= 1.82D-02

 Cycle   6  Pass 1  IDiag  1:
 RMSU=  2.56D-04    CP:  9.79D-01  7.97D-01  6.25D-01  5.40D-01  6.59D-01
 E= -270.359508813012     Delta-E=       -0.000865134936 Rises=F Damp=F
 DIIS: error= 4.40D-04 at cycle   6 NSaved=   6.
 NSaved= 6 IEnMin= 6 EnMin= -270.359508813012     IErMin= 6 ErrMin= 4.40D-04
 ErrMax= 4.40D-04  0.00D+00 EMaxC= 1.00D-01 BMatC= 6.30D-05 BMatP= 8.64D-04
 IDIUse=3 WtCom= 9.96D-01 WtEn= 4.40D-03
 Coeff-Com:  0.374D-02-0.716D-02 0.497D-01 0.854D-01 0.262D+00 0.607D+00
 Coeff-En:   0.000D+00 0.000D+00 0.000D+00 0.000D+00 0.494D-01 0.951D+00
 Coeff:      0.372D-02-0.713D-02 0.495D-01 0.850D-01 0.261D+00 0.608D+00
 Gap=     0.103 Goal=   None    Shift=    0.000
 RMSDP=1.21D-04 MaxDP=1.81D-03 DE=-8.65D-04 OVMax= 4.71D-03

 Cycle   7  Pass 1  IDiag  1:
 RMSU=  7.28D-05    CP:  9.78D-01  7.88D-01  6.30D-01  5.52D-01  6.50D-01
                    CP:  6.72D-01
 E= -270.359574355226     Delta-E=       -0.000065542214 Rises=F Damp=F
 DIIS: error= 8.62D-05 at cycle   7 NSaved=   7.
 NSaved= 7 IEnMin= 7 EnMin= -270.359574355226     IErMin= 7 ErrMin= 8.62D-05
 ErrMax= 8.62D-05  0.00D+00 EMaxC= 1.00D-01 BMatC= 2.68D-06 BMatP= 6.30D-05
 IDIUse=1 WtCom= 1.00D+00 WtEn= 0.00D+00
 Coeff-Com:  0.212D-02-0.428D-02 0.157D-01 0.277D-01 0.102D+00 0.290D+00
 Coeff-Com:  0.567D+00
 Coeff:      0.212D-02-0.428D-02 0.157D-01 0.277D-01 0.102D+00 0.290D+00
 Coeff:      0.567D+00
 Gap=     0.103 Goal=   None    Shift=    0.000
 RMSDP=2.39D-05 MaxDP=3.80D-04 DE=-6.55D-05 OVMax= 7.52D-04

 Cycle   8  Pass 1  IDiag  1:
 RMSU=  1.71D-05    CP:  9.78D-01  7.86D-01  6.29D-01  5.52D-01  6.54D-01
                    CP:  6.93D-01  8.27D-01
 E= -270.359576608262     Delta-E=       -0.000002253036 Rises=F Damp=F
 DIIS: error= 5.24D-05 at cycle   8 NSaved=   8.
 NSaved= 8 IEnMin= 8 EnMin= -270.359576608262     IErMin= 8 ErrMin= 5.24D-05
 ErrMax= 5.24D-05  0.00D+00 EMaxC= 1.00D-01 BMatC= 5.05D-07 BMatP= 2.68D-06
 IDIUse=1 WtCom= 1.00D+00 WtEn= 0.00D+00
 Coeff-Com:  0.534D-03-0.107D-02-0.146D-03-0.375D-03 0.967D-02 0.601D-01
 Coeff-Com:  0.325D+00 0.606D+00
 Coeff:      0.534D-03-0.107D-02-0.146D-03-0.375D-03 0.967D-02 0.601D-01
 Coeff:      0.325D+00 0.606D+00
 Gap=     0.103 Goal=   None    Shift=    0.000
 RMSDP=1.16D-05 MaxDP=1.94D-04 DE=-2.25D-06 OVMax= 5.60D-04

 Cycle   9  Pass 1  IDiag  1:
 RMSU=  7.24D-06    CP:  9.78D-01  7.86D-01  6.30D-01  5.50D-01  6.61D-01
                    CP:  6.99D-01  8.55D-01  8.18D-01
 E= -270.359577095548     Delta-E=       -0.000000487286 Rises=F Damp=F
 DIIS: error= 1.67D-05 at cycle   9 NSaved=   9.
 NSaved= 9 IEnMin= 9 EnMin= -270.359577095548     IErMin= 9 ErrMin= 1.67D-05
 ErrMax= 1.67D-05  0.00D+00 EMaxC= 1.00D-01 BMatC= 5.47D-08 BMatP= 5.05D-07
 IDIUse=1 WtCom= 1.00D+00 WtEn= 0.00D+00
 Coeff-Com:  0.219D-03-0.448D-03-0.928D-03-0.163D-02 0.664D-03 0.247D-01
 Coeff-Com:  0.173D+00 0.387D+00 0.418D+00
 Coeff:      0.219D-03-0.448D-03-0.928D-03-0.163D-02 0.664D-03 0.247D-01
 Coeff:      0.173D+00 0.387D+00 0.418D+00
 Gap=     0.103 Goal=   None    Shift=    0.000
 RMSDP=2.88D-06 MaxDP=3.95D-05 DE=-4.87D-07 OVMax= 1.24D-04

 Cycle  10  Pass 1  IDiag  1:
 RMSU=  2.13D-06    CP:  9.78D-01  7.86D-01  6.30D-01  5.50D-01  6.60D-01
                    CP:  7.03D-01  8.58D-01  8.45D-01  9.48D-01
 E= -270.359577149540     Delta-E=       -0.000000053992 Rises=F Damp=F
 DIIS: error= 3.53D-06 at cycle  10 NSaved=  10.
 NSaved=10 IEnMin=10 EnMin= -270.359577149540     IErMin=10 ErrMin= 3.53D-06
 ErrMax= 3.53D-06  0.00D+00 EMaxC= 1.00D-01 BMatC= 5.80D-09 BMatP= 5.47D-08
 IDIUse=1 WtCom= 1.00D+00 WtEn= 0.00D+00
 Coeff-Com: -0.155D-04 0.364D-04-0.529D-03-0.921D-03-0.278D-02-0.899D-03
 Coeff-Com:  0.106D-01 0.781D-01 0.236D+00 0.680D+00
 Coeff:     -0.155D-04 0.364D-04-0.529D-03-0.921D-03-0.278D-02-0.899D-03
 Coeff:      0.106D-01 0.781D-01 0.236D+00 0.680D+00
 Gap=     0.103 Goal=   None    Shift=    0.000
 RMSDP=1.43D-06 MaxDP=2.58D-05 DE=-5.40D-08 OVMax= 5.96D-05

 Cycle  11  Pass 1  IDiag  1:
 RMSU=  7.32D-07    CP:  9.78D-01  7.86D-01  6.30D-01  5.50D-01  6.61D-01
                    CP:  7.04D-01  8.65D-01  8.75D-01  1.05D+00  9.04D-01
 E= -270.359577155999     Delta-E=       -0.000000006459 Rises=F Damp=F
 DIIS: error= 1.89D-06 at cycle  11 NSaved=  11.
 NSaved=11 IEnMin=11 EnMin= -270.359577155999     IErMin=11 ErrMin= 1.89D-06
 ErrMax= 1.89D-06  0.00D+00 EMaxC= 1.00D-01 BMatC= 6.39D-10 BMatP= 5.80D-09
 IDIUse=1 WtCom= 1.00D+00 WtEn= 0.00D+00
 Coeff-Com: -0.821D-05 0.255D-04-0.119D-03-0.252D-03-0.124D-02-0.187D-02
 Coeff-Com: -0.115D-01 0.336D-02 0.343D-01 0.271D+00 0.706D+00
 Coeff:     -0.821D-05 0.255D-04-0.119D-03-0.252D-03-0.124D-02-0.187D-02
 Coeff:     -0.115D-01 0.336D-02 0.343D-01 0.271D+00 0.706D+00
 Gap=     0.103 Goal=   None    Shift=    0.000
 RMSDP=5.68D-07 MaxDP=9.93D-06 DE=-6.46D-09 OVMax= 1.73D-05

 Cycle  12  Pass 1  IDiag  1:
 RMSU=  2.70D-07    CP:  9.78D-01  7.85D-01  6.30D-01  5.50D-01  6.61D-01
                    CP:  7.04D-01  8.65D-01  8.86D-01  1.09D+00  9.89D-01
                    CP:  1.20D+00
 E= -270.359577156642     Delta-E=       -0.000000000642 Rises=F Damp=F
 DIIS: error= 7.29D-07 at cycle  12 NSaved=  12.
 NSaved=12 IEnMin=12 EnMin= -270.359577156642     IErMin=12 ErrMin= 7.29D-07
 ErrMax= 7.29D-07  0.00D+00 EMaxC= 1.00D-01 BMatC= 2.13D-10 BMatP= 6.39D-10
 IDIUse=1 WtCom= 1.00D+00 WtEn= 0.00D+00
 Coeff-Com:  0.602D-05-0.318D-05 0.427D-04 0.279D-04-0.238D-03-0.790D-03
 Coeff-Com: -0.102D-01-0.125D-01-0.343D-01 0.407D-01 0.486D+00 0.532D+00
 Coeff:      0.602D-05-0.318D-05 0.427D-04 0.279D-04-0.238D-03-0.790D-03
 Coeff:     -0.102D-01-0.125D-01-0.343D-01 0.407D-01 0.486D+00 0.532D+00
 Gap=     0.103 Goal=   None    Shift=    0.000
 RMSDP=2.46D-07 MaxDP=5.39D-06 DE=-6.42D-10 OVMax= 6.05D-06

 Cycle  13  Pass 1  IDiag  1:
 RMSU=  1.02D-07    CP:  9.78D-01  7.85D-01  6.30D-01  5.50D-01  6.61D-01
                    CP:  7.04D-01  8.64D-01  8.91D-01  1.10D+00  1.02D+00
                    CP:  1.28D+00  8.83D-01
 E= -270.359577156888     Delta-E=       -0.000000000247 Rises=F Damp=F
 DIIS: error= 1.80D-07 at cycle  13 NSaved=  13.
 NSaved=13 IEnMin=13 EnMin= -270.359577156888     IErMin=13 ErrMin= 1.80D-07
 ErrMax= 1.80D-07  0.00D+00 EMaxC= 1.00D-01 BMatC= 7.61D-12 BMatP= 2.13D-10
 IDIUse=1 WtCom= 1.00D+00 WtEn= 0.00D+00
 Coeff-Com:  0.553D-05-0.745D-05 0.255D-04 0.253D-04 0.448D-04 0.512D-04
 Coeff-Com: -0.150D-02-0.263D-02-0.123D-01-0.132D-01 0.415D-01 0.422D-01
 Coeff-Com:  0.946D+00
 Coeff:      0.553D-05-0.745D-05 0.255D-04 0.253D-04 0.448D-04 0.512D-04
 Coeff:     -0.150D-02-0.263D-02-0.123D-01-0.132D-01 0.415D-01 0.422D-01
 Coeff:      0.946D+00
 Gap=     0.103 Goal=   None    Shift=    0.000
 RMSDP=8.84D-08 MaxDP=1.63D-06 DE=-2.47D-10 OVMax= 2.79D-06

 Cycle  14  Pass 1  IDiag  1:
 RMSU=  2.64D-08    CP:  9.78D-01  7.85D-01  6.30D-01  5.50D-01  6.61D-01
                    CP:  7.05D-01  8.64D-01  8.92D-01  1.11D+00  1.03D+00
                    CP:  1.34D+00  9.58D-01  1.18D+00
 E= -270.359577156895     Delta-E=       -0.000000000007 Rises=F Damp=F
 DIIS: error= 3.67D-08 at cycle  14 NSaved=  14.
 NSaved=14 IEnMin=14 EnMin= -270.359577156895     IErMin=14 ErrMin= 3.67D-08
 ErrMax= 3.67D-08  0.00D+00 EMaxC= 1.00D-01 BMatC= 3.47D-13 BMatP= 7.61D-12
 IDIUse=1 WtCom= 1.00D+00 WtEn= 0.00D+00
 Coeff-Com:  0.118D-05-0.183D-05 0.911D-06 0.112D-05 0.182D-04 0.842D-04
 Coeff-Com:  0.570D-03 0.793D-03 0.143D-02-0.264D-02-0.280D-01-0.507D-01
 Coeff-Com:  0.707D-01 0.101D+01
 Coeff:      0.118D-05-0.183D-05 0.911D-06 0.112D-05 0.182D-04 0.842D-04
 Coeff:      0.570D-03 0.793D-03 0.143D-02-0.264D-02-0.280D-01-0.507D-01
 Coeff:      0.707D-01 0.101D+01
 Gap=     0.103 Goal=   None    Shift=    0.000
 RMSDP=1.84D-08 MaxDP=2.27D-07 DE=-7.16D-12 OVMax= 8.36D-07

 Cycle  15  Pass 1  IDiag  1:
 RMSU=  8.17D-09    CP:  9.78D-01  7.85D-01  6.30D-01  5.50D-01  6.61D-01
                    CP:  7.05D-01  8.64D-01  8.92D-01  1.11D+00  1.03D+00
                    CP:  1.34D+00  9.79D-01  1.26D+00  1.17D+00
 E= -270.359577156897     Delta-E=       -0.000000000001 Rises=F Damp=F
 DIIS: error= 6.75D-09 at cycle  15 NSaved=  15.
 NSaved=15 IEnMin=15 EnMin= -270.359577156897     IErMin=15 ErrMin= 6.75D-09
 ErrMax= 6.75D-09  0.00D+00 EMaxC= 1.00D-01 BMatC= 9.81D-15 BMatP= 3.47D-13
 IDIUse=1 WtCom= 1.00D+00 WtEn= 0.00D+00
 Coeff-Com:  0.458D-07-0.524D-07-0.440D-06-0.684D-06-0.661D-06 0.509D-05
 Coeff-Com:  0.770D-04 0.130D-03 0.515D-03 0.610D-03-0.293D-02-0.583D-02
 Coeff-Com: -0.354D-01 0.608D-01 0.982D+00
 Coeff:      0.458D-07-0.524D-07-0.440D-06-0.684D-06-0.661D-06 0.509D-05
 Coeff:      0.770D-04 0.130D-03 0.515D-03 0.610D-03-0.293D-02-0.583D-02
 Coeff:     -0.354D-01 0.608D-01 0.982D+00
 Gap=     0.103 Goal=   None    Shift=    0.000
 RMSDP=3.40D-09 MaxDP=6.00D-08 DE=-1.25D-12 OVMax= 1.16D-07

 SCF Done:  E(RB3LYP) =  -270.359577157     A.U. after   15 cycles
            NFock= 15  Conv=0.34D-08     -V/T= 2.0125
 KE= 2.670176365402D+02 PE=-1.065629844160D+03 EE= 3.093423339995D+02
 Leave Link  502 at Tue Oct 15 11:52:16 2019, MaxMem=   280000000 cpu:             109.5 elap:               4.7
 (Enter /home/soft/g16/l801.exe)
 DoSCS=F DFT=T ScalE2(SS,OS)=  1.000000  1.000000
 Range of M.O.s used for correlation:     1   130
 NBasis=   130 NAE=    23 NBE=    23 NFC=     0 NFV=     0
 NROrb=    130 NOA=    23 NOB=    23 NVA=   107 NVB=   107

 **** Warning!!: The largest alpha MO coefficient is  0.48023837D+02

 Leave Link  801 at Tue Oct 15 11:52:16 2019, MaxMem=   280000000 cpu:               0.6 elap:               0.0
 (Enter /home/soft/g16/l1101.exe)
 Using compressed storage, NAtomX=    14.
 Will process     15 centers per pass.
 Leave Link 1101 at Tue Oct 15 11:52:16 2019, MaxMem=   280000000 cpu:               3.7 elap:               0.2
 (Enter /home/soft/g16/l1102.exe)
 Symmetrizing basis deriv contribution to polar:
 IMax=3 JMax=2 DiffMx= 0.00D+00
 Leave Link 1102 at Tue Oct 15 11:52:16 2019, MaxMem=   280000000 cpu:               0.8 elap:               0.1
 (Enter /home/soft/g16/l1110.exe)
 Forming Gx(P) for the SCF density, NAtomX=    14.
 Integral derivatives from FoFJK, PRISM(SPDF).
 Do as many integral derivatives as possible in FoFJK.
 G2DrvN: MDV=     279998856.
 G2DrvN: will do    15 centers at a time, making    1 passes.
 Calling FoFCou, ICntrl=  3107 FMM=F I1Cent=   0 AccDes= 0.00D+00.
 FoFJK:  IHMeth= 1 ICntrl=    3107 DoSepK=F KAlg= 0 I1Cent=           0 FoldK=F
 IRaf=         0 NMat=       1 IRICut=       1 DoRegI=T DoRafI=F ISym2E= 0 IDoP0=0 IntGTp=1.
 FoFCou: FMM=F IPFlag=           0 FMFlag=      100000 FMFlg1=           0
         NFxFlg=           0 DoJE=F BraDBF=F KetDBF=F FulRan=T
         wScrn=  0.000000 ICntrl=      3107 IOpCl=  0 I1Cent=           0 NGrid=           0
         NMat0=    1 NMatS0=      1 NMatT0=    0 NMatD0=    1 NMtDS0=    0 NMtDT0=    0
 Symmetry not used in FoFCou.
 End of G2Drv F.D. properties file   721 does not exist.
 End of G2Drv F.D. properties file   722 does not exist.
 End of G2Drv F.D. properties file   788 does not exist.
 Leave Link 1110 at Tue Oct 15 11:52:22 2019, MaxMem=   280000000 cpu:             133.7 elap:               5.7
 (Enter /home/soft/g16/l1002.exe)
 Minotr:  Closed shell wavefunction.
          IDoAtm=11111111111111
          Direct CPHF calculation.
          Differentiating once with respect to nuclear coordinates.
          Requested convergence is 1.0D-08 RMS, and 1.0D-07 maximum.
          Secondary convergence is 1.0D-12 RMS, and 1.0D-12 maximum.
          NewPWx=T KeepS1=F KeepF1=F KeepIn=T MapXYZ=F SortEE=F KeepMc=T.
         4236 words used for storage of precomputed grid.
 Keep R1 ints in memory in canonical form, NReq=59094296.
 FoFCou: FMM=F IPFlag=           0 FMFlag=           0 FMFlg1=           0
         NFxFlg=           0 DoJE=F BraDBF=F KetDBF=F FulRan=T
         wScrn=  0.000000 ICntrl=       600 IOpCl=  0 I1Cent=           0 NGrid=           0
         NMat0=    1 NMatS0=   8515 NMatT0=    0 NMatD0=    1 NMtDS0=    0 NMtDT0=    0
 Symmetry not used in FoFCou.
 Two-electron integral symmetry not used.
          MDV=     280000000 using IRadAn=       1.
          Solving linear equations simultaneously, MaxMat=       0.
          There are    45 degrees of freedom in the 1st order CPHF.  IDoFFX=6 NUNeed=     0.
     39 vectors produced by pass  0 Test12= 5.47D-15 2.22D-09 XBig12= 1.41D-01 1.66D-01.
 AX will form    39 AO Fock derivatives at one time.
     39 vectors produced by pass  1 Test12= 5.47D-15 2.22D-09 XBig12= 2.46D-02 3.78D-02.
     39 vectors produced by pass  2 Test12= 5.47D-15 2.22D-09 XBig12= 1.93D-04 2.19D-03.
     39 vectors produced by pass  3 Test12= 5.47D-15 2.22D-09 XBig12= 5.88D-07 1.29D-04.
     39 vectors produced by pass  4 Test12= 5.47D-15 2.22D-09 XBig12= 7.85D-10 4.41D-06.
     34 vectors produced by pass  5 Test12= 5.47D-15 2.22D-09 XBig12= 8.52D-13 1.16D-07.
      3 vectors produced by pass  6 Test12= 5.47D-15 2.22D-09 XBig12= 8.15D-16 3.57D-09.
 InvSVY:  IOpt=1 It=  1 EMax= 2.33D-15
 Solved reduced A of dimension   232 with    39 vectors.
 End of Minotr F.D. properties file   721 does not exist.
 End of Minotr F.D. properties file   722 does not exist.
 End of Minotr F.D. properties file   788 does not exist.
 Leave Link 1002 at Tue Oct 15 11:52:29 2019, MaxMem=   280000000 cpu:             161.1 elap:               6.8
 (Enter /home/soft/g16/l601.exe)
 Copying SCF densities to generalized density rwf, IOpCl= 0 IROHF=0.

 **********************************************************************

            Population analysis using the SCF density.

 **********************************************************************

 Orbital symmetries:
       Occupied  (A) (A) (A) (A) (A) (A) (A) (A) (A) (A) (A) (A)
                 (A) (A) (A) (A) (A) (A) (A) (A) (A) (A) (A)
       Virtual   (A) (A) (A) (A) (A) (A) (A) (A) (A) (A) (A) (A)
                 (A) (A) (A) (A) (A) (A) (A) (A) (A) (A) (A) (A)
                 (A) (A) (A) (A) (A) (A) (A) (A) (A) (A) (A) (A)
                 (A) (A) (A) (A) (A) (A) (A) (A) (A) (A) (A) (A)
                 (A) (A) (A) (A) (A) (A) (A) (A) (A) (A) (A) (A)
                 (A) (A) (A) (A) (A) (A) (A) (A) (A) (A) (A) (A)
                 (A) (A) (A) (A) (A) (A) (A) (A) (A) (A) (A) (A)
                 (A) (A) (A) (A) (A) (A) (A) (A) (A) (A) (A) (A)
                 (A) (A) (A) (A) (A) (A) (A) (A) (A) (A) (A)
 The electronic state is 1-A.
 Alpha  occ. eigenvalues --  -19.18507 -10.26120 -10.25556 -10.22532 -10.21078
 Alpha  occ. eigenvalues --  -10.20947  -1.02208  -0.76988  -0.74007  -0.68012
 Alpha  occ. eigenvalues --   -0.58631  -0.55095  -0.47879  -0.45733  -0.44599
 Alpha  occ. eigenvalues --   -0.42452  -0.41616  -0.38990  -0.37399  -0.36367
 Alpha  occ. eigenvalues --   -0.31322  -0.27290  -0.17582
 Alpha virt. eigenvalues --   -0.07277  -0.05668   0.00708   0.02158   0.02374
 Alpha virt. eigenvalues --    0.02939   0.04266   0.05135   0.06854   0.07244
 Alpha virt. eigenvalues --    0.07527   0.08428   0.09721   0.10592   0.11245
 Alpha virt. eigenvalues --    0.11789   0.12304   0.13433   0.14176   0.15028
 Alpha virt. eigenvalues --    0.16166   0.17220   0.18606   0.20885   0.22157
 Alpha virt. eigenvalues --    0.23968   0.24680   0.25630   0.27100   0.28871
 Alpha virt. eigenvalues --    0.29221   0.30128   0.31752   0.32858   0.33630
 Alpha virt. eigenvalues --    0.35643   0.36345   0.37709   0.40080   0.58788
 Alpha virt. eigenvalues --    0.63043   0.64357   0.66088   0.67512   0.70100
 Alpha virt. eigenvalues --    0.71607   0.72251   0.74593   0.75482   0.77036
 Alpha virt. eigenvalues --    0.80105   0.83304   0.89079   0.91183   0.94451
 Alpha virt. eigenvalues --    0.96172   0.97950   1.00354   1.04590   1.07078
 Alpha virt. eigenvalues --    1.08270   1.08681   1.11655   1.14737   1.20354
 Alpha virt. eigenvalues --    1.21192   1.26654   1.29659   1.35165   1.40440
 Alpha virt. eigenvalues --    1.45729   1.50246   1.53060   1.57837   1.61179
 Alpha virt. eigenvalues --    1.69953   1.76440   1.76979   1.80634   1.82496
 Alpha virt. eigenvalues --    1.86172   1.92540   1.95009   1.98918   2.02543
 Alpha virt. eigenvalues --    2.06512   2.11264   2.19967   2.23081   2.23982
 Alpha virt. eigenvalues --    2.28135   2.29447   2.39372   2.42216   2.44603
 Alpha virt. eigenvalues --    2.54815   2.58805   2.65660   2.70057   2.84782
 Alpha virt. eigenvalues --    2.94731   4.11368   4.21345   4.23843   4.30269
 Alpha virt. eigenvalues --    4.42199   4.45987
          Condensed to atoms (all electrons):
               1          2          3          4          5          6
     1  C    5.666068   0.381804   0.354437   0.356925  -0.086041  -0.040401
     2  H    0.381804   0.487502  -0.041856  -0.018220  -0.004114  -0.003902
     3  H    0.354437  -0.041856   0.537414  -0.048287   0.008582   0.010056
     4  C    0.356925  -0.018220  -0.048287   5.225064   0.306895  -0.261536
     5  O   -0.086041  -0.004114   0.008582   0.306895   8.130928   0.120341
     6  C   -0.040401  -0.003902   0.010056  -0.261536   0.120341   5.835407
     7  H    0.006364  -0.000049   0.000002  -0.023536  -0.011466   0.405887
     8  H   -0.002123   0.000143  -0.000008   0.020496  -0.016749   0.374005
     9  C   -0.129590  -0.018427   0.004979   0.076582  -0.046762   0.076711
    10  H    0.006978  -0.000093  -0.000005  -0.011036   0.001712  -0.014942
    11  C    0.150790  -0.016201  -0.008488  -0.185951  -0.013692   0.038079
    12  H   -0.031567  -0.000140   0.000213  -0.037251   0.001894   0.009533
    13  H   -0.009705   0.000611  -0.000021   0.017781  -0.000127   0.007425
    14  H   -0.108616   0.003588  -0.002648   0.422720  -0.062944   0.007261
               7          8          9         10         11         12
     1  C    0.006364  -0.002123  -0.129590   0.006978   0.150790  -0.031567
     2  H   -0.000049   0.000143  -0.018427  -0.000093  -0.016201  -0.000140
     3  H    0.000002  -0.000008   0.004979  -0.000005  -0.008488   0.000213
     4  C   -0.023536   0.020496   0.076582  -0.011036  -0.185951  -0.037251
     5  O   -0.011466  -0.016749  -0.046762   0.001712  -0.013692   0.001894
     6  C    0.405887   0.374005   0.076711  -0.014942   0.038079   0.009533
     7  H    0.505056  -0.046473  -0.067136   0.005304  -0.010934   0.000184
     8  H   -0.046473   0.522939  -0.076391  -0.004958   0.011073  -0.000106
     9  C   -0.067136  -0.076391   5.706135   0.350305   0.203099  -0.050941
    10  H    0.005304  -0.004958   0.350305   0.522308  -0.048391   0.003567
    11  C   -0.010934   0.011073   0.203099  -0.048391   5.560504   0.415347
    12  H    0.000184  -0.000106  -0.050941   0.003567   0.415347   0.515418
    13  H   -0.000161  -0.000007  -0.086975  -0.008781   0.381546  -0.048946
    14  H    0.000016  -0.000054  -0.006010   0.000004  -0.000067  -0.000173
              13         14
     1  C   -0.009705  -0.108616
     2  H    0.000611   0.003588
     3  H   -0.000021  -0.002648
     4  C    0.017781   0.422720
     5  O   -0.000127  -0.062944
     6  C    0.007425   0.007261
     7  H   -0.000161   0.000016
     8  H   -0.000007  -0.000054
     9  C   -0.086975  -0.006010
    10  H   -0.008781   0.000004
    11  C    0.381546  -0.000067
    12  H   -0.048946  -0.000173
    13  H    0.558454  -0.000009
    14  H   -0.000009   0.566328
 Mulliken charges:
               1
     1  C   -0.515323
     2  H    0.229352
     3  H    0.185629
     4  C    0.159353
     5  O   -0.328455
     6  C   -0.563924
     7  H    0.236940
     8  H    0.218210
     9  C    0.064421
    10  H    0.198027
    11  C   -0.476715
    12  H    0.222967
    13  H    0.188915
    14  H    0.180604
 Sum of Mulliken charges =  -0.00000
 Mulliken charges with hydrogens summed into heavy atoms:
               1
     1  C   -0.100341
     4  C    0.339956
     5  O   -0.328455
     6  C   -0.108774
     9  C    0.262447
    11  C   -0.064833
 APT charges:
               1
     1  C   -1.072164
     2  H    0.492949
     3  H    0.546314
     4  C   -0.263169
     5  O   -0.378192
     6  C   -1.178239
     7  H    0.592772
     8  H    0.520030
     9  C   -0.296829
    10  H    0.621742
    11  C   -1.215868
    12  H    0.574795
    13  H    0.498019
    14  H    0.557840
 Sum of APT charges =  -0.00000
 APT charges with hydrogens summed into heavy atoms:
               1
     1  C   -0.032900
     4  C    0.294671
     5  O   -0.378192
     6  C   -0.065438
     9  C    0.324913
    11  C   -0.143054
 Electronic spatial extent (au):  <R**2>=            615.2224
 Charge=             -0.0000 electrons
 Dipole moment (field-independent basis, Debye):
    X=             -0.9249    Y=              1.0944    Z=             -0.3830  Tot=              1.4831
 Quadrupole moment (field-independent basis, Debye-Ang):
   XX=            -36.6338   YY=            -37.2704   ZZ=            -38.0133
   XY=              4.2756   XZ=             -1.4904   YZ=              0.0664
 Traceless Quadrupole moment (field-independent basis, Debye-Ang):
   XX=              0.6721   YY=              0.0355   ZZ=             -0.7075
   XY=              4.2756   XZ=             -1.4904   YZ=              0.0664
 Octapole moment (field-independent basis, Debye-Ang**2):
  XXX=              5.9742  YYY=             -4.0533  ZZZ=              0.3145  XYY=             -5.7155
  XXY=              0.9036  XXZ=             -1.1140  XZZ=              3.4451  YZZ=             -0.7365
  YYZ=             -0.1549  XYZ=              0.4676
 Hexadecapole moment (field-independent basis, Debye-Ang**3):
 XXXX=           -419.7218 YYYY=           -346.4448 ZZZZ=            -78.8695 XXXY=              2.1499
 XXXZ=            -17.1951 YYYX=              9.4901 YYYZ=             -2.8412 ZZZX=              1.6056
 ZZZY=              0.0881 XXYY=           -128.8855 XXZZ=            -88.3401 YYZZ=            -66.1704
 XXYZ=             -0.3122 YYXZ=              1.7026 ZZXY=              0.1651
 N-N= 2.189102964637D+02 E-N=-1.065629843984D+03  KE= 2.670176365402D+02
  Exact polarizability:   0.000   0.000   0.000   0.000   0.000   0.000
 Approx polarizability: 234.988   0.920 149.619  -4.823  -1.267  74.837
 No NMR shielding tensors so no spin-rotation constants.
 Leave Link  601 at Tue Oct 15 11:52:29 2019, MaxMem=   280000000 cpu:               5.0 elap:               0.3
 (Enter /home/soft/g16/l701.exe)
 ... and contract with generalized density number  0.
 Compute integral second derivatives.
 Leave Link  701 at Tue Oct 15 11:52:29 2019, MaxMem=   280000000 cpu:               5.1 elap:               0.3
 (Enter /home/soft/g16/l702.exe)
 L702 exits ... SP integral derivatives will be done elsewhere.
 Leave Link  702 at Tue Oct 15 11:52:29 2019, MaxMem=   280000000 cpu:               0.8 elap:               0.1
 (Enter /home/soft/g16/l703.exe)
 Integral derivatives from FoFJK, PRISM(SPDF).
 Compute integral second derivatives, UseDBF=F ICtDFT=           0.
 Calling FoFJK, ICntrl=    100147 FMM=F ISym2X=0 I1Cent= 0 IOpClX= 0 NMat=1 NMatS=1 NMatT=0.
 FoFJK:  IHMeth= 1 ICntrl=  100147 DoSepK=F KAlg= 0 I1Cent=           0 FoldK=F
 IRaf=         0 NMat=       1 IRICut=       1 DoRegI=T DoRafI=F ISym2E= 0 IDoP0=0 IntGTp=1.
 FoFCou: FMM=F IPFlag=           0 FMFlag=      100000 FMFlg1=         800
         NFxFlg=           0 DoJE=F BraDBF=F KetDBF=F FulRan=T
         wScrn=  0.000000 ICntrl=    100147 IOpCl=  0 I1Cent=           0 NGrid=           0
         NMat0=    1 NMatS0=      1 NMatT0=    0 NMatD0=    1 NMtDS0=    0 NMtDT0=    0
 Symmetry not used in FoFCou.
 Leave Link  703 at Tue Oct 15 11:52:37 2019, MaxMem=   280000000 cpu:             180.2 elap:               7.6
 (Enter /home/soft/g16/l716.exe)
 Dipole        =-3.63874628D-01 4.30553727D-01-1.50692966D-01
 Polarizability= 0.00000000D+00 0.00000000D+00 0.00000000D+00
                 0.00000000D+00 0.00000000D+00 0.00000000D+00
 ***** Axes restored to original set *****
 -------------------------------------------------------------------
 Center     Atomic                   Forces (Hartrees/Bohr)
 Number     Number              X              Y              Z
 -------------------------------------------------------------------
      1        6          -0.008448805   -0.002711617   -0.002901358
      2        1          -0.009778303    0.013494328   -0.009586715
      3        1           0.002933206    0.008765465   -0.006398275
      4        6           0.007218478    0.015414442    0.038608425
      5        8           0.024562914    0.030225325   -0.013650680
      6        6           0.031394220    0.033025071    0.002964273
      7        1          -0.001475693   -0.036621966   -0.011583595
      8        1           0.008943915    0.000001414   -0.001578829
      9        6          -0.020411154   -0.058284049   -0.025489903
     10        1           0.007699581   -0.010761127    0.029062123
     11        6          -0.024470201    0.030378615    0.019341276
     12        1          -0.014836754   -0.020253580    0.000030797
     13        1           0.003232290   -0.006197498   -0.004843515
     14        1          -0.006563695    0.003525179   -0.013974025
 -------------------------------------------------------------------
 Cartesian Forces:  Max     0.058284049 RMS     0.019544828
 FormGI is forming the generalized inverse of G from B-inverse, IUseBI=4.
 Leave Link  716 at Tue Oct 15 11:52:37 2019, MaxMem=   280000000 cpu:               1.5 elap:               0.1
 (Enter /home/soft/g16/l103.exe)

 GradGradGradGradGradGradGradGradGradGradGradGradGradGradGradGradGradGrad
 Berny optimization.
 Red2BG is reusing G-inverse.
 Internal  Forces:  Max     0.130075081 RMS     0.035522852
 Search for a saddle point.
 Step number   1 out of a maximum of   61
 All quantities printed in internal units (Hartrees-Bohrs-Radians)
 Swapping is turned off.
 Second derivative matrix not updated -- analytic derivatives used.
 ITU=  0
     Eigenvalues ---   -1.08763  -0.04873   0.00086   0.00740   0.01416
     Eigenvalues ---    0.02248   0.03136   0.03734   0.04118   0.05353
     Eigenvalues ---    0.05661   0.06172   0.07298   0.07830   0.10254
     Eigenvalues ---    0.10755   0.12748   0.13665   0.15117   0.16675
     Eigenvalues ---    0.17358   0.18376   0.20572   0.28924   0.31159
     Eigenvalues ---    0.31771   0.32741   0.33453   0.33789   0.34195
     Eigenvalues ---    0.34891   0.35250   0.37560   0.39385   0.55312
     Eigenvalues ---    0.74429
 Eigenvectors required to have negative eigenvalues:
                          A7        A10       A9        R3        A15
   1                    0.57674   0.49873  -0.21102  -0.21055   0.20796
                          R11       D5        A12       A8        D1
   1                   -0.20375   0.19501  -0.16908  -0.12517  -0.12315
 Eigenvalue     2 is  -4.87D-02 should be greater than     0.000000 Eigenvector:
                          R6        D12       D10       D13       D2
   1                   -0.88165  -0.20618  -0.17705  -0.13946   0.12687
                          D18       R4        D11       D14       D6
   1                    0.12276   0.11552  -0.11033  -0.10749  -0.10070
 RFO step:  Lambda0=3.482375863D-02 Lambda=-1.07161805D-01.
 Linear search not attempted -- option 19 set.
 Maximum step size (   0.300) exceeded in Quadratic search.
    -- Step size scaled by   0.306
 Iteration  1 RMS(Cart)=  0.04078654 RMS(Int)=  0.01127524
 Iteration  2 RMS(Cart)=  0.02083300 RMS(Int)=  0.00009557
 Iteration  3 RMS(Cart)=  0.00001126 RMS(Int)=  0.00009547
 Iteration  4 RMS(Cart)=  0.00000000 RMS(Int)=  0.00009547
 ITry= 1 IFail=0 DXMaxC= 1.93D-01 DCOld= 1.00D+10 DXMaxT= 3.00D-01 DXLimC= 3.00D+00 Rises=F
 Variable       Old X    -DE/DX   Delta X   Delta X   Delta X     New X
                                 (Linear)    (Quad)   (Total)
    R1        2.08440  -0.00985   0.00000  -0.00750  -0.00750   2.07690
    R2        2.07064  -0.00121   0.00000  -0.00147  -0.00147   2.06917
    R3        2.73381  -0.01678   0.00000  -0.04251  -0.04251   2.69130
    R4        2.48636  -0.02979   0.00000   0.02733   0.02733   2.51369
    R5        2.05169   0.00658   0.00000   0.00047   0.00047   2.05216
    R6        3.65719  -0.06915   0.00000  -0.28007  -0.28007   3.37711
    R7        2.07580  -0.00319   0.00000  -0.00263  -0.00263   2.07317
    R8        2.08957  -0.00664   0.00000  -0.00635  -0.00635   2.08322
    R9        2.92404  -0.06965   0.00000  -0.02624  -0.02624   2.89780
   R10        2.05879   0.00003   0.00000  -0.00068  -0.00068   2.05811
   R11        2.81510  -0.03595   0.00000  -0.05596  -0.05596   2.75913
   R12        2.07581  -0.00575   0.00000  -0.00456  -0.00456   2.07126
   R13        2.09146  -0.00344   0.00000  -0.00035  -0.00035   2.09111
    A1        1.85631   0.00840   0.00000   0.01413   0.01389   1.87020
    A2        2.12562  -0.00538   0.00000   0.00310   0.00294   2.12856
    A3        1.92145   0.01099   0.00000   0.01390   0.01373   1.93518
    A4        2.16958  -0.02475   0.00000  -0.00371  -0.00371   2.16587
    A5        2.03167   0.02316   0.00000   0.02427   0.02427   2.05594
    A6        2.07717   0.00400   0.00000  -0.01998  -0.01999   2.05718
    A7        1.94586  -0.13008   0.00000   0.01845   0.01845   1.96432
    A8        1.94158   0.01071   0.00000  -0.03997  -0.03997   1.90160
    A9        1.72913   0.04580   0.00000   0.00003  -0.00000   1.72912
   A10        2.02710  -0.12527   0.00000   0.01132   0.01136   2.03846
   A11        1.84826  -0.00241   0.00000   0.00317   0.00301   1.85126
   A12        1.91406   0.06109   0.00000   0.02424   0.02426   1.93833
   A13        1.99038   0.01620   0.00000  -0.00333  -0.00337   1.98702
   A14        1.96983   0.03340   0.00000  -0.00623  -0.00624   1.96359
   A15        2.17631  -0.05501   0.00000   0.01165   0.01165   2.18795
   A16        2.13660   0.02128   0.00000  -0.00534  -0.00534   2.13126
   A17        2.21336   0.00087   0.00000   0.00685   0.00666   2.22003
   A18        1.81552   0.01702   0.00000   0.02493   0.02468   1.84020
   A19        1.83658   0.00107   0.00000   0.00340   0.00306   1.83964
    D1        0.80783   0.00258   0.00000  -0.02177  -0.02182   0.78601
    D2       -2.22777  -0.02476   0.00000  -0.02710  -0.02721  -2.25497
    D3        2.99677   0.02141   0.00000   0.01601   0.01612   3.01289
    D4       -0.03883  -0.00592   0.00000   0.01068   0.01073  -0.02809
    D5        0.92798  -0.03891   0.00000  -0.00011  -0.00006   0.92792
    D6       -2.32219  -0.00989   0.00000   0.00788   0.00783  -2.31435
    D7        1.80784  -0.01802   0.00000   0.01718   0.01704   1.82488
    D8       -2.53663   0.00461   0.00000   0.00791   0.00798  -2.52864
    D9       -0.39784  -0.00722   0.00000   0.00955   0.00961  -0.38823
   D10       -2.71968   0.00277   0.00000  -0.01254  -0.01253  -2.73220
   D11        0.39018  -0.00808   0.00000  -0.00992  -0.00991   0.38027
   D12        1.34410   0.03657   0.00000   0.01198   0.01200   1.35609
   D13       -1.82923   0.02572   0.00000   0.01460   0.01462  -1.81462
   D14       -0.72502  -0.01378   0.00000  -0.00691  -0.00694  -0.73196
   D15        2.38484  -0.02463   0.00000  -0.00429  -0.00432   2.38051
   D16        1.53039  -0.01403   0.00000  -0.05597  -0.05608   1.47430
   D17       -2.62916   0.00578   0.00000  -0.02007  -0.01996  -2.64912
   D18       -1.64585  -0.02585   0.00000  -0.05309  -0.05320  -1.69905
   D19        0.47779  -0.00604   0.00000  -0.01719  -0.01707   0.46072
         Item               Value     Threshold  Converged?
 Maximum Force            0.130075     0.000450     NO 
 RMS     Force            0.035523     0.000300     NO 
 Maximum Displacement     0.193012     0.001800     NO 
 RMS     Displacement     0.057923     0.001200     NO 
 Predicted change in Energy=-2.526068D-02
 Lowest energy point so far.  Saving SCF results.
 GradGradGradGradGradGradGradGradGradGradGradGradGradGradGradGradGradGrad

 Leave Link  103 at Tue Oct 15 11:52:37 2019, MaxMem=   280000000 cpu:               1.8 elap:               0.1
 (Enter /home/soft/g16/l202.exe)
                          Input orientation:                          
 ---------------------------------------------------------------------
 Center     Atomic      Atomic             Coordinates (Angstroms)
 Number     Number       Type             X           Y           Z
 ---------------------------------------------------------------------
      1          6           0        1.092000   -1.047300    0.265884
      2          1           0        1.202332   -0.968328    1.356525
      3          1           0        1.875415   -1.724572   -0.089779
      4          6           0       -0.157878   -1.351577   -0.345262
      5          8           0       -1.312798   -0.788273   -0.001393
      6          6           0       -1.238894    0.997104   -0.027133
      7          1           0       -1.761284    1.362532   -0.919959
      8          1           0       -1.904822    1.210932    0.824974
      9          6           0        0.150802    1.633311    0.097188
     10          1           0        0.109898    2.653288    0.476828
     11          6           0        1.414439    0.969943   -0.210986
     12          1           0        1.892064    0.877556   -1.193172
     13          1           0        2.167929    1.455645    0.437739
     14          1           0       -0.182767   -2.156625   -1.073673
 ---------------------------------------------------------------------
                    Distance matrix (angstroms):
                    1          2          3          4          5
     1  C    0.000000
     2  H    1.099048   0.000000
     3  H    1.094957   1.765429   0.000000
     4  C    1.424176   2.212042   2.082949   0.000000
     5  O    2.433432   2.863955   3.324030   1.330188   0.000000
     6  C    3.114244   3.425932   4.136467   2.605015   1.787091
     7  H    3.918513   4.404351   4.842003   3.204306   2.381358
     8  H    3.793830   3.832249   4.872797   3.314774   2.242810
     9  C    2.846048   3.075739   3.779501   3.033250   2.831240
    10  H    3.834498   3.883732   4.754340   4.097130   3.754611
    11  C    2.097770   2.501794   2.736348   2.807074   3.251627
    12  H    2.544409   3.222416   2.826451   3.144876   3.803481
    13  H    2.729815   2.766259   3.236915   3.728668   4.164549
    14  H    2.156396   3.039146   2.321816   1.085957   2.073437
                    6          7          8          9         10
     6  C    0.000000
     7  H    1.097072   0.000000
     8  H    1.102393   1.757378   0.000000
     9  C    1.533451   2.182655   2.221187   0.000000
    10  H    2.194576   2.668030   2.502138   1.089106   0.000000
    11  C    2.659834   3.277497   3.485511   1.460071   2.237982
    12  H    3.343177   3.695510   4.312818   2.295253   3.019642
    13  H    3.468834   4.158213   4.098432   2.053373   2.381464
    14  H    3.486639   3.860027   4.232112   3.980678   5.062110
                   11         12         13         14
    11  C    0.000000
    12  H    1.096061   0.000000
    13  H    1.106570   1.752187   0.000000
    14  H    3.615346   3.677697   4.567125   0.000000
 Stoichiometry    C5H8O
 Framework group  C1[X(C5H8O)]
 Deg. of freedom    36
 Full point group                 C1      NOp   1
 RotChk:  IX=0 Diff= 2.69D-02
 Largest Abelian subgroup         C1      NOp   1
 Largest concise Abelian subgroup C1      NOp   1
                         Standard orientation:                         
 ---------------------------------------------------------------------
 Center     Atomic      Atomic             Coordinates (Angstroms)
 Number     Number       Type             X           Y           Z
 ---------------------------------------------------------------------
      1          6           0        0.942878    1.238449    0.323714
      2          1           0        0.802890    1.349297    1.408160
      3          1           0        1.513324    2.108033   -0.018844
      4          6           0        1.451188    0.039111   -0.252036
      5          8           0        1.047939   -1.181456    0.090024
      6          6           0       -0.726515   -1.369519   -0.008163
      7          1           0       -0.974175   -1.950500   -0.905211
      8          1           0       -0.876837   -2.049145    0.846695
      9          6           0       -1.562792   -0.086285    0.065467
     10          1           0       -2.581021   -0.271162    0.404849
     11          6           0       -1.077950    1.256878   -0.238919
     12          1           0       -1.014802    1.730910   -1.225152
     13          1           0       -1.694957    1.939140    0.376156
     14          1           0        2.281210    0.123267   -0.947223
 ---------------------------------------------------------------------
 Rotational constants (GHZ):           4.5150606           3.7872648           2.2254636
 Leave Link  202 at Tue Oct 15 11:52:37 2019, MaxMem=   280000000 cpu:               0.2 elap:               0.0
 (Enter /home/soft/g16/l301.exe)
 Standard basis: 6-31+G(d) (6D, 7F)
 Ernie: Thresh=  0.10000D-02 Tol=  0.10000D-05 Strict=F.
 There are   130 symmetry adapted cartesian basis functions of A   symmetry.
 There are   130 symmetry adapted basis functions of A   symmetry.
   130 basis functions,   224 primitive gaussians,   130 cartesian basis functions
    23 alpha electrons       23 beta electrons
       nuclear repulsion energy       223.2958292298 Hartrees.
 IExCor=  402 DFT=T Ex+Corr=B3LYP ExCW=0 ScaHFX=  0.200000
 ScaDFX=  0.800000  0.720000  1.000000  0.810000 ScalE2=  1.000000  1.000000
 IRadAn=      5 IRanWt=     -1 IRanGd=            0 ICorTp=0 IEmpDi=  4
 NAtoms=   14 NActive=   14 NUniq=   14 SFac= 1.00D+00 NAtFMM=   60 NAOKFM=F Big=F
 Integral buffers will be    131072 words long.
 Raffenetti 2 integral format.
 Two-electron integral symmetry is turned on.
 Leave Link  301 at Tue Oct 15 11:52:37 2019, MaxMem=   280000000 cpu:               1.2 elap:               0.1
 (Enter /home/soft/g16/l302.exe)
 NPDir=0 NMtPBC=     1 NCelOv=     1 NCel=       1 NClECP=     1 NCelD=      1
         NCelK=      1 NCelE2=     1 NClLst=     1 CellRange=     0.0.
 One-electron integrals computed using PRISM.
 One-electron integral symmetry used in STVInt
 NBasis=   130 RedAO= T EigKep=  7.55D-05  NBF=   130
 NBsUse=   130 1.00D-06 EigRej= -1.00D+00 NBFU=   130
 Precomputing XC quadrature grid using
 IXCGrd= 4 IRadAn=           5 IRanWt=          -1 IRanGd=           0 AccXCQ= 0.00D+00.
 Generated NRdTot=       0 NPtTot=           0 NUsed=           0 NTot=          32
 NSgBfM=   130   130   130   130   130 MxSgAt=    14 MxSgA2=    14.
 Leave Link  302 at Tue Oct 15 11:52:37 2019, MaxMem=   280000000 cpu:               3.6 elap:               0.2
 (Enter /home/soft/g16/l303.exe)
 DipDrv:  MaxL=1.
 Leave Link  303 at Tue Oct 15 11:52:37 2019, MaxMem=   280000000 cpu:               1.2 elap:               0.1
 (Enter /home/soft/g16/l401.exe)
 Initial guess from the checkpoint file:  "tsb3.chk"
 B after Tr=    -0.000000    0.000000   -0.000000
         Rot=    0.999980    0.000618    0.002371   -0.005905 Ang=   0.73 deg.
 Guess basis will be translated and rotated to current coordinates.
 JPrj=2 DoOrth=T DoCkMO=T.
 Generating alternative initial guess.
 ExpMin= 4.38D-02 ExpMax= 5.48D+03 ExpMxC= 8.25D+02 IAcc=2 IRadAn=         4 AccDes= 0.00D+00
 Harris functional with IExCor=  402 and IRadAn=       4 diagonalized for initial guess.
 HarFok:  IExCor=  402 AccDes= 0.00D+00 IRadAn=         4 IDoV= 1 UseB2=F ITyADJ=14
 ICtDFT=  3500011 ScaDFX=  1.000000  1.000000  1.000000  1.000000
 FoFCou: FMM=F IPFlag=           0 FMFlag=      100000 FMFlg1=           0
         NFxFlg=           0 DoJE=T BraDBF=F KetDBF=T FulRan=T
         wScrn=  0.000000 ICntrl=       500 IOpCl=  0 I1Cent=   200000004 NGrid=           0
         NMat0=    1 NMatS0=      1 NMatT0=    0 NMatD0=    1 NMtDS0=    0 NMtDT0=    0
 Petite list used in FoFCou.
 Harris En= -270.402888538852    
 Leave Link  401 at Tue Oct 15 11:52:38 2019, MaxMem=   280000000 cpu:               5.9 elap:               0.3
 (Enter /home/soft/g16/l502.exe)
 Integral symmetry usage will be decided dynamically.
 Closed shell SCF:
 Using DIIS extrapolation, IDIIS=  1040.
 NGot=   280000000 LenX=   279961518 LenY=   279944177
 Requested convergence on RMS density matrix=1.00D-08 within 128 cycles.
 Requested convergence on MAX density matrix=1.00D-06.
 Requested convergence on             energy=1.00D-06.
 No special actions if energy rises.
 Fock matrices will be formed incrementally for  20 cycles.

 Cycle   1  Pass 1  IDiag  1:
 FoFJK:  IHMeth= 1 ICntrl=       0 DoSepK=F KAlg= 0 I1Cent=           0 FoldK=F
 IRaf= 990000000 NMat=       1 IRICut=       1 DoRegI=T DoRafI=F ISym2E= 0 IDoP0=0 IntGTp=1.
 FoFCou: FMM=F IPFlag=           0 FMFlag=      100000 FMFlg1=           0
         NFxFlg=           0 DoJE=F BraDBF=F KetDBF=F FulRan=T
         wScrn=  0.000000 ICntrl=         0 IOpCl=  0 I1Cent=           0 NGrid=           0
         NMat0=    1 NMatS0=      1 NMatT0=    0 NMatD0=    1 NMtDS0=    0 NMtDT0=    0
 Symmetry not used in FoFCou.
 E= -270.378153113486    
 DIIS: error= 2.58D-03 at cycle   1 NSaved=   1.
 NSaved= 1 IEnMin= 1 EnMin= -270.378153113486     IErMin= 1 ErrMin= 2.58D-03
 ErrMax= 2.58D-03  0.00D+00 EMaxC= 1.00D-01 BMatC= 2.27D-03 BMatP= 2.27D-03
 IDIUse=3 WtCom= 9.74D-01 WtEn= 2.58D-02
 Coeff-Com:  0.100D+01
 Coeff-En:   0.100D+01
 Coeff:      0.100D+01
 Gap=     0.466 Goal=   None    Shift=    0.000
 GapD=    0.466 DampG=2.000 DampE=1.000 DampFc=2.0000 IDamp=-1.
 RMSDP=1.50D-03 MaxDP=2.52D-02              OVMax= 7.54D-02

 Cycle   2  Pass 1  IDiag  1:
 RMSU=  1.50D-03    CP:  1.00D+00
 E= -270.383814821293     Delta-E=       -0.005661707807 Rises=F Damp=F
 DIIS: error= 1.39D-03 at cycle   2 NSaved=   2.
 NSaved= 2 IEnMin= 2 EnMin= -270.383814821293     IErMin= 2 ErrMin= 1.39D-03
 ErrMax= 1.39D-03  0.00D+00 EMaxC= 1.00D-01 BMatC= 3.49D-04 BMatP= 2.27D-03
 IDIUse=3 WtCom= 9.86D-01 WtEn= 1.39D-02
 Coeff-Com:  0.107D+00 0.893D+00
 Coeff-En:   0.000D+00 0.100D+01
 Coeff:      0.105D+00 0.895D+00
 Gap=     0.106 Goal=   None    Shift=    0.000
 RMSDP=6.25D-04 MaxDP=1.39D-02 DE=-5.66D-03 OVMax= 2.76D-02

 Cycle   3  Pass 1  IDiag  1:
 RMSU=  6.24D-04    CP:  1.00D+00  1.02D+00
 E= -270.383215563935     Delta-E=        0.000599257358 Rises=F Damp=F
 DIIS: error= 1.78D-03 at cycle   3 NSaved=   3.
 NSaved= 3 IEnMin= 2 EnMin= -270.383814821293     IErMin= 2 ErrMin= 1.39D-03
 ErrMax= 1.78D-03  0.00D+00 EMaxC= 1.00D-01 BMatC= 9.19D-04 BMatP= 3.49D-04
 IDIUse=3 WtCom= 1.92D-01 WtEn= 8.08D-01
 Coeff-Com: -0.228D-01 0.643D+00 0.380D+00
 Coeff-En:   0.000D+00 0.672D+00 0.328D+00
 Coeff:     -0.436D-02 0.666D+00 0.338D+00
 Gap=     0.105 Goal=   None    Shift=    0.000
 RMSDP=5.44D-04 MaxDP=1.29D-02 DE= 5.99D-04 OVMax= 3.07D-02

 Cycle   4  Pass 1  IDiag  1:
 RMSU=  3.60D-04    CP:  1.00D+00  1.14D+00  4.07D-01
 E= -270.384269688564     Delta-E=       -0.001054124629 Rises=F Damp=F
 DIIS: error= 6.03D-04 at cycle   4 NSaved=   4.
 NSaved= 4 IEnMin= 4 EnMin= -270.384269688564     IErMin= 4 ErrMin= 6.03D-04
 ErrMax= 6.03D-04  0.00D+00 EMaxC= 1.00D-01 BMatC= 9.10D-05 BMatP= 3.49D-04
 IDIUse=3 WtCom= 9.94D-01 WtEn= 6.03D-03
 Coeff-Com: -0.318D-01 0.358D+00 0.255D+00 0.418D+00
 Coeff-En:   0.000D+00 0.000D+00 0.534D-01 0.947D+00
 Coeff:     -0.316D-01 0.356D+00 0.254D+00 0.422D+00
 Gap=     0.105 Goal=   None    Shift=    0.000
 RMSDP=2.43D-04 MaxDP=5.21D-03 DE=-1.05D-03 OVMax= 1.04D-02

 Cycle   5  Pass 1  IDiag  1:
 RMSU=  1.57D-04    CP:  1.00D+00  1.18D+00  4.58D-01  5.36D-01
 E= -270.384373051721     Delta-E=       -0.000103363158 Rises=F Damp=F
 DIIS: error= 2.11D-04 at cycle   5 NSaved=   5.
 NSaved= 5 IEnMin= 5 EnMin= -270.384373051721     IErMin= 5 ErrMin= 2.11D-04
 ErrMax= 2.11D-04  0.00D+00 EMaxC= 1.00D-01 BMatC= 1.32D-05 BMatP= 9.10D-05
 IDIUse=3 WtCom= 9.98D-01 WtEn= 2.11D-03
 Coeff-Com: -0.167D-01 0.850D-01 0.974D-01 0.285D+00 0.550D+00
 Coeff-En:   0.000D+00 0.000D+00 0.000D+00 0.979D-01 0.902D+00
 Coeff:     -0.167D-01 0.848D-01 0.972D-01 0.284D+00 0.551D+00
 Gap=     0.105 Goal=   None    Shift=    0.000
 RMSDP=7.99D-05 MaxDP=2.03D-03 DE=-1.03D-04 OVMax= 2.48D-03

 Cycle   6  Pass 1  IDiag  1:
 RMSU=  4.10D-05    CP:  1.00D+00  1.20D+00  4.56D-01  7.12D-01  9.81D-01
 E= -270.384389093032     Delta-E=       -0.000016041311 Rises=F Damp=F
 DIIS: error= 5.98D-05 at cycle   6 NSaved=   6.
 NSaved= 6 IEnMin= 6 EnMin= -270.384389093032     IErMin= 6 ErrMin= 5.98D-05
 ErrMax= 5.98D-05  0.00D+00 EMaxC= 1.00D-01 BMatC= 1.47D-06 BMatP= 1.32D-05
 IDIUse=1 WtCom= 1.00D+00 WtEn= 0.00D+00
 Coeff-Com: -0.249D-02-0.259D-01 0.144D-01 0.794D-01 0.281D+00 0.654D+00
 Coeff:     -0.249D-02-0.259D-01 0.144D-01 0.794D-01 0.281D+00 0.654D+00
 Gap=     0.105 Goal=   None    Shift=    0.000
 RMSDP=3.31D-05 MaxDP=7.84D-04 DE=-1.60D-05 OVMax= 1.46D-03

 Cycle   7  Pass 1  IDiag  1:
 RMSU=  1.55D-05    CP:  1.00D+00  1.21D+00  4.68D-01  7.47D-01  1.06D+00
                    CP:  8.01D-01
 E= -270.384390953808     Delta-E=       -0.000001860775 Rises=F Damp=F
 DIIS: error= 4.17D-05 at cycle   7 NSaved=   7.
 NSaved= 7 IEnMin= 7 EnMin= -270.384390953808     IErMin= 7 ErrMin= 4.17D-05
 ErrMax= 4.17D-05  0.00D+00 EMaxC= 1.00D-01 BMatC= 4.53D-07 BMatP= 1.47D-06
 IDIUse=1 WtCom= 1.00D+00 WtEn= 0.00D+00
 Coeff-Com:  0.184D-02-0.330D-01-0.601D-02-0.806D-02 0.544D-01 0.417D+00
 Coeff-Com:  0.574D+00
 Coeff:      0.184D-02-0.330D-01-0.601D-02-0.806D-02 0.544D-01 0.417D+00
 Coeff:      0.574D+00
 Gap=     0.105 Goal=   None    Shift=    0.000
 RMSDP=1.25D-05 MaxDP=1.92D-04 DE=-1.86D-06 OVMax= 5.05D-04

 Cycle   8  Pass 1  IDiag  1:
 RMSU=  6.47D-06    CP:  1.00D+00  1.22D+00  4.80D-01  7.53D-01  1.09D+00
                    CP:  8.46D-01  8.76D-01
 E= -270.384391436937     Delta-E=       -0.000000483129 Rises=F Damp=F
 DIIS: error= 1.34D-05 at cycle   8 NSaved=   8.
 NSaved= 8 IEnMin= 8 EnMin= -270.384391436937     IErMin= 8 ErrMin= 1.34D-05
 ErrMax= 1.34D-05  0.00D+00 EMaxC= 1.00D-01 BMatC= 6.40D-08 BMatP= 4.53D-07
 IDIUse=1 WtCom= 1.00D+00 WtEn= 0.00D+00
 Coeff-Com:  0.144D-02-0.191D-01-0.511D-02-0.143D-01-0.135D-02 0.206D+00
 Coeff-Com:  0.374D+00 0.458D+00
 Coeff:      0.144D-02-0.191D-01-0.511D-02-0.143D-01-0.135D-02 0.206D+00
 Coeff:      0.374D+00 0.458D+00
 Gap=     0.105 Goal=   None    Shift=    0.000
 RMSDP=4.05D-06 MaxDP=7.47D-05 DE=-4.83D-07 OVMax= 1.07D-04

 Cycle   9  Pass 1  IDiag  1:
 RMSU=  2.61D-06    CP:  1.00D+00  1.22D+00  4.81D-01  7.60D-01  1.10D+00
                    CP:  8.79D-01  8.66D-01  1.02D+00
 E= -270.384391498387     Delta-E=       -0.000000061450 Rises=F Damp=F
 DIIS: error= 2.12D-06 at cycle   9 NSaved=   9.
 NSaved= 9 IEnMin= 9 EnMin= -270.384391498387     IErMin= 9 ErrMin= 2.12D-06
 ErrMax= 2.12D-06  0.00D+00 EMaxC= 1.00D-01 BMatC= 1.52D-09 BMatP= 6.40D-08
 IDIUse=1 WtCom= 1.00D+00 WtEn= 0.00D+00
 Coeff-Com:  0.261D-03-0.313D-02-0.108D-02-0.445D-02-0.105D-01 0.263D-01
 Coeff-Com:  0.648D-01 0.135D+00 0.793D+00
 Coeff:      0.261D-03-0.313D-02-0.108D-02-0.445D-02-0.105D-01 0.263D-01
 Coeff:      0.648D-01 0.135D+00 0.793D+00
 Gap=     0.105 Goal=   None    Shift=    0.000
 RMSDP=1.35D-06 MaxDP=2.53D-05 DE=-6.15D-08 OVMax= 3.97D-05

 Cycle  10  Pass 1  IDiag  1:
 RMSU=  5.84D-07    CP:  1.00D+00  1.22D+00  4.82D-01  7.61D-01  1.10D+00
                    CP:  8.89D-01  8.94D-01  1.06D+00  1.03D+00
 E= -270.384391499900     Delta-E=       -0.000000001513 Rises=F Damp=F
 DIIS: error= 1.43D-06 at cycle  10 NSaved=  10.
 NSaved=10 IEnMin=10 EnMin= -270.384391499900     IErMin=10 ErrMin= 1.43D-06
 ErrMax= 1.43D-06  0.00D+00 EMaxC= 1.00D-01 BMatC= 7.38D-10 BMatP= 1.52D-09
 IDIUse=1 WtCom= 1.00D+00 WtEn= 0.00D+00
 Coeff-Com:  0.256D-04 0.319D-03 0.327D-04-0.558D-03-0.577D-02-0.453D-02
 Coeff-Com: -0.999D-03 0.264D-01 0.491D+00 0.495D+00
 Coeff:      0.256D-04 0.319D-03 0.327D-04-0.558D-03-0.577D-02-0.453D-02
 Coeff:     -0.999D-03 0.264D-01 0.491D+00 0.495D+00
 Gap=     0.105 Goal=   None    Shift=    0.000
 RMSDP=4.16D-07 MaxDP=8.99D-06 DE=-1.51D-09 OVMax= 7.76D-06

 Cycle  11  Pass 1  IDiag  1:
 RMSU=  2.17D-07    CP:  1.00D+00  1.22D+00  4.82D-01  7.62D-01  1.10D+00
                    CP:  8.88D-01  8.96D-01  1.09D+00  1.09D+00  7.85D-01
 E= -270.384391500687     Delta-E=       -0.000000000787 Rises=F Damp=F
 DIIS: error= 1.99D-07 at cycle  11 NSaved=  11.
 NSaved=11 IEnMin=11 EnMin= -270.384391500687     IErMin=11 ErrMin= 1.99D-07
 ErrMax= 1.99D-07  0.00D+00 EMaxC= 1.00D-01 BMatC= 1.16D-11 BMatP= 7.38D-10
 IDIUse=1 WtCom= 1.00D+00 WtEn= 0.00D+00
 Coeff-Com: -0.225D-04 0.390D-03 0.910D-04 0.363D-03-0.758D-03-0.403D-02
 Coeff-Com: -0.692D-02-0.899D-02 0.652D-01 0.118D+00 0.836D+00
 Coeff:     -0.225D-04 0.390D-03 0.910D-04 0.363D-03-0.758D-03-0.403D-02
 Coeff:     -0.692D-02-0.899D-02 0.652D-01 0.118D+00 0.836D+00
 Gap=     0.105 Goal=   None    Shift=    0.000
 RMSDP=1.51D-07 MaxDP=3.36D-06 DE=-7.87D-10 OVMax= 2.97D-06

 Cycle  12  Pass 1  IDiag  1:
 RMSU=  5.81D-08    CP:  1.00D+00  1.22D+00  4.82D-01  7.62D-01  1.10D+00
                    CP:  8.88D-01  8.96D-01  1.10D+00  1.12D+00  8.38D-01
                    CP:  1.18D+00
 E= -270.384391500700     Delta-E=       -0.000000000013 Rises=F Damp=F
 DIIS: error= 3.72D-08 at cycle  12 NSaved=  12.
 NSaved=12 IEnMin=12 EnMin= -270.384391500700     IErMin=12 ErrMin= 3.72D-08
 ErrMax= 3.72D-08  0.00D+00 EMaxC= 1.00D-01 BMatC= 6.37D-13 BMatP= 1.16D-11
 IDIUse=1 WtCom= 1.00D+00 WtEn= 0.00D+00
 Coeff-Com: -0.394D-05 0.409D-04 0.479D-05 0.108D-03 0.392D-04-0.431D-03
 Coeff-Com: -0.909D-03-0.275D-02-0.766D-02-0.171D-02 0.133D+00 0.880D+00
 Coeff:     -0.394D-05 0.409D-04 0.479D-05 0.108D-03 0.392D-04-0.431D-03
 Coeff:     -0.909D-03-0.275D-02-0.766D-02-0.171D-02 0.133D+00 0.880D+00
 Gap=     0.105 Goal=   None    Shift=    0.000
 RMSDP=2.38D-08 MaxDP=5.51D-07 DE=-1.26D-11 OVMax= 5.84D-07

 Cycle  13  Pass 1  IDiag  1:
 RMSU=  1.00D-08    CP:  1.00D+00  1.22D+00  4.82D-01  7.62D-01  1.10D+00
                    CP:  8.88D-01  8.96D-01  1.10D+00  1.12D+00  8.50D-01
                    CP:  1.22D+00  1.03D+00
 E= -270.384391500701     Delta-E=       -0.000000000001 Rises=F Damp=F
 DIIS: error= 1.04D-08 at cycle  13 NSaved=  13.
 NSaved=13 IEnMin=13 EnMin= -270.384391500701     IErMin=13 ErrMin= 1.04D-08
 ErrMax= 1.04D-08  0.00D+00 EMaxC= 1.00D-01 BMatC= 3.96D-14 BMatP= 6.37D-13
 IDIUse=1 WtCom= 1.00D+00 WtEn= 0.00D+00
 Coeff-Com: -0.128D-06-0.578D-05-0.328D-05 0.199D-04 0.363D-04 0.704D-04
 Coeff-Com:  0.641D-04-0.526D-03-0.549D-02-0.629D-02-0.244D-02 0.247D+00
 Coeff-Com:  0.768D+00
 Coeff:     -0.128D-06-0.578D-05-0.328D-05 0.199D-04 0.363D-04 0.704D-04
 Coeff:      0.641D-04-0.526D-03-0.549D-02-0.629D-02-0.244D-02 0.247D+00
 Coeff:      0.768D+00
 Gap=     0.105 Goal=   None    Shift=    0.000
 RMSDP=6.15D-09 MaxDP=1.69D-07 DE=-9.09D-13 OVMax= 1.03D-07

 SCF Done:  E(RB3LYP) =  -270.384391501     A.U. after   13 cycles
            NFock= 13  Conv=0.62D-08     -V/T= 2.0120
 KE= 2.671841094584D+02 PE=-1.074514128177D+03 EE= 3.136497979878D+02
 Leave Link  502 at Tue Oct 15 11:52:42 2019, MaxMem=   280000000 cpu:              94.6 elap:               4.0
 (Enter /home/soft/g16/l701.exe)
 ... and contract with generalized density number  0.
 Compute integral first derivatives.
 Leave Link  701 at Tue Oct 15 11:52:42 2019, MaxMem=   280000000 cpu:               2.4 elap:               0.1
 (Enter /home/soft/g16/l702.exe)
 L702 exits ... SP integral derivatives will be done elsewhere.
 Leave Link  702 at Tue Oct 15 11:52:42 2019, MaxMem=   280000000 cpu:               0.5 elap:               0.0
 (Enter /home/soft/g16/l703.exe)
 Integral derivatives from FoFJK, PRISM(SPDF).
 Compute integral first derivatives, UseDBF=F ICtDFT=           0.
 Calling FoFJK, ICntrl=      2127 FMM=F ISym2X=0 I1Cent= 0 IOpClX= 0 NMat=1 NMatS=1 NMatT=0.
 FoFJK:  IHMeth= 1 ICntrl=    2127 DoSepK=F KAlg= 0 I1Cent=           0 FoldK=F
 IRaf=         0 NMat=       1 IRICut=       1 DoRegI=T DoRafI=F ISym2E= 0 IDoP0=0 IntGTp=1.
 FoFCou: FMM=F IPFlag=           0 FMFlag=      100000 FMFlg1=         800
         NFxFlg=           0 DoJE=F BraDBF=F KetDBF=F FulRan=T
         wScrn=  0.000000 ICntrl=      2127 IOpCl=  0 I1Cent=           0 NGrid=           0
         NMat0=    1 NMatS0=      1 NMatT0=    0 NMatD0=    1 NMtDS0=    0 NMtDT0=    0
 Symmetry not used in FoFCou.
 Leave Link  703 at Tue Oct 15 11:52:43 2019, MaxMem=   280000000 cpu:              15.6 elap:               0.7
 (Enter /home/soft/g16/l716.exe)
 Dipole        =-3.07770122D-01 3.13680092D-01-1.44073777D-01
 ***** Axes restored to original set *****
 -------------------------------------------------------------------
 Center     Atomic                   Forces (Hartrees/Bohr)
 Number     Number              X              Y              Z
 -------------------------------------------------------------------
      1        6          -0.005605476   -0.005732747   -0.000646051
      2        1          -0.007805036    0.012364871   -0.007701020
      3        1           0.002588412    0.007560297   -0.005616969
      4        6           0.008008283    0.008547190    0.030910843
      5        8           0.017611424    0.043043598   -0.013818405
      6        6           0.021247777    0.007652254    0.002116330
      7        1          -0.001426737   -0.029346586   -0.008362003
      8        1           0.007496262    0.001082780   -0.000785894
      9        6          -0.016944991   -0.046584160   -0.020997404
     10        1           0.006293590   -0.009047226    0.024885757
     11        6          -0.015147256    0.030398133    0.016093892
     12        1          -0.013478728   -0.019752381    0.000123726
     13        1           0.003244307   -0.004166653   -0.004884922
     14        1          -0.006081830    0.003980630   -0.011317882
 -------------------------------------------------------------------
 Cartesian Forces:  Max     0.046584160 RMS     0.016360026
 Leave Link  716 at Tue Oct 15 11:52:43 2019, MaxMem=   280000000 cpu:               1.0 elap:               0.1
 (Enter /home/soft/g16/l103.exe)

 GradGradGradGradGradGradGradGradGradGradGradGradGradGradGradGradGradGrad
 Berny optimization.
 FormGI is forming the generalized inverse of G from B-inverse, IUseBI=4.
 Internal  Forces:  Max     0.092003004 RMS     0.026714249
 Search for a saddle point.
 Step number   2 out of a maximum of   61
 All quantities printed in internal units (Hartrees-Bohrs-Radians)
 Swapping is turned off.
 Update second derivatives using D2CorX and points    1    2
 ITU=  0  0
     Eigenvalues ---   -1.08712  -0.04359   0.00083   0.00824   0.01427
     Eigenvalues ---    0.02268   0.03146   0.03736   0.04161   0.05347
     Eigenvalues ---    0.05663   0.06369   0.07300   0.08078   0.10250
     Eigenvalues ---    0.10758   0.12820   0.13692   0.15173   0.16708
     Eigenvalues ---    0.17357   0.18389   0.20570   0.28972   0.31159
     Eigenvalues ---    0.31771   0.32741   0.33453   0.33789   0.34199
     Eigenvalues ---    0.34889   0.35252   0.37913   0.39544   0.55310
     Eigenvalues ---    0.74431
[...]
 ! A11   A(7,6,8)              114.8696         -DE/DX =    0.0                 !
 ! A12   A(7,6,9)              119.8526         -DE/DX =    0.0                 !
 ! A13   A(8,6,9)              120.3281         -DE/DX =   -0.0001              !
 ! A14   A(6,9,10)             118.0288         -DE/DX =    0.0                 !
 ! A15   A(6,9,11)             120.1619         -DE/DX =    0.0                 !
 ! A16   A(10,9,11)            118.7182         -DE/DX =    0.0                 !
 ! A17   A(9,11,12)            120.6955         -DE/DX =    0.0                 !
 ! A18   A(9,11,13)            121.1364         -DE/DX =    0.0                 !
 ! A19   A(12,11,13)           115.2719         -DE/DX =    0.0                 !
 ! D1    D(2,1,4,5)             19.308          -DE/DX =    0.0                 !
 ! D2    D(2,1,4,14)          -172.3062         -DE/DX =    0.0                 !
 ! D3    D(3,1,4,5)            179.5444         -DE/DX =    0.0                 !
 ! D4    D(3,1,4,14)           -12.0698         -DE/DX =    0.0                 !
 ! D5    D(1,4,5,6)             77.5549         -DE/DX =    0.0                 !
 ! D6    D(14,4,5,6)           -90.8821         -DE/DX =    0.0                 !
 ! D7    D(4,5,6,7)             67.0244         -DE/DX =    0.0                 !
 ! D8    D(4,5,6,8)           -177.3121         -DE/DX =    0.0                 !
 ! D9    D(4,5,6,9)            -54.5677         -DE/DX =   -0.0001              !
 ! D10   D(5,6,9,10)           -89.8639         -DE/DX =    0.0                 !
 ! D11   D(5,6,9,11)            70.0126         -DE/DX =    0.0                 !
 ! D12   D(7,6,9,10)           168.4735         -DE/DX =    0.0                 !
 ! D13   D(7,6,9,11)           -31.65           -DE/DX =    0.0                 !
 ! D14   D(8,6,9,10)            14.6385         -DE/DX =    0.0                 !
 ! D15   D(8,6,9,11)           174.515          -DE/DX =    0.0                 !
 ! D16   D(6,9,11,12)           27.3288         -DE/DX =    0.0                 !
 ! D17   D(6,9,11,13)         -172.8431         -DE/DX =    0.0                 !
 ! D18   D(10,9,11,12)        -172.9317         -DE/DX =    0.0                 !
 ! D19   D(10,9,11,13)         -13.1036         -DE/DX =    0.0                 !
 --------------------------------------------------------------------------------
 GradGradGradGradGradGradGradGradGradGradGradGradGradGradGradGradGradGrad

 Leave Link  103 at Tue Oct 15 11:56:10 2019, MaxMem=   280000000 cpu:               3.9 elap:               0.2
 (Enter /home/soft/g16/l9999.exe)

 ----------------------------------------------------------------------

 Electric dipole moment (input orientation):
 (Debye = 10**-18 statcoulomb cm , SI units = C m)
                  (au)            (Debye)         (10**-30 SI)
   Tot        0.926881D+00      0.235590D+01      0.785842D+01
   x          0.715921D+00      0.181969D+01      0.606983D+01
   y          0.450645D+00      0.114543D+01      0.382073D+01
   z         -0.378793D+00     -0.962796D+00     -0.321154D+01

 Dipole polarizability, Alpha (input orientation).
 (esu units = cm**3 , SI units = C**2 m**2 J**-1)
 Alpha(0;0):
               (au)            (10**-24 esu)      (10**-40 SI)
   iso        0.733543D+02      0.108700D+02      0.120945D+02
   aniso      0.310282D+02      0.459791D+01      0.511586D+01
   xx         0.775910D+02      0.114978D+02      0.127930D+02
   yx        -0.635703D+01     -0.942015D+00     -0.104813D+01
   yy         0.874407D+02      0.129574D+02      0.144170D+02
   zx         0.157345D+01      0.233162D+00      0.259427D+00
   zy        -0.140514D+01     -0.208220D+00     -0.231676D+00
   zz         0.550313D+02      0.815479D+01      0.907343D+01

 ----------------------------------------------------------------------

 Dipole orientation:
     6          2.39975837          1.95271222          0.31479334
     1          3.84209070          0.52869265          0.01233676
     1          2.93056379          3.60268778          1.42093879
     6          0.30123112          2.05185941         -1.24180048
     8         -0.42745355          0.17490027         -2.61581059
     6         -2.14054438         -2.23220531         -0.46388258
     1         -3.72263329         -0.98673938         -0.06851378
     1         -2.49066365         -3.63543338         -1.91625845
     6         -0.30225268         -2.66091700          1.39660400
     1          1.05137589         -4.17844890          1.08630109
     6          0.28892262         -0.78213564          3.11645568
     1         -1.09836417          0.63888289          3.63248582
     1          1.85315946         -0.99786749          4.42944871
     1         -1.00030901          3.66714529         -1.03802126

 Electric dipole moment (dipole orientation):
 (Debye = 10**-18 statcoulomb cm , SI units = C m)
                  (au)            (Debye)         (10**-30 SI)
   Tot        0.926881D+00      0.235590D+01      0.785842D+01
   x          0.000000D+00      0.000000D+00      0.000000D+00
   y          0.000000D+00      0.000000D+00      0.000000D+00
   z          0.926881D+00      0.235590D+01      0.785842D+01

 Dipole polarizability, Alpha (dipole orientation).
 (esu units = cm**3 , SI units = C**2 m**2 J**-1)
 Alpha(0;0):
               (au)            (10**-24 esu)      (10**-40 SI)
   iso        0.733543D+02      0.108700D+02      0.120945D+02
   aniso      0.310282D+02      0.459791D+01      0.511586D+01
   xx         0.687658D+02      0.101900D+02      0.113379D+02
   yx         0.147628D+02      0.218762D+01      0.243405D+01
   yy         0.803553D+02      0.119074D+02      0.132488D+02
   zx         0.525902D+01      0.779306D+00      0.867095D+00
   zy        -0.611361D+01     -0.905944D+00     -0.100800D+01
   zz         0.709420D+02      0.105125D+02      0.116967D+02

 ----------------------------------------------------------------------
 1\1\GINC-NODE18\Freq\RB3LYP\6-31+G(d)\C5H8O1\ROOT\15-Oct-2019\0\\#P Ge
 om=AllCheck Guess=TCheck SCRF=Check GenChk RB3LYP/6-31+G(d) Freq\\Titl
 e Card Required\\0,1\C,1.1362148,-1.1174790108,0.4103876728\H,1.251700
 0241,-0.771663534,1.4317065209\H,1.9830299914,-1.6343798968,-0.0363817
 344\C,-0.1262128979,-1.2655827598,-0.1362322022\O,-1.1749003124,-0.689
 7252989,0.3459849263\C,-1.1575054505,1.165635267,-0.2002864839\H,-1.30
 28375075,0.9420713726,-1.2528832156\H,-2.0559076116,1.459304895,0.3317
 279986\C,0.1032536652,1.5737704581,0.2590371209\H,0.1752797058,1.97126
 15803,1.2698556517\C,1.2516070329,1.10548868,-0.3546460211\H,1.2397857
 844,0.8081783569,-1.3988814414\H,2.235028198,1.3176328707,0.0562672645
 \H,-0.2120983718,-1.7408775603,-1.1278738571\\Version=ES64L-G16RevA.03
 \State=1-A\HF=-270.4755841\RMSD=2.216e-09\RMSF=3.692e-05\ZeroPoint=0.1
 166274\Thermal=0.1226746\Dipole=0.7159207,0.4506452,-0.3787931\DipoleD
 eriv=-0.0651961,-0.3532902,-0.0685355,0.0151073,-0.3683797,0.131566,-0
 .0648998,-0.0640196,0.0025146,0.0263153,0.0316834,0.0043108,0.0032247,
 0.0859505,-0.0708826,-0.0219551,-0.0403324,-0.0355969,-0.0149455,0.083
 1439,0.0166952,0.1257689,0.053312,-0.0370988,0.0337193,-0.0709964,0.03
 51058,0.5375789,0.3200216,-0.1043087,-0.1486629,-0.155631,0.2317555,-0
 .0361147,0.5310715,0.4192993,-0.7686082,-0.1883856,0.193626,-0.2013965
 ,-0.1682113,-0.0803866,0.1856787,-0.0938283,-0.4531806,0.4132034,-0.06
 65541,-0.0720723,0.3301922,0.1027932,0.0231415,0.0263693,-0.101636,0.1
 88431,0.0433164,0.008235,0.0237266,-0.021561,0.0469416,-0.0516659,-0.0
 295998,-0.0084337,-0.0658746,-0.0175077,0.0354979,0.0249648,0.055539,0
 .0517526,-0.0002663,0.0497458,-0.020863,0.0392073,-0.4382592,0.423125,
 -0.029197,0.0093736,-0.4440316,0.052678,-0.0126636,0.2103962,0.0529996
 ,0.0359065,-0.0055718,-0.0114265,-0.0029741,0.1328974,-0.0458354,-0.00
 71653,-0.1246715,-0.0704358,0.2253379,-0.2680478,0.0922027,-0.1724327,
 0.5876482,-0.0135262,-0.0792878,-0.0011161,0.0792031,0.0297907,-0.0199
 065,-0.0340188,0.0274117,-0.0089851,-0.0282091,0.0066923,0.000948,-0.0
 611498,-0.04341,-0.0343745,-0.0156586,-0.0661139,0.0605006,-0.0092783,
 -0.0319509,-0.0033648,0.0435826,0.0364775,0.0344235,-0.0203089,0.04652
 38,0.0234426,-0.1019916,-0.0185686,-0.213154,-0.1741056\Polar=77.59100
 07,-6.3570301,87.4407107,1.5734538,-1.4051406,55.0312641\Quadrupole=0.
 6277171,-1.8078203,1.1801032,-2.3264345,1.0665701,1.9980473\PG=C01 [X(
 C5H8O1)]\NImag=1\\0.68161605,-0.11935647,0.19583195,0.07593083,0.20964
 582,0.58149677,-0.05762864,-0.00167696,-0.02604836,0.05294393,0.000355
 78,-0.05854548,-0.09584928,0.00635944,0.06771960,-0.03405375,-0.101341
 36,-0.31340198,0.03380635,0.10598587,0.32645765,-0.22512000,0.10704479
 ,0.08574344,0.00540531,-0.00313748,-0.00267894,0.23753666,0.11576652,-
 0.10105648,-0.06810085,0.00609521,-0.00246101,-0.00178270,-0.11887462,
 0.09974469,0.08800771,-0.06732077,-0.10278857,0.02155490,-0.01167345,-
 0.00584658,-0.09611877,0.07049917,0.09916635,-0.30151636,0.02091201,-0
 .12108029,0.00025447,-0.00751478,0.00571617,-0.01353074,-0.00743080,-0
 .00806815,0.67310203,-0.03238168,-0.06735154,-0.04238029,-0.00984611,0
 .00080367,-0.00571021,0.01700001,0.00252577,0.00892885,-0.09078724,0.3
 3374746,-0.14042599,-0.04444704,-0.16376559,-0.03025731,-0.00693627,-0
 .00915242,0.01846569,0.00362366,0.00590094,0.06587993,0.19722726,0.554
 49081,-0.08826483,-0.00390854,0.01189282,0.00384900,0.00329703,-0.0005
 9828,-0.00595581,0.00177530,-0.00437788,-0.28296082,0.11337933,0.11945
 429,0.40026084,0.04979292,0.03713689,0.00616479,-0.00249159,-0.0076103
 2,0.00451784,0.00019202,0.00595104,-0.00283271,0.07164719,-0.12524432,
 -0.06728631,-0.11679207,0.10370824,0.00890251,0.01175370,0.02261810,0.
 00347231,0.00237813,0.00136692,-0.00465283,-0.00354236,0.00269374,0.10
 478979,-0.06754336,-0.14818504,-0.15557025,0.06838733,0.15226721,-0.01
 495387,-0.01675836,0.00082961,0.00077653,0.00255373,-0.00153497,0.0000
 5592,-0.00097555,0.00002077,0.02599592,0.00261250,-0.00996057,-0.03923
 470,0.02642252,0.01157034,0.70018958,-0.03738595,-0.03355384,-0.005488
 74,0.00158900,0.00421706,-0.00201467,-0.00086086,-0.00035902,-0.000543
 30,0.09650589,-0.04086967,-0.01222246,-0.04940695,0.08254357,0.0063083
 5,-0.02982205,0.11485959,0.00077877,-0.00075264,-0.00007774,-0.0003004
 8,-0.00034875,0.00029630,0.00015953,-0.00066964,0.00027589,-0.00365709
 ,-0.00476380,0.00301420,0.00832560,0.00238455,-0.02322726,0.00382612,0
 .17161960,0.61116499,-0.00001642,0.00014067,0.00002641,0.00001853,-0.0
 0002237,0.00004866,-0.00003423,-0.00002515,0.00001835,0.00041412,0.000
 76515,-0.00148737,-0.00007887,0.00128213,-0.00059055,-0.06358292,-0.00
 731164,-0.03175308,0.05893704,0.00328408,0.00184260,-0.00016835,-0.000
 16493,-0.00049666,0.00019156,0.00013348,0.00022056,-0.00001085,-0.0078
 5570,0.00291177,0.00416472,0.00570729,-0.01831725,0.01306340,0.0000680
 5,-0.04036662,-0.06533307,0.00902434,0.05309046,-0.00087163,-0.0006141
 5,0.00009720,0.00008238,0.00007760,-0.00007494,0.00000903,-0.00009915,
 0.00002579,0.00140895,-0.00037669,-0.00004568,-0.00030635,0.00472451,-
 0.00118341,-0.03655359,-0.06924248,-0.32721715,0.03890683,0.07045607,0
 .34132512,0.00024062,-0.00022691,0.00006509,-0.00001775,0.00002835,0.0
 0003398,0.00000313,-0.00003551,0.00000797,0.00008286,0.00015618,-0.000
 50863,0.00079207,-0.00053139,-0.00007906,-0.25691547,0.06388068,0.1201
 4174,0.00649782,-0.00233097,-0.00346329,0.26921366,0.00049408,0.000268
 58,-0.00027502,-0.00005687,-0.00015168,0.00009565,0.00000056,0.0001149
 0,-0.00005533,-0.00111169,-0.00273262,0.00255501,0.01052132,-0.0092673
 8,-0.00532542,0.06847874,-0.05693756,-0.04630019,0.00429631,0.00170197
 ,-0.00311111,-0.06871130,0.05892334,-0.00048272,-0.00026076,0.00019602
 ,0.00002604,0.00012944,-0.00005664,-0.00004505,-0.00009703,0.00002320,
 0.00073970,0.00115363,-0.00134943,-0.00507136,0.00476107,0.00243170,0.
 12260356,-0.04966826,-0.13011174,0.02401005,-0.00830831,-0.00961300,-0
 .12942235,0.04850402,0.12843490,0.03129464,0.04756051,0.00110208,-0.00
 175703,-0.00561667,0.00250462,0.00002768,0.00059398,0.00030128,-0.0686
 5776,0.01504585,0.00603842,0.03344643,-0.07825109,-0.00378619,-0.29370
 475,-0.00794377,-0.08491495,0.00067334,-0.00907048,0.00247537,-0.01598
 048,-0.01161915,-0.00984662,0.67621984,-0.00132123,-0.01517185,-0.0008
 6996,0.00116362,0.00041772,-0.00084739,0.00003848,-0.00164061,0.000607
 14,-0.00108157,-0.01316367,-0.00033414,-0.00539032,-0.02244171,0.00279
 904,-0.07189641,-0.07372770,-0.05112028,-0.00653632,-0.00011103,-0.002
 86204,0.00970527,0.00884414,0.00320634,-0.00375398,0.26798886,-0.00421
 794,-0.00034873,0.00099685,-0.00082314,0.00205054,0.00071077,-0.000063
 01,0.00115924,-0.00061098,0.00245341,0.00011012,0.00251373,0.00434327,
 0.00645795,0.00026031,-0.09177931,-0.05079415,-0.13788767,-0.02830620,
 -0.01227760,-0.00638464,0.01553477,0.00593414,0.00817908,-0.01441699,0
 .22296513,0.59743368,0.00028431,-0.00007197,-0.00003275,0.00008583,0.0
 0023844,-0.00010157,-0.00001941,-0.00015452,0.00000700,-0.00036313,0.0
 0016958,0.,0.00043388,0.00020937,0.00042912,-0.00113755,-0.01008353,-0
 .03055547,-0.00439053,-0.00241518,-0.00116112,0.00108501,0.00048242,0.
 00025692,-0.05823855,-0.00701557,-0.01666689,0.06167449,0.00034065,0.0
 0080836,-0.00074497,0.00000382,-0.00019034,0.00037625,-0.00000311,0.00
 005891,0.00016179,-0.00011975,0.00040393,-0.00055414,0.00031769,0.0004
 6957,0.00006718,-0.00088417,-0.00002868,-0.00743375,-0.00081069,0.0047
 7059,-0.00142141,0.00000801,-0.00297034,0.00154365,-0.00680217,-0.0743
 1536,-0.09541520,0.00688533,0.07074709,-0.00032013,-0.00028661,-0.0001
 0954,0.00006720,-0.00019125,0.00014833,0.00003329,0.00006053,0.0000617
 9,0.00034541,0.00013551,0.00025813,-0.00018644,0.00015257,0.00054320,0
 .00006595,-0.00327194,-0.00857753,-0.00148983,-0.00242016,0.00161962,-
 0.00008757,0.00156465,0.00041461,-0.01684174,-0.10370708,-0.29309670,0
 .01819133,0.11333647,0.30851588,-0.02528711,-0.02066926,-0.00012533,0.
 00081837,0.00377027,-0.00105918,0.00106266,0.00331148,-0.00204744,0.02
 715663,-0.00294142,0.00066506,-0.01863235,0.02679039,0.00217404,-0.055
 61068,-0.02070161,0.01276487,0.00167259,0.00329005,0.00037853,-0.00421
 677,-0.00203869,-0.00174493,-0.29330996,0.08597656,0.12106646,0.003415
 76,-0.00017160,-0.00197543,0.71299961,0.03139036,0.04928955,-0.0026080
 5,-0.00140626,-0.00904890,0.00253252,-0.00062543,-0.00131549,0.0014365
 5,-0.06847777,-0.00180259,0.00600138,0.03229833,-0.04538726,-0.0076158
 4,0.02122364,0.04583626,0.00675435,-0.00071901,-0.00604351,0.00174217,
 -0.00243837,0.00268599,-0.00141420,0.03976618,-0.08275262,-0.06993853,
 0.00966260,-0.00154033,-0.00414339,-0.01368266,0.14368411,0.00141384,-
 0.00530420,-0.01434516,0.00116001,0.00767793,-0.00255482,-0.00034812,-
 0.00250928,0.00128535,-0.00185418,0.00162118,0.00000664,0.00023112,-0.
 00748447,0.00168140,-0.00135929,0.01223085,0.01215178,-0.00082692,0.00
 083214,0.00099103,-0.00306769,-0.00338906,0.00040691,0.11057409,-0.069
 55106,-0.17169910,0.02813246,-0.00962798,-0.01160122,-0.02555697,0.188
 50732,0.60382199,-0.00079674,-0.00154930,0.00051291,-0.00015200,0.0000
 1115,0.00012374,-0.00001216,0.00028351,-0.00014793,0.00084458,-0.00128
 093,0.00165308,-0.00047429,0.00031860,-0.00014068,0.00148917,0.0001219
 5,0.00098733,-0.00034206,0.00000279,-0.00071761,0.00016086,0.00006254,
 -0.00038292,0.00551169,0.00697466,0.02605511,-0.00381137,0.00143613,0.
 00197236,-0.05948682,0.00009756,-0.00895627,0.05420975,-0.00484686,-0.
 00761389,0.00737873,-0.00010603,-0.00090058,0.00020992,0.00032605,0.00
 038760,-0.00030322,0.00670441,-0.00198089,0.00307930,-0.00354628,0.003
 62437,0.00004087,-0.00360313,-0.00744408,0.00162556,0.00017339,0.00118
 919,0.00053827,0.00000613,-0.00000579,0.00000887,0.00676693,-0.0029183
 0,-0.01445897,0.00262191,0.00590705,-0.00335348,-0.00512935,-0.0489061
 1,-0.08051746,0.00003012,0.05816805,0.00122035,0.00215859,-0.00121121,
 -0.00006406,0.00008461,0.00009641,-0.00015005,0.00027000,0.00001073,-0
 .00257786,0.00029250,0.00007807,0.00168845,-0.00125221,0.00001646,-0.0
 0027802,0.00294828,0.00063685,0.00079372,0.00042455,0.00002779,0.00007
 086,-0.00037014,0.00039854,-0.00498558,-0.00359976,-0.00967026,0.00178
 245,-0.00255826,0.00158663,-0.00445175,-0.08770925,-0.32187262,0.00521
 016,0.09193395,0.33634583,0.00030055,-0.00025570,-0.00045199,-0.000070
 17,-0.00004628,0.00030588,0.00007214,-0.00016684,0.00001641,-0.0003638
 6,0.00002653,0.00077196,0.00058546,0.00002569,-0.00033642,-0.00329283,
 0.00309550,0.00328444,0.00019862,0.00005499,-0.00004821,-0.00095322,-0
 .00073337,-0.00054468,-0.01661311,-0.00754823,-0.01252395,0.00104973,-
 0.00009891,0.00017508,-0.29047725,-0.04839261,-0.09971670,0.00278001,0
 .00090241,0.00151136,0.30675342,-0.00590072,-0.00601959,-0.00144730,-0
 .00014950,0.00072551,0.00004124,0.00020860,0.00006444,-0.00034615,0.00
 287532,0.00042612,0.00043875,-0.00195537,0.00185794,0.00039374,0.00173
 773,0.00277267,-0.00420284,-0.00011318,-0.00013351,-0.00031669,0.00052
 002,-0.00046738,0.00031665,0.01393037,0.00761824,0.00534108,-0.0005460
 7,-0.00386293,0.00202267,-0.05745473,-0.04588475,-0.03160131,-0.006568
 09,0.00047034,-0.00293406,0.05319816,0.04264065,0.00374831,0.00389060,
 0.00075127,0.00018448,-0.00018386,0.00016375,-0.00015120,-0.00045379,0
 .00011284,-0.00251341,0.00030973,-0.00085320,0.00164619,-0.00190569,-0
 .00029764,0.00253242,-0.00152402,0.00005365,0.00046073,0.00004105,0.00
 039283,0.00079205,0.00023710,0.00042959,0.01230706,0.00371306,0.008298
 10,-0.00025562,0.00208118,0.00025424,-0.10024830,-0.03273400,-0.097941
 15,-0.02597953,-0.00569967,-0.00671641,0.10754570,0.03219560,0.0951059
 4,-0.00015221,-0.01118453,-0.02836448,-0.00452638,-0.00027660,-0.00251
 271,0.00050883,-0.00016301,0.00082577,-0.06045794,-0.01191774,-0.03028
 855,-0.00376601,0.02138531,0.03381787,-0.00007436,-0.00167667,0.000912
 68,0.00003296,0.00027219,-0.00013927,0.00000767,-0.00006489,-0.0000956
 4,0.00108803,0.00068503,-0.00065558,-0.00006847,-0.00010124,0.00005053
 ,-0.00010468,0.00130343,0.00017462,0.00007939,-0.00029970,0.00022999,0
 .00003050,0.00021745,-0.00006887,0.06740267,-0.00023147,0.00413475,-0.
 00525654,0.00068717,0.00552139,-0.00225451,-0.00144250,-0.00223529,0.0
 0145227,-0.01426552,-0.08767342,-0.08530973,0.01370323,-0.00702338,-0.
 02116474,0.00084277,0.00305802,-0.00145909,-0.00014362,-0.00025856,0.0
 0050509,-0.00003020,-0.00000616,0.00012489,-0.00060652,0.00137389,-0.0
 0078503,0.00001719,-0.00025753,0.00010152,-0.00034944,0.00118565,-0.00
 088458,0.00005931,0.00002306,0.00031121,-0.00006135,-0.00020776,0.0000
 3271,0.00182097,0.08236534,0.00036986,-0.00677245,-0.01045644,-0.00286
 030,-0.00320126,0.00184723,-0.00020301,0.00164222,-0.00031051,-0.04158
 238,-0.08900443,-0.24291118,0.01852883,-0.01678923,-0.01098571,0.00001
 697,0.00166294,-0.00049457,0.00018920,-0.00065516,0.00003944,-0.000017
 87,-0.00006428,0.00021625,-0.00051085,-0.00039900,0.00095683,-0.000025
 85,0.00018920,-0.00001744,0.00016037,-0.00081104,-0.00033104,-0.000189
 75,-0.00048266,0.00027317,0.00001112,0.00009861,0.00024619,0.02611367,
 0.11458654,0.26192777\\0.00006801,0.00000966,0.00004899,-0.00000423,-0
 .00002892,0.00001137,0.00000222,0.00001253,-0.00001171,-0.00005055,0.0
 0006431,-0.00002100,-0.00000722,0.00002768,-0.00002484,-0.00001815,-0.
 00004250,0.00001949,-0.00000655,-0.00000459,0.00000162,-0.00001023,0.0
 0000512,-0.00002570,0.00012954,-0.00003827,-0.00006645,0.00000226,-0.0
 0003428,0.00001377,-0.00007633,0.00005159,0.00005298,-0.00002520,0.000
 00250,-0.00000971,0.00000145,-0.00000227,-0.00000509,-0.00000500,-0.00
 002257,0.00001627\\\@


 STEINBACH'S GUIDELINES FOR SYSTEMS PROGRAMMING:
 NEVER TEST FOR AN ERROR CONDITION YOU DON'T KNOW HOW
 TO HANDLE.
 Job cpu time:       0 days  0 hours  8 minutes 54.2 seconds.
 Elapsed time:       0 days  0 hours  0 minutes 22.9 seconds.
 File lengths (MBytes):  RWF=    332 Int=      0 D2E=      0 Chk=      8 Scr=      8
 Normal termination of Gaussian 16 at Tue Oct 15 11:56:10 2019.
