Title Card Required                                                     
Freq      RB3LYP                                                      6-31+G(d,p)         
Number of atoms                            I               12
Info1-9                                    I   N=           9
          21          20        1002           0           0         100
           6          18        -502
Full Title                                 C   N=           2
Title Card Required     
Route                                      C   N=           3
#p b3lyp/6-31+g** opt freq          
Charge                                     I                0
Multiplicity                               I                1
Number of electrons                        I               42
Number of alpha electrons                  I               21
Number of beta electrons                   I               21
Number of basis functions                  I              144
Number of independent functions            I              144
Number of point charges in /Mol/           I                0
Number of translation vectors              I                0
Atomic numbers                             I   N=          12
           6           6           6           6           6           6
           1           1           1           1           1           1
Nuclear charges                            R   N=          12
  6.00000000E+00  6.00000000E+00  6.00000000E+00  6.00000000E+00  6.00000000E+00
  6.00000000E+00  1.00000000E+00  1.00000000E+00  1.00000000E+00  1.00000000E+00
  1.00000000E+00  1.00000000E+00
Current cartesian coordinates              R   N=          36
 -2.53859332E+00 -7.34051911E-01  5.72641051E-06 -6.33374119E-01 -2.56549779E+00
  1.34876191E-04  1.90497275E+00 -1.83144961E+00 -1.15529195E-04  2.53853245E+00
  7.34266079E-01  1.49123416E-05  6.33586367E-01  2.56544085E+00  1.20722026E-04
 -1.90512406E+00  1.83129615E+00 -1.13598792E-04 -4.51037841E+00 -1.30445783E+00
 -1.18376648E-04 -1.12570564E+00 -4.55823102E+00  1.49327909E-04  3.38491844E+00
 -3.25377746E+00 -2.64586163E-04  4.51045008E+00  1.30417083E+00  2.49577975E-05
  1.12544756E+00  4.55827825E+00  2.27267688E-05 -3.38473244E+00  3.25399457E+00
 -9.67035625E-05
Number of symbols in /Mol/                 I                0
Force Field                                I                0
Atom Types                                 C   N=          12
                                                            
                                                            
                        
Int Atom Types                             I   N=          12
           0           0           0           0           0           0
           0           0           0           0           0           0
MM charges                                 R   N=          12
  0.00000000E+00  0.00000000E+00  0.00000000E+00  0.00000000E+00  0.00000000E+00
  0.00000000E+00  0.00000000E+00  0.00000000E+00  0.00000000E+00  0.00000000E+00
  0.00000000E+00  0.00000000E+00
Integer atomic weights                     I   N=          12
          12          12          12          12          12          12
           1           1           1           1           1           1
Real atomic weights                        R   N=          12
  1.20000000E+01  1.20000000E+01  1.20000000E+01  1.20000000E+01  1.20000000E+01
  1.20000000E+01  1.00782504E+00  1.00782504E+00  1.00782504E+00  1.00782504E+00
  1.00782504E+00  1.00782504E+00
Atom fragment info                         I   N=          12
           0           0           0           0           0           0
           0           0           0           0           0           0
Atom residue num                           I   N=          12
           0           0           0           0           0           0
           0           0           0           0           0           0
Nuclear spins                              I   N=          12
           0           0           0           0           0           0
           1           1           1           1           1           1
Nuclear ZEff                               R   N=          12
 -3.60000000E+00 -3.60000000E+00 -3.60000000E+00 -3.60000000E+00 -3.60000000E+00
 -3.60000000E+00 -1.00000000E+00 -1.00000000E+00 -1.00000000E+00 -1.00000000E+00
 -1.00000000E+00 -1.00000000E+00
Nuclear ZNuc                               R   N=          12
  6.00000000E+00  6.00000000E+00  6.00000000E+00  6.00000000E+00  6.00000000E+00
  6.00000000E+00  1.00000000E+00  1.00000000E+00  1.00000000E+00  1.00000000E+00
  1.00000000E+00  1.00000000E+00
Nuclear QMom                               R   N=          12
  0.00000000E+00  0.00000000E+00  0.00000000E+00  0.00000000E+00  0.00000000E+00
  0.00000000E+00  0.00000000E+00  0.00000000E+00  0.00000000E+00  0.00000000E+00
  0.00000000E+00  0.00000000E+00
Nuclear GFac                               R   N=          12
  0.00000000E+00  0.00000000E+00  0.00000000E+00  0.00000000E+00  0.00000000E+00
  0.00000000E+00  2.79284600E+00  2.79284600E+00  2.79284600E+00  2.79284600E+00
  2.79284600E+00  2.79284600E+00
MicOpt                                     I   N=          12
          -1          -1          -1          -1          -1          -1
          -1          -1          -1          -1          -1          -1
Number of residues                         I                0
Number of secondary structures             I                0
Redundant internal dimensions              I   N=           4
          54          12          18          24
Redundant internal coordinate indices      I   N=         216
           1           2           0           0           1           6
           0           0           1           7           0           0
           2           3           0           0           2           8
           0           0           3           4           0           0
           3           9           0           0           4           5
           0           0           4          10           0           0
           5           6           0           0           5          11
           0           0           6          12           0           0
           2           1           6           0           2           1
           7           0           6           1           7           0
           1           2           3           0           1           2
           8           0           3           2           8           0
           2           3           4           0           2           3
           9           0           4           3           9           0
           3           4           5           0           3           4
          10           0           5           4          10           0
           4           5           6           0           4           5
          11           0           6           5          11           0
           1           6           5           0           1           6
          12           0           5           6          12           0
           6           1           2           3           6           1
           2           8           7           1           2           3
           7           1           2           8           2           1
           6           5           2           1           6          12
           7           1           6           5           7           1
           6          12           1           2           3           4
           1           2           3           9           8           2
           3           4           8           2           3           9
           2           3           4           5           2           3
           4          10           9           3           4           5
           9           3           4          10           3           4
           5           6           3           4           5          11
          10           4           5           6          10           4
           5          11           4           5           6           1
           4           5           6          12          11           5
           6           1          11           5           6          12
Redundant internal coordinates             R   N=          54
  2.64273612E+00  2.64240307E+00  2.05263230E+00  2.64235342E+00  2.05265098E+00
  2.64278166E+00  2.05262169E+00  2.64235135E+00  2.05262041E+00  2.64272948E+00
  2.05263936E+00  2.05263532E+00  2.09436390E+00  2.09433816E+00  2.09448324E+00
  2.09443086E+00  2.09424103E+00  2.09451341E+00  2.09439040E+00  2.09454039E+00
  2.09425451E+00  2.09436169E+00  2.09423064E+00  2.09459298E+00  2.09443633E+00
  2.09447331E+00  2.09427566E+00  2.09438740E+00  2.09449841E+00  2.09429948E+00
 -1.13716020E-04 -3.14154865E+00  3.14141341E+00 -2.15242257E-05 -9.80950255E-05
 -3.14152671E+00  3.14156009E+00  1.31477464E-04  2.22854560E-04 -3.14145238E+00
 -3.14152755E+00 -1.74705741E-05 -1.20179266E-04  3.14147757E+00  3.14155504E+00
 -3.25223433E-05 -9.16321050E-05 -3.14148053E+00  3.14149593E+00  1.07034166E-04
  2.00770086E-04 -3.14155590E+00  3.14158969E+00 -1.66984181E-04
ZRed-IntVec                                I   N=          54
           0           0           0           0           0           0
           0           0           0           0           0           0
           0           0           0           0           0           0
           0           0           0           0           0           0
           0           0           0           0           0           0
           0           0           0           0           0           0
           0           0           0           0           0           0
           0           0           0           0           0           0
           0           0           0           0           0           0
ZRed-FPVec                                 R   N=          54
  0.00000000E+00  0.00000000E+00  0.00000000E+00  0.00000000E+00  0.00000000E+00
  0.00000000E+00  0.00000000E+00  0.00000000E+00  0.00000000E+00  0.00000000E+00
  0.00000000E+00  0.00000000E+00  0.00000000E+00  0.00000000E+00  0.00000000E+00
  0.00000000E+00  0.00000000E+00  0.00000000E+00  0.00000000E+00  0.00000000E+00
  0.00000000E+00  0.00000000E+00  0.00000000E+00  0.00000000E+00  0.00000000E+00
  0.00000000E+00  0.00000000E+00  0.00000000E+00  0.00000000E+00  0.00000000E+00
  0.00000000E+00  0.00000000E+00  0.00000000E+00  0.00000000E+00  0.00000000E+00
  0.00000000E+00  0.00000000E+00  0.00000000E+00  0.00000000E+00  0.00000000E+00
  0.00000000E+00  0.00000000E+00  0.00000000E+00  0.00000000E+00  0.00000000E+00
  0.00000000E+00  0.00000000E+00  0.00000000E+00  0.00000000E+00  0.00000000E+00
  0.00000000E+00  0.00000000E+00  0.00000000E+00  0.00000000E+00
ZRed-Constraint1                           R   N=          54
  2.64273612E+00  2.64240307E+00  2.05263230E+00  2.64235342E+00  2.05265098E+00
  2.64278166E+00  2.05262169E+00  2.64235135E+00  2.05262041E+00  2.64272948E+00
  2.05263936E+00  2.05263532E+00  2.09436390E+00  2.09433816E+00  2.09448324E+00
  2.09443086E+00  2.09424103E+00  2.09451341E+00  2.09439040E+00  2.09454039E+00
  2.09425451E+00  2.09436169E+00  2.09423064E+00  2.09459298E+00  2.09443633E+00
  2.09447331E+00  2.09427566E+00  2.09438740E+00  2.09449841E+00  2.09429948E+00
 -1.13716020E-04 -3.14154865E+00  3.14141341E+00 -2.15242206E-05 -9.80950255E-05
 -3.14152671E+00  3.14156009E+00  1.31477464E-04  2.22854560E-04 -3.14145238E+00
 -3.14152755E+00 -1.74705741E-05 -1.20179266E-04  3.14147757E+00  3.14155504E+00
 -3.25223501E-05 -9.16321062E-05 -3.14148053E+00  3.14149593E+00  1.07034166E-04
  2.00770086E-04 -3.14155590E+00  3.14158969E+00 -1.66984181E-04
ZRed-Constraint2                           R   N=          54
  2.63647030E+00  2.63584493E+00  2.07796233E+00  2.63562382E+00  2.07804735E+00
  2.63697488E+00  2.07809438E+00  2.63583740E+00  2.07809423E+00  2.63642862E+00
  2.07824707E+00  2.07795046E+00  2.09436817E+00  2.09434664E+00  2.09447050E+00
  2.09454576E+00  2.09405948E+00  2.09457924E+00  2.09429326E+00  2.09461842E+00
  2.09427359E+00  2.09429025E+00  2.09406597E+00  2.09482897E+00  2.09447721E+00
  2.09459308E+00  2.09411499E+00  2.09439550E+00  2.09453468E+00  2.09425504E+00
  5.64580693E-04  3.14077668E+00 -3.14112012E+00 -9.08026013E-04  2.59777937E-04
  3.14140373E+00 -3.14124082E+00 -9.68701591E-05 -9.92101173E-04  3.14092685E+00
 -3.14120378E+00  7.15165115E-04  5.95408499E-04 -3.14153045E+00 -3.14132347E+00
 -2.64028810E-04  2.28817626E-04 -3.14158417E+00 -3.14083039E+00  5.41927350E-04
 -6.56396155E-04  3.14138489E+00  3.14115653E+00  1.25074812E-05
SymInf integers                            I   N=          26
           1           1           1           1           1           0
           0           0           0           0           0           0
           0           0           0           0           0           0
           0           0           0           0           0           0
           0           0
RotTr to input orientation                 R   N=          12
  7.20942003E-01  6.92995370E-01 -2.13449324E-04 -6.92995329E-01  7.20941749E-01
 -6.83707676E-04 -3.19921725E-04  6.40832966E-04  9.99999743E-01 -4.34599469E+00
  9.64407474E-01 -9.11219937E-04
Number of contracted shells                I               48
Number of primitive shells                 I              102
Pure/Cartesian d shells                    I                1
Pure/Cartesian f shells                    I                0
Highest angular momentum                   I                2
Largest degree of contraction              I                6
Shell types                                I   N=          48
           0          -1          -1          -1           2           0
          -1          -1          -1           2           0          -1
          -1          -1           2           0          -1          -1
          -1           2           0          -1          -1          -1
           2           0          -1          -1          -1           2
           0           0           1           0           0           1
           0           0           1           0           0           1
           0           0           1           0           0           1
Number of primitives per shell             I   N=          48
           6           3           1           1           1           6
           3           1           1           1           6           3
           1           1           1           6           3           1
           1           1           6           3           1           1
           1           6           3           1           1           1
           3           1           1           3           1           1
           3           1           1           3           1           1
           3           1           1           3           1           1
Shell to atom map                          I   N=          48
           1           1           1           1           1           2
           2           2           2           2           3           3
           3           3           3           4           4           4
           4           4           5           5           5           5
           5           6           6           6           6           6
           7           7           7           8           8           8
           9           9           9          10          10          10
          11          11          11          12          12          12
Primitive exponents                        R   N=         102
  3.04752488E+03  4.57369518E+02  1.03948685E+02  2.92101553E+01  9.28666296E+00
  3.16392696E+00  7.86827235E+00  1.88128854E+00  5.44249258E-01  1.68714478E-01
  4.38000000E-02  8.00000000E-01  3.04752488E+03  4.57369518E+02  1.03948685E+02
  2.92101553E+01  9.28666296E+00  3.16392696E+00  7.86827235E+00  1.88128854E+00
  5.44249258E-01  1.68714478E-01  4.38000000E-02  8.00000000E-01  3.04752488E+03
  4.57369518E+02  1.03948685E+02  2.92101553E+01  9.28666296E+00  3.16392696E+00
  7.86827235E+00  1.88128854E+00  5.44249258E-01  1.68714478E-01  4.38000000E-02
  8.00000000E-01  3.04752488E+03  4.57369518E+02  1.03948685E+02  2.92101553E+01
  9.28666296E+00  3.16392696E+00  7.86827235E+00  1.88128854E+00  5.44249258E-01
  1.68714478E-01  4.38000000E-02  8.00000000E-01  3.04752488E+03  4.57369518E+02
  1.03948685E+02  2.92101553E+01  9.28666296E+00  3.16392696E+00  7.86827235E+00
  1.88128854E+00  5.44249258E-01  1.68714478E-01  4.38000000E-02  8.00000000E-01
  3.04752488E+03  4.57369518E+02  1.03948685E+02  2.92101553E+01  9.28666296E+00
  3.16392696E+00  7.86827235E+00  1.88128854E+00  5.44249258E-01  1.68714478E-01
  4.38000000E-02  8.00000000E-01  1.87311370E+01  2.82539436E+00  6.40121692E-01
  1.61277759E-01  1.10000000E+00  1.87311370E+01  2.82539436E+00  6.40121692E-01
  1.61277759E-01  1.10000000E+00  1.87311370E+01  2.82539436E+00  6.40121692E-01
  1.61277759E-01  1.10000000E+00  1.87311370E+01  2.82539436E+00  6.40121692E-01
  1.61277759E-01  1.10000000E+00  1.87311370E+01  2.82539436E+00  6.40121692E-01
  1.61277759E-01  1.10000000E+00  1.87311370E+01  2.82539436E+00  6.40121692E-01
  1.61277759E-01  1.10000000E+00
Contraction coefficients                   R   N=         102
  1.83473713E-03  1.40373228E-02  6.88426223E-02  2.32184443E-01  4.67941348E-01
  3.62311985E-01 -1.19332420E-01 -1.60854152E-01  1.14345644E+00  1.00000000E+00
  1.00000000E+00  1.00000000E+00  1.83473713E-03  1.40373228E-02  6.88426223E-02
  2.32184443E-01  4.67941348E-01  3.62311985E-01 -1.19332420E-01 -1.60854152E-01
  1.14345644E+00  1.00000000E+00  1.00000000E+00  1.00000000E+00  1.83473713E-03
  1.40373228E-02  6.88426223E-02  2.32184443E-01  4.67941348E-01  3.62311985E-01
 -1.19332420E-01 -1.60854152E-01  1.14345644E+00  1.00000000E+00  1.00000000E+00
  1.00000000E+00  1.83473713E-03  1.40373228E-02  6.88426223E-02  2.32184443E-01
  4.67941348E-01  3.62311985E-01 -1.19332420E-01 -1.60854152E-01  1.14345644E+00
  1.00000000E+00  1.00000000E+00  1.00000000E+00  1.83473713E-03  1.40373228E-02
  6.88426223E-02  2.32184443E-01  4.67941348E-01  3.62311985E-01 -1.19332420E-01
 -1.60854152E-01  1.14345644E+00  1.00000000E+00  1.00000000E+00  1.00000000E+00
  1.83473713E-03  1.40373228E-02  6.88426223E-02  2.32184443E-01  4.67941348E-01
  3.62311985E-01 -1.19332420E-01 -1.60854152E-01  1.14345644E+00  1.00000000E+00
  1.00000000E+00  1.00000000E+00  3.34946043E-02  2.34726953E-01  8.13757326E-01
  1.00000000E+00  1.00000000E+00  3.34946043E-02  2.34726953E-01  8.13757326E-01
  1.00000000E+00  1.00000000E+00  3.34946043E-02  2.34726953E-01  8.13757326E-01
  1.00000000E+00  1.00000000E+00  3.34946043E-02  2.34726953E-01  8.13757326E-01
  1.00000000E+00  1.00000000E+00  3.34946043E-02  2.34726953E-01  8.13757326E-01
  1.00000000E+00  1.00000000E+00  3.34946043E-02  2.34726953E-01  8.13757326E-01
  1.00000000E+00  1.00000000E+00
P(S=P) Contraction coefficients            R   N=         102
  0.00000000E+00  0.00000000E+00  0.00000000E+00  0.00000000E+00  0.00000000E+00
  0.00000000E+00  6.89990666E-02  3.16423961E-01  7.44308291E-01  1.00000000E+00
  1.00000000E+00  0.00000000E+00  0.00000000E+00  0.00000000E+00  0.00000000E+00
  0.00000000E+00  0.00000000E+00  0.00000000E+00  6.89990666E-02  3.16423961E-01
  7.44308291E-01  1.00000000E+00  1.00000000E+00  0.00000000E+00  0.00000000E+00
  0.00000000E+00  0.00000000E+00  0.00000000E+00  0.00000000E+00  0.00000000E+00
  6.89990666E-02  3.16423961E-01  7.44308291E-01  1.00000000E+00  1.00000000E+00
  0.00000000E+00  0.00000000E+00  0.00000000E+00  0.00000000E+00  0.00000000E+00
  0.00000000E+00  0.00000000E+00  6.89990666E-02  3.16423961E-01  7.44308291E-01
  1.00000000E+00  1.00000000E+00  0.00000000E+00  0.00000000E+00  0.00000000E+00
  0.00000000E+00  0.00000000E+00  0.00000000E+00  0.00000000E+00  6.89990666E-02
  3.16423961E-01  7.44308291E-01  1.00000000E+00  1.00000000E+00  0.00000000E+00
  0.00000000E+00  0.00000000E+00  0.00000000E+00  0.00000000E+00  0.00000000E+00
  0.00000000E+00  6.89990666E-02  3.16423961E-01  7.44308291E-01  1.00000000E+00
  1.00000000E+00  0.00000000E+00  0.00000000E+00  0.00000000E+00  0.00000000E+00
  0.00000000E+00  0.00000000E+00  0.00000000E+00  0.00000000E+00  0.00000000E+00
  0.00000000E+00  0.00000000E+00  0.00000000E+00  0.00000000E+00  0.00000000E+00
  0.00000000E+00  0.00000000E+00  0.00000000E+00  0.00000000E+00  0.00000000E+00
  0.00000000E+00  0.00000000E+00  0.00000000E+00  0.00000000E+00  0.00000000E+00
  0.00000000E+00  0.00000000E+00  0.00000000E+00  0.00000000E+00  0.00000000E+00
  0.00000000E+00  0.00000000E+00
Coordinates of each shell                  R   N=         144
 -2.53859332E+00 -7.34051911E-01  5.72641051E-06 -2.53859332E+00 -7.34051911E-01
  5.72641051E-06 -2.53859332E+00 -7.34051911E-01  5.72641051E-06 -2.53859332E+00
 -7.34051911E-01  5.72641051E-06 -2.53859332E+00 -7.34051911E-01  5.72641051E-06
 -6.33374119E-01 -2.56549779E+00  1.34876191E-04 -6.33374119E-01 -2.56549779E+00
  1.34876191E-04 -6.33374119E-01 -2.56549779E+00  1.34876191E-04 -6.33374119E-01
 -2.56549779E+00  1.34876191E-04 -6.33374119E-01 -2.56549779E+00  1.34876191E-04
  1.90497275E+00 -1.83144961E+00 -1.15529195E-04  1.90497275E+00 -1.83144961E+00
 -1.15529195E-04  1.90497275E+00 -1.83144961E+00 -1.15529195E-04  1.90497275E+00
 -1.83144961E+00 -1.15529195E-04  1.90497275E+00 -1.83144961E+00 -1.15529195E-04
  2.53853245E+00  7.34266079E-01  1.49123416E-05  2.53853245E+00  7.34266079E-01
  1.49123416E-05  2.53853245E+00  7.34266079E-01  1.49123416E-05  2.53853245E+00
  7.34266079E-01  1.49123416E-05  2.53853245E+00  7.34266079E-01  1.49123416E-05
  6.33586367E-01  2.56544085E+00  1.20722026E-04  6.33586367E-01  2.56544085E+00
  1.20722026E-04  6.33586367E-01  2.56544085E+00  1.20722026E-04  6.33586367E-01
  2.56544085E+00  1.20722026E-04  6.33586367E-01  2.56544085E+00  1.20722026E-04
 -1.90512406E+00  1.83129615E+00 -1.13598792E-04 -1.90512406E+00  1.83129615E+00
 -1.13598792E-04 -1.90512406E+00  1.83129615E+00 -1.13598792E-04 -1.90512406E+00
  1.83129615E+00 -1.13598792E-04 -1.90512406E+00  1.83129615E+00 -1.13598792E-04
 -4.51037841E+00 -1.30445783E+00 -1.18376648E-04 -4.51037841E+00 -1.30445783E+00
 -1.18376648E-04 -4.51037841E+00 -1.30445783E+00 -1.18376648E-04 -1.12570564E+00
 -4.55823102E+00  1.49327909E-04 -1.12570564E+00 -4.55823102E+00  1.49327909E-04
 -1.12570564E+00 -4.55823102E+00  1.49327909E-04  3.38491844E+00 -3.25377746E+00
 -2.64586163E-04  3.38491844E+00 -3.25377746E+00 -2.64586163E-04  3.38491844E+00
 -3.25377746E+00 -2.64586163E-04  4.51045008E+00  1.30417083E+00  2.49577975E-05
  4.51045008E+00  1.30417083E+00  2.49577975E-05  4.51045008E+00  1.30417083E+00
  2.49577975E-05  1.12544756E+00  4.55827825E+00  2.27267688E-05  1.12544756E+00
  4.55827825E+00  2.27267688E-05  1.12544756E+00  4.55827825E+00  2.27267688E-05
 -3.38473244E+00  3.25399457E+00 -9.67035625E-05 -3.38473244E+00  3.25399457E+00
 -9.67035625E-05 -3.38473244E+00  3.25399457E+00 -9.67035625E-05
Num ILSW                                   I              100
ILSW                                       I   N=         100
           0           1           0           0           2           0
           0           0           0           0         402          -1
           5           0           0           0           2           0
           0           0           0           0           1           0
           1           0           0           0           0           0
           0           0      100000           0          -1           0
           0           0           0           0           0           0
           0           0           0           1           0           0
           0 -2000000000           1           0           0           0
           0           0           4          52           0           0
           0           0           5           0           0           0
           0           0           0          12           0           1
           0           0           0           0           0           0
           0           0           0           0           0           0
           0           0           0           0           0           0
           0           0           0           0           0           0
           0           0           0           0
Num RLSW                                   I               52
RLSW                                       R   N=          52
  8.00000000E-01  7.20000000E-01  1.00000000E+00  8.10000000E-01  2.00000000E-01
  0.00000000E+00  0.00000000E+00  1.00000000E+00  0.00000000E+00  0.00000000E+00
  0.00000000E+00  0.00000000E+00  1.00000000E+00  0.00000000E+00  0.00000000E+00
  0.00000000E+00  0.00000000E+00  1.00000000E+00  0.00000000E+00  0.00000000E+00
  0.00000000E+00  0.00000000E+00  1.00000000E+00  0.00000000E+00  0.00000000E+00
  0.00000000E+00  0.00000000E+00  1.00000000E+00  0.00000000E+00  0.00000000E+00
  0.00000000E+00  0.00000000E+00  1.00000000E+00  0.00000000E+00  0.00000000E+00
  0.00000000E+00  0.00000000E+00  0.00000000E+00  1.00000000E+00  1.00000000E+00
  0.00000000E+00  1.00000000E+00  0.00000000E+00  0.00000000E+00  0.00000000E+00
  0.00000000E+00  0.00000000E+00  0.00000000E+00  0.00000000E+00  0.00000000E+00
  0.00000000E+00  0.00000000E+00
MxBond                                     I                3
NBond                                      I   N=          12
           3           3           3           3           3           3
           1           1           1           1           1           1
IBond                                      I   N=          36
           2           6           7           1           3           8
           2           4           9           3           5          10
           4           6          11           1           5          12
           1           0           0           2           0           0
           3           0           0           4           0           0
           5           0           0           6           0           0
RBond                                      R   N=          36
  1.50000000E+00  1.50000000E+00  1.00000000E+00  1.50000000E+00  1.50000000E+00
  1.00000000E+00  1.50000000E+00  1.50000000E+00  1.00000000E+00  1.50000000E+00
  1.50000000E+00  1.00000000E+00  1.50000000E+00  1.50000000E+00  1.00000000E+00
  1.50000000E+00  1.50000000E+00  1.00000000E+00  1.00000000E+00  0.00000000E+00
  0.00000000E+00  1.00000000E+00  0.00000000E+00  0.00000000E+00  1.00000000E+00
  0.00000000E+00  0.00000000E+00  1.00000000E+00  0.00000000E+00  0.00000000E+00
  1.00000000E+00  0.00000000E+00  0.00000000E+00  1.00000000E+00  0.00000000E+00
  0.00000000E+00
Virial Ratio                               R      2.010243083504998E+00
SCF Energy                                 R     -2.322683926990974E+02
Total Energy                               R     -2.322683926990974E+02
RMS Force                                  R      1.025642563506986E-04
RMS Density                                R      3.235879443046346E-09
NImag                                      I                0
Job Status                                 I                1
Nuclear derivative order                   I                2
External E-field                           R   N=          35
  0.00000000E+00  0.00000000E+00  0.00000000E+00  0.00000000E+00  0.00000000E+00
  0.00000000E+00  0.00000000E+00  0.00000000E+00  0.00000000E+00  0.00000000E+00
  0.00000000E+00  0.00000000E+00  0.00000000E+00  0.00000000E+00  0.00000000E+00
  0.00000000E+00  0.00000000E+00  0.00000000E+00  0.00000000E+00  0.00000000E+00
  0.00000000E+00  0.00000000E+00  0.00000000E+00  0.00000000E+00  0.00000000E+00
  0.00000000E+00  0.00000000E+00  0.00000000E+00  0.00000000E+00  0.00000000E+00
  0.00000000E+00  0.00000000E+00  0.00000000E+00  0.00000000E+00  0.00000000E+00
IOpCl                                      I                0
IROHF                                      I                0
Alpha Orbital Energies                     R   N=         144
 -1.01987950E+01 -1.01985299E+01 -1.01985288E+01 -1.01979763E+01 -1.01979751E+01
 -1.01977115E+01 -8.56993350E-01 -7.49915022E-01 -7.49913236E-01 -6.06730330E-01
 -6.06726342E-01 -5.26641630E-01 -4.66562259E-01 -4.48784152E-01 -4.25815124E-01
 -4.25810875E-01 -3.69729034E-01 -3.48971669E-01 -3.48951651E-01 -2.57624233E-01
 -2.57620820E-01 -1.54830064E-02 -1.54751725E-02  8.45964807E-03  2.56379863E-02
  2.56386707E-02  4.54057959E-02  4.54066212E-02  6.64343094E-02  7.78000425E-02
  7.92870559E-02  9.20222391E-02  9.20263338E-02  9.90451223E-02  1.24837135E-01
  1.42726468E-01  1.42731078E-01  1.44108243E-01  1.44109498E-01  1.55160500E-01
  1.55164923E-01  1.96379365E-01  1.96383019E-01  1.96654764E-01  2.04905916E-01
  2.11408991E-01  2.11412838E-01  2.35325436E-01  2.44577869E-01  2.44580784E-01
  2.66172965E-01  2.79362814E-01  2.79366438E-01  3.25436423E-01  3.47054882E-01
  3.47070890E-01  3.48354819E-01  3.48366366E-01  5.62306739E-01  5.67822428E-01
  6.01217371E-01  6.19752299E-01  6.58720813E-01  7.17002330E-01  7.17003251E-01
  7.18450452E-01  7.18460278E-01  7.46158894E-01  7.46160557E-01  7.66422461E-01
  7.66428807E-01  8.00101358E-01  8.26134843E-01  8.81584913E-01  9.13975702E-01
  9.13978588E-01  9.49136993E-01  9.49144861E-01  9.75596063E-01  1.02274010E+00
  1.07044587E+00  1.07045574E+00  1.12171716E+00  1.12174580E+00  1.16604545E+00
  1.16604717E+00  1.25079167E+00  1.29494297E+00  1.30992079E+00  1.39685035E+00
  1.39685701E+00  1.41836070E+00  1.41838046E+00  1.43118885E+00  1.43120441E+00
  1.74196433E+00  1.78397921E+00  1.84420085E+00  1.88703970E+00  1.94231764E+00