 Entering Gaussian System, Link 0=g16
 Input=benzene.gjf
 Output=benzene.log
 Initial command:
 /home/soft/g16/l1.exe "/tmp/gaussian/Gau-182276.inp" -scrdir="/tmp/gaussian/"
 Entering Link 1 = /home/soft/g16/l1.exe PID=    182277.
  
 Copyright (c) 1988,1990,1992,1993,1995,1998,2003,2009,2016,
            Gaussian, Inc.  All Rights Reserved.
  
 This is part of the Gaussian(R) 16 program.  It is based on
 the Gaussian(R) 09 system (copyright 2009, Gaussian, Inc.),
 the Gaussian(R) 03 system (copyright 2003, Gaussian, Inc.),
 the Gaussian(R) 98 system (copyright 1998, Gaussian, Inc.),
 the Gaussian(R) 94 system (copyright 1995, Gaussian, Inc.),
 the Gaussian 92(TM) system (copyright 1992, Gaussian, Inc.),
 the Gaussian 90(TM) system (copyright 1990, Gaussian, Inc.),
 the Gaussian 88(TM) system (copyright 1988, Gaussian, Inc.),
 the Gaussian 86(TM) system (copyright 1986, Carnegie Mellon
 University), and the Gaussian 82(TM) system (copyright 1983,
 Carnegie Mellon University). Gaussian is a federally registered
 trademark of Gaussian, Inc.
  
 This software contains proprietary and confidential information,
 including trade secrets, belonging to Gaussian, Inc.
  
 This software is provided under written license and may be
 used, copied, transmitted, or stored only in accord with that
 written license.
  
 The following legend is applicable only to US Government
 contracts under FAR:
  
                    RESTRICTED RIGHTS LEGEND
  
 Use, reproduction and disclosure by the US Government is
 subject to restrictions as set forth in subparagraphs (a)
 and (c) of the Commercial Computer Software - Restricted
 Rights clause in FAR 52.227-19.
  
 Gaussian, Inc.
 340 Quinnipiac St., Bldg. 40, Wallingford CT 06492
  
  
 ---------------------------------------------------------------
 Warning -- This program may not be used in any manner that
 competes with the business of Gaussian, Inc. or will provide
 assistance to any competitor of Gaussian, Inc.  The licensee
 of this program is prohibited from giving any competitor of
 Gaussian, Inc. access to this program.  By using this program,
 the user acknowledges that Gaussian, Inc. is engaged in the
 business of creating and licensing software in the field of
 computational chemistry and represents and warrants to the
 licensee that it is not a competitor of Gaussian, Inc. and that
 it will not use this program in any manner prohibited above.
 ---------------------------------------------------------------
  

 Cite this work as:
 Gaussian 16, Revision A.03,
 M. J. Frisch, G. W. Trucks, H. B. Schlegel, G. E. Scuseria, 
 M. A. Robb, J. R. Cheeseman, G. Scalmani, V. Barone, 
 G. A. Petersson, H. Nakatsuji, X. Li, M. Caricato, A. V. Marenich, 
 J. Bloino, B. G. Janesko, R. Gomperts, B. Mennucci, H. P. Hratchian, 
 J. V. Ortiz, A. F. Izmaylov, J. L. Sonnenberg, D. Williams-Young, 
 F. Ding, F. Lipparini, F. Egidi, J. Goings, B. Peng, A. Petrone, 
 T. Henderson, D. Ranasinghe, V. G. Zakrzewski, J. Gao, N. Rega, 
 G. Zheng, W. Liang, M. Hada, M. Ehara, K. Toyota, R. Fukuda, 
 J. Hasegawa, M. Ishida, T. Nakajima, Y. Honda, O. Kitao, H. Nakai, 
 T. Vreven, K. Throssell, J. A. Montgomery, Jr., J. E. Peralta, 
 F. Ogliaro, M. J. Bearpark, J. J. Heyd, E. N. Brothers, K. N. Kudin, 
 V. N. Staroverov, T. A. Keith, R. Kobayashi, J. Normand, 
 K. Raghavachari, A. P. Rendell, J. C. Burant, S. S. Iyengar, 
 J. Tomasi, M. Cossi, J. M. Millam, M. Klene, C. Adamo, R. Cammi, 
 J. W. Ochterski, R. L. Martin, K. Morokuma, O. Farkas, 
 J. B. Foresman, and D. J. Fox, Gaussian, Inc., Wallingford CT, 2016.
 
 ******************************************
 Gaussian 16:  ES64L-G16RevA.03 25-Dec-2016
                11-Oct-2019 
 ******************************************
 %chk=benzene.chk
 %nproc=24
 Will use up to   24 processors via shared memory.
 --------------------------
 #p b3lyp/6-31+g** opt freq
 --------------------------
 1/18=20,19=15,26=3,38=1/1,3;
 2/9=110,12=2,17=6,18=5,40=1/2;
 3/5=1,6=6,7=111,11=2,25=1,30=1,71=1,74=-5/1,2,3;
 4//1;
 5/5=2,38=5/2;
 6/7=2,8=2,9=2,10=2,28=1/1;
 7//1,2,3,16;
 1/18=20,19=15,26=3/3(2);
 2/9=110/2;
 99//99;
 2/9=110/2;
 3/5=1,6=6,7=111,11=2,25=1,30=1,71=1,74=-5/1,2,3;
 4/5=5,16=3,69=1/1;
 5/5=2,38=5/2;
 7//1,2,3,16;
 1/18=20,19=15,26=3/3(-5);
 2/9=110/2;
 6/7=2,8=2,9=2,10=2,19=2,28=1/1;
 99/9=1/99;
 Leave Link    1 at Fri Oct 11 19:08:57 2019, MaxMem=           0 cpu:               1.8 elap:               0.1
 (Enter /home/soft/g16/l101.exe)
 -------------------
 Title Card Required
 -------------------
 Symbolic Z-matrix:
 Charge =  0 Multiplicity = 1
 C                    -2.99742  -0.69767   0. 
 C                    -1.60226  -0.69767   0. 
 C                    -0.90472   0.51008   0. 
 C                    -1.60237   1.71859  -0.0012 
 C                    -2.9972    1.71851  -0.00168 
 C                    -3.6948    0.5103   -0.00068 
 H                    -3.54717  -1.64999   0.00045 
 H                    -1.05275  -1.65019   0.00132 
 H                     0.19496   0.51016   0.00063 
 H                    -1.05217   2.67073  -0.00126 
 H                    -3.54732   2.67079  -0.00263 
 H                    -4.7944    0.51048  -0.00086 
 
 ITRead=  0  0  0  0  0  0  0  0  0  0  0  0
 MicOpt= -1 -1 -1 -1 -1 -1 -1 -1 -1 -1 -1 -1
 NAtoms=     12 NQM=       12 NQMF=       0 NMMI=      0 NMMIF=      0
                NMic=       0 NMicF=      0.
                    Isotopes and Nuclear Properties:
 (Nuclear quadrupole moments (NQMom) in fm**2, nuclear magnetic moments (NMagM)
  in nuclear magnetons)

  Atom         1           2           3           4           5           6           7           8           9          10
 IAtWgt=          12          12          12          12          12          12           1           1           1           1
 AtmWgt=  12.0000000  12.0000000  12.0000000  12.0000000  12.0000000  12.0000000   1.0078250   1.0078250   1.0078250   1.0078250
 NucSpn=           0           0           0           0           0           0           1           1           1           1
 AtZEff=  -0.0000000  -0.0000000  -0.0000000  -0.0000000  -0.0000000  -0.0000000  -0.0000000  -0.0000000  -0.0000000  -0.0000000
 NQMom=    0.0000000   0.0000000   0.0000000   0.0000000   0.0000000   0.0000000   0.0000000   0.0000000   0.0000000   0.0000000
 NMagM=    0.0000000   0.0000000   0.0000000   0.0000000   0.0000000   0.0000000   2.7928460   2.7928460   2.7928460   2.7928460
 AtZNuc=   6.0000000   6.0000000   6.0000000   6.0000000   6.0000000   6.0000000   1.0000000   1.0000000   1.0000000   1.0000000

  Atom        11          12
 IAtWgt=           1           1
 AtmWgt=   1.0078250   1.0078250
 NucSpn=           1           1
 AtZEff=  -0.0000000  -0.0000000
 NQMom=    0.0000000   0.0000000
 NMagM=    2.7928460   2.7928460
 AtZNuc=   1.0000000   1.0000000
 Leave Link  101 at Fri Oct 11 19:08:57 2019, MaxMem=   280000000 cpu:               5.0 elap:               0.3
 (Enter /home/soft/g16/l103.exe)

 GradGradGradGradGradGradGradGradGradGradGradGradGradGradGradGradGradGrad
 Berny optimization.
 Initialization pass.
                           ----------------------------
                           !    Initial Parameters    !
                           ! (Angstroms and Degrees)  !
 --------------------------                            --------------------------
 ! Name  Definition              Value          Derivative Info.                !
 --------------------------------------------------------------------------------
 ! R1    R(1,2)                  1.3952         estimate D2E/DX2                !
 ! R2    R(1,6)                  1.3948         estimate D2E/DX2                !
 ! R3    R(1,7)                  1.0996         estimate D2E/DX2                !
 ! R4    R(2,3)                  1.3947         estimate D2E/DX2                !
 ! R5    R(2,8)                  1.0997         estimate D2E/DX2                !
 ! R6    R(3,4)                  1.3954         estimate D2E/DX2                !
 ! R7    R(3,9)                  1.0997         estimate D2E/DX2                !
 ! R8    R(4,5)                  1.3948         estimate D2E/DX2                !
 ! R9    R(4,10)                 1.0997         estimate D2E/DX2                !
 ! R10   R(5,6)                  1.3951         estimate D2E/DX2                !
 ! R11   R(5,11)                 1.0998         estimate D2E/DX2                !
 ! R12   R(6,12)                 1.0996         estimate D2E/DX2                !
 ! A1    A(2,1,6)              119.9985         estimate D2E/DX2                !
 ! A2    A(2,1,7)              119.9972         estimate D2E/DX2                !
 ! A3    A(6,1,7)              120.0043         estimate D2E/DX2                !
 ! A4    A(1,2,3)              120.0086         estimate D2E/DX2                !
 ! A5    A(1,2,8)              119.9808         estimate D2E/DX2                !
 ! A6    A(3,2,8)              120.0106         estimate D2E/DX2                !
 ! A7    A(2,3,4)              119.9942         estimate D2E/DX2                !
 ! A8    A(2,3,9)              120.0128         estimate D2E/DX2                !
 ! A9    A(4,3,9)              119.993          estimate D2E/DX2                !
 ! A10   A(3,4,5)              119.994          estimate D2E/DX2                !
 ! A11   A(3,4,10)             119.9811         estimate D2E/DX2                !
 ! A12   A(5,4,10)             120.0249         estimate D2E/DX2                !
 ! A13   A(4,5,6)              120.0047         estimate D2E/DX2                !
 ! A14   A(4,5,11)             120.0113         estimate D2E/DX2                !
 ! A15   A(6,5,11)             119.984          estimate D2E/DX2                !
 ! A16   A(1,6,5)              120.0            estimate D2E/DX2                !
 ! A17   A(1,6,12)             120.008          estimate D2E/DX2                !
 ! A18   A(5,6,12)             119.992          estimate D2E/DX2                !
 ! D1    D(6,1,2,3)              0.0323         estimate D2E/DX2                !
 ! D2    D(6,1,2,8)            179.9532         estimate D2E/DX2                !
 ! D3    D(7,1,2,3)           -179.9729         estimate D2E/DX2                !
 ! D4    D(7,1,2,8)             -0.052          estimate D2E/DX2                !
 ! D5    D(2,1,6,5)              0.0149         estimate D2E/DX2                !
 ! D6    D(2,1,6,12)           179.9892         estimate D2E/DX2                !
 ! D7    D(7,1,6,5)           -179.9798         estimate D2E/DX2                !
 ! D8    D(7,1,6,12)            -0.0056         estimate D2E/DX2                !
 ! D9    D(1,2,3,4)             -0.0568         estimate D2E/DX2                !
 ! D10   D(1,2,3,9)            179.9619         estimate D2E/DX2                !
 ! D11   D(8,2,3,4)           -179.9777         estimate D2E/DX2                !
 ! D12   D(8,2,3,9)              0.041          estimate D2E/DX2                !
 ! D13   D(2,3,4,5)              0.0341         estimate D2E/DX2                !
 ! D14   D(2,3,4,10)          -179.9964         estimate D2E/DX2                !
 ! D15   D(9,3,4,5)           -179.9846         estimate D2E/DX2                !
 ! D16   D(9,3,4,10)            -0.0151         estimate D2E/DX2                !
 ! D17   D(3,4,5,6)              0.0131         estimate D2E/DX2                !
 ! D18   D(3,4,5,11)          -179.9995         estimate D2E/DX2                !
 ! D19   D(10,4,5,6)          -179.9563         estimate D2E/DX2                !
 ! D20   D(10,4,5,11)            0.0311         estimate D2E/DX2                !
 ! D21   D(4,5,6,1)             -0.0376         estimate D2E/DX2                !
 ! D22   D(4,5,6,12)           179.9881         estimate D2E/DX2                !
 ! D23   D(11,5,6,1)           179.975          estimate D2E/DX2                !
 ! D24   D(11,5,6,12)            0.0007         estimate D2E/DX2                !
 --------------------------------------------------------------------------------
 Trust Radius=3.00D-01 FncErr=1.00D-07 GrdErr=1.00D-06 EigMax=2.50D+02 EigMin=1.00D-04
 Number of steps in this run=     64 maximum allowed number of steps=    100.
 GradGradGradGradGradGradGradGradGradGradGradGradGradGradGradGradGradGrad

 Leave Link  103 at Fri Oct 11 19:08:57 2019, MaxMem=   280000000 cpu:               0.4 elap:               0.0
 (Enter /home/soft/g16/l202.exe)
                          Input orientation:                          
 ---------------------------------------------------------------------
 Center     Atomic      Atomic             Coordinates (Angstroms)
 Number     Number       Type             X           Y           Z
 ---------------------------------------------------------------------
      1          6           0       -2.997416   -0.697674    0.000000
      2          6           0       -1.602256   -0.697674    0.000000
      3          6           0       -0.904718    0.510077    0.000000
      4          6           0       -1.602372    1.718586   -0.001199
      5          6           0       -2.997197    1.718508   -0.001678
      6          6           0       -3.694798    0.510302   -0.000682
      7          1           0       -3.547175   -1.649991    0.000450
      8          1           0       -1.052748   -1.650187    0.001315
      9          1           0        0.194962    0.510157    0.000634
     10          1           0       -1.052172    2.670729   -0.001258
     11          1           0       -3.547319    2.670789   -0.002631
     12          1           0       -4.794402    0.510485   -0.000862
 ---------------------------------------------------------------------
                    Distance matrix (angstroms):
                    1          2          3          4          5
     1  C    0.000000
     2  C    1.395160   0.000000
     3  C    2.416205   1.394712   0.000000
     4  C    2.790065   2.416260   1.395427   0.000000
     5  C    2.416183   2.789946   2.416356   1.394825   0.000000
     6  C    1.394829   2.416183   2.790080   2.416236   1.395138
     7  H    1.099610   2.165553   3.412986   3.889675   3.413102
     8  H    2.165414   1.099655   2.165330   3.413316   3.889601
     9  H    3.413229   2.165375   1.099680   2.165806   3.413209
    10  H    3.889745   3.413024   2.165678   1.099680   2.165606
    11  H    3.413055   3.889707   3.413506   2.165528   1.099761
    12  H    2.165365   3.413128   3.889684   3.412999   2.165471
                    6          7          8          9         10
     6  C    0.000000
     7  H    2.165331   0.000000
     8  H    3.412938   2.494427   0.000000
     9  H    3.889760   4.320860   2.494768   0.000000
    10  H    3.413344   4.989355   4.320917   2.494678   0.000000
    11  H    2.165516   4.320781   4.989362   4.321228   2.495147
    12  H    1.099604   2.494641   4.320704   4.989364   4.320988
                   11         12
    11  H    0.000000
    12  H    2.494420   0.000000
 Stoichiometry    C6H6
 Framework group  C1[X(C6H6)]
 Deg. of freedom    30
 Full point group                 C1      NOp   1
 Largest Abelian subgroup         C1      NOp   1
 Largest concise Abelian subgroup C1      NOp   1
                         Standard orientation:                         
 ---------------------------------------------------------------------
 Center     Atomic      Atomic             Coordinates (Angstroms)
 Number     Number       Type             X           Y           Z
 ---------------------------------------------------------------------
      1          6           0       -0.176717   -1.383752    0.000005
      2          6           0        1.110106   -0.844719   -0.000364
      3          6           0        1.286853    0.538749    0.000194
      4          6           0        0.176454    1.383870   -0.000075
      5          6           0       -1.110031    0.844894   -0.000185
      6          6           0       -1.286660   -0.539018    0.000252
      7          1           0       -0.315850   -2.474525    0.000015
      8          1           0        1.984957   -1.510960    0.000218
      9          1           0        2.301110    0.963694    0.000537
     10          1           0        0.316060    2.474652    0.000306
     11          1           0       -1.985358    1.510684   -0.000405
     12          1           0       -2.300948   -0.963691    0.000364
 ---------------------------------------------------------------------
 Rotational constants (GHZ):           5.6865650           5.6862640           2.8432074
 Leave Link  202 at Fri Oct 11 19:08:57 2019, MaxMem=   280000000 cpu:               0.7 elap:               0.1
 (Enter /home/soft/g16/l301.exe)
 Standard basis: 6-31+G(d,p) (6D, 7F)
 Ernie: Thresh=  0.10000D-02 Tol=  0.10000D-05 Strict=F.
 There are   144 symmetry adapted cartesian basis functions of A   symmetry.
 There are   144 symmetry adapted basis functions of A   symmetry.
   144 basis functions,   234 primitive gaussians,   144 cartesian basis functions
    21 alpha electrons       21 beta electrons
       nuclear repulsion energy       203.0307491037 Hartrees.
 IExCor=  402 DFT=T Ex+Corr=B3LYP ExCW=0 ScaHFX=  0.200000
 ScaDFX=  0.800000  0.720000  1.000000  0.810000 ScalE2=  1.000000  1.000000
 IRadAn=      5 IRanWt=     -1 IRanGd=            0 ICorTp=0 IEmpDi=  4
 NAtoms=   12 NActive=   12 NUniq=   12 SFac= 1.00D+00 NAtFMM=   60 NAOKFM=F Big=F
 Integral buffers will be    131072 words long.
 Raffenetti 2 integral format.
 Two-electron integral symmetry is turned on.
 Leave Link  301 at Fri Oct 11 19:08:57 2019, MaxMem=   280000000 cpu:               1.8 elap:               0.1
 (Enter /home/soft/g16/l302.exe)
 NPDir=0 NMtPBC=     1 NCelOv=     1 NCel=       1 NClECP=     1 NCelD=      1
         NCelK=      1 NCelE2=     1 NClLst=     1 CellRange=     0.0.
 One-electron integrals computed using PRISM.
 One-electron integral symmetry used in STVInt
 NBasis=   144 RedAO= T EigKep=  6.37D-06  NBF=   144
 NBsUse=   144 1.00D-06 EigRej= -1.00D+00 NBFU=   144
 Precomputing XC quadrature grid using
 IXCGrd= 4 IRadAn=           5 IRanWt=          -1 IRanGd=           0 AccXCQ= 0.00D+00.
 Generated NRdTot=       0 NPtTot=           0 NUsed=           0 NTot=          32
 NSgBfM=   144   144   144   144   144 MxSgAt=    12 MxSgA2=    12.
 Leave Link  302 at Fri Oct 11 19:08:58 2019, MaxMem=   280000000 cpu:               5.2 elap:               0.3
 (Enter /home/soft/g16/l303.exe)
 DipDrv:  MaxL=1.
 Leave Link  303 at Fri Oct 11 19:08:58 2019, MaxMem=   280000000 cpu:               0.9 elap:               0.1
 (Enter /home/soft/g16/l401.exe)
 ExpMin= 4.38D-02 ExpMax= 3.05D+03 ExpMxC= 4.57D+02 IAcc=3 IRadAn=         5 AccDes= 0.00D+00
 Harris functional with IExCor=  402 and IRadAn=       5 diagonalized for initial guess.
 HarFok:  IExCor=  402 AccDes= 0.00D+00 IRadAn=         5 IDoV= 1 UseB2=F ITyADJ=14
 ICtDFT=  3500011 ScaDFX=  1.000000  1.000000  1.000000  1.000000
 FoFCou: FMM=F IPFlag=           0 FMFlag=      100000 FMFlg1=           0
         NFxFlg=           0 DoJE=T BraDBF=F KetDBF=T FulRan=T
         wScrn=  0.000000 ICntrl=       500 IOpCl=  0 I1Cent=   200000004 NGrid=           0
         NMat0=    1 NMatS0=      1 NMatT0=    0 NMatD0=    1 NMtDS0=    0 NMtDT0=    0
 Petite list used in FoFCou.
 Harris En= -232.288898720054    
 JPrj=0 DoOrth=F DoCkMO=F.
 Leave Link  401 at Fri Oct 11 19:08:58 2019, MaxMem=   280000000 cpu:               7.9 elap:               0.4
 (Enter /home/soft/g16/l502.exe)
 Keep R1 ints in memory in canonical form, NReq=77803324.
 FoFCou: FMM=F IPFlag=           0 FMFlag=           0 FMFlg1=           0
         NFxFlg=           0 DoJE=F BraDBF=F KetDBF=F FulRan=T
         wScrn=  0.000000 ICntrl=       600 IOpCl=  0 I1Cent=           0 NGrid=           0
         NMat0=    1 NMatS0=  10440 NMatT0=    0 NMatD0=    1 NMtDS0=    0 NMtDT0=    0
 Symmetry not used in FoFCou.
 Two-electron integral symmetry not used.
 Closed shell SCF:
 Using DIIS extrapolation, IDIIS=  1040.
 NGot=   280000000 LenX=   225451476 LenY=   225430299
 Requested convergence on RMS density matrix=1.00D-08 within 128 cycles.
 Requested convergence on MAX density matrix=1.00D-06.
 Requested convergence on             energy=1.00D-06.
 No special actions if energy rises.

 Cycle   1  Pass 1  IDiag  1:
 E= -232.112252117008    
 DIIS: error= 3.13D-02 at cycle   1 NSaved=   1.
 NSaved= 1 IEnMin= 1 EnMin= -232.112252117008     IErMin= 1 ErrMin= 3.13D-02
 ErrMax= 3.13D-02  0.00D+00 EMaxC= 1.00D-01 BMatC= 1.33D-01 BMatP= 1.33D-01
 IDIUse=3 WtCom= 6.87D-01 WtEn= 3.13D-01
 Coeff-Com:  0.100D+01
 Coeff-En:   0.100D+01
 Coeff:      0.100D+01
 Gap=     0.245 Goal=   None    Shift=    0.000
 GapD=    0.245 DampG=1.000 DampE=0.500 DampFc=0.5000 IDamp=-1.
 Damping current iteration by 5.00D-01
 RMSDP=9.55D-03 MaxDP=1.02D-01              OVMax= 1.85D-01

 Cycle   2  Pass 1  IDiag  1:
 E= -232.177938935180     Delta-E=       -0.065686818171 Rises=F Damp=T
 DIIS: error= 8.78D-03 at cycle   2 NSaved=   2.
 NSaved= 2 IEnMin= 2 EnMin= -232.177938935180     IErMin= 2 ErrMin= 8.78D-03
 ErrMax= 8.78D-03  0.00D+00 EMaxC= 1.00D-01 BMatC= 8.14D-03 BMatP= 1.33D-01
 IDIUse=3 WtCom= 9.12D-01 WtEn= 8.78D-02
 Coeff-Com:  0.646D-01 0.935D+00
 Coeff-En:   0.137D+00 0.863D+00
 Coeff:      0.709D-01 0.929D+00
 Gap=     0.269 Goal=   None    Shift=    0.000
 RMSDP=3.53D-03 MaxDP=9.60D-02 DE=-6.57D-02 OVMax= 1.06D-01

 Cycle   3  Pass 1  IDiag  1:
 E= -232.266263264280     Delta-E=       -0.088324329101 Rises=F Damp=F
 DIIS: error= 4.34D-03 at cycle   3 NSaved=   3.
 NSaved= 3 IEnMin= 3 EnMin= -232.266263264280     IErMin= 3 ErrMin= 4.34D-03
 ErrMax= 4.34D-03  0.00D+00 EMaxC= 1.00D-01 BMatC= 1.48D-03 BMatP= 8.14D-03
 IDIUse=3 WtCom= 9.57D-01 WtEn= 4.34D-02
 Coeff-Com: -0.365D-01 0.252D+00 0.784D+00
 Coeff-En:   0.000D+00 0.000D+00 0.100D+01
 Coeff:     -0.349D-01 0.241D+00 0.794D+00
 Gap=     0.243 Goal=   None    Shift=    0.000
 RMSDP=1.37D-03 MaxDP=3.16D-02 DE=-8.83D-02 OVMax= 9.11D-03

 Cycle   4  Pass 1  IDiag  1:
 E= -232.267645127175     Delta-E=       -0.001381862895 Rises=F Damp=F
 DIIS: error= 4.74D-04 at cycle   4 NSaved=   4.
 NSaved= 4 IEnMin= 4 EnMin= -232.267645127175     IErMin= 4 ErrMin= 4.74D-04
 ErrMax= 4.74D-04  0.00D+00 EMaxC= 1.00D-01 BMatC= 3.50D-05 BMatP= 1.48D-03
 IDIUse=3 WtCom= 9.95D-01 WtEn= 4.74D-03
 Coeff-Com: -0.128D-01 0.241D-01 0.174D+00 0.815D+00
 Coeff-En:   0.000D+00 0.000D+00 0.000D+00 0.100D+01
 Coeff:     -0.127D-01 0.240D-01 0.173D+00 0.816D+00
 Gap=     0.243 Goal=   None    Shift=    0.000
 RMSDP=2.33D-04 MaxDP=5.32D-03 DE=-1.38D-03 OVMax= 1.20D-03

 Cycle   5  Pass 1  IDiag  1:
 E= -232.267678942820     Delta-E=       -0.000033815644 Rises=F Damp=F
 DIIS: error= 1.68D-05 at cycle   5 NSaved=   5.
 NSaved= 5 IEnMin= 5 EnMin= -232.267678942820     IErMin= 5 ErrMin= 1.68D-05
 ErrMax= 1.68D-05  0.00D+00 EMaxC= 1.00D-01 BMatC= 6.96D-08 BMatP= 3.50D-05
 IDIUse=1 WtCom= 1.00D+00 WtEn= 0.00D+00
 Coeff-Com: -0.853D-03 0.433D-03 0.786D-02 0.659D-01 0.927D+00
 Coeff:     -0.853D-03 0.433D-03 0.786D-02 0.659D-01 0.927D+00
 Gap=     0.243 Goal=   None    Shift=    0.000
 RMSDP=1.70D-05 MaxDP=4.39D-04 DE=-3.38D-05 OVMax= 1.72D-04

 Cycle   6  Pass 1  IDiag  1:
 E= -232.267678948724     Delta-E=       -0.000000005904 Rises=F Damp=F
 DIIS: error= 2.47D-05 at cycle   6 NSaved=   6.
 NSaved= 6 IEnMin= 6 EnMin= -232.267678948724     IErMin= 5 ErrMin= 1.68D-05
 ErrMax= 2.47D-05  0.00D+00 EMaxC= 1.00D-01 BMatC= 5.18D-08 BMatP= 6.96D-08
 IDIUse=1 WtCom= 1.00D+00 WtEn= 0.00D+00
 Coeff-Com: -0.339D-03-0.455D-04 0.214D-02 0.279D-01 0.535D+00 0.435D+00
 Coeff:     -0.339D-03-0.455D-04 0.214D-02 0.279D-01 0.535D+00 0.435D+00
 Gap=     0.243 Goal=   None    Shift=    0.000
 RMSDP=2.99D-06 MaxDP=5.63D-05 DE=-5.90D-09 OVMax= 1.35D-04

 Cycle   7  Pass 1  IDiag  1:
 E= -232.267679005047     Delta-E=       -0.000000056323 Rises=F Damp=F
 DIIS: error= 6.83D-06 at cycle   7 NSaved=   7.
 NSaved= 7 IEnMin= 7 EnMin= -232.267679005047     IErMin= 7 ErrMin= 6.83D-06
 ErrMax= 6.83D-06  0.00D+00 EMaxC= 1.00D-01 BMatC= 4.11D-09 BMatP= 5.18D-08
 IDIUse=1 WtCom= 1.00D+00 WtEn= 0.00D+00
 Coeff-Com:  0.315D-04-0.648D-04-0.894D-03-0.275D-02-0.225D-02 0.217D+00
 Coeff-Com:  0.789D+00
 Coeff:      0.315D-04-0.648D-04-0.894D-03-0.275D-02-0.225D-02 0.217D+00
 Coeff:      0.789D+00
 Gap=     0.243 Goal=   None    Shift=    0.000
 RMSDP=7.16D-07 MaxDP=1.12D-05 DE=-5.63D-08 OVMax= 3.00D-05

 Cycle   8  Pass 1  IDiag  1:
 E= -232.267679009876     Delta-E=       -0.000000004829 Rises=F Damp=F
 DIIS: error= 7.13D-07 at cycle   8 NSaved=   8.
 NSaved= 8 IEnMin= 8 EnMin= -232.267679009876     IErMin= 8 ErrMin= 7.13D-07
 ErrMax= 7.13D-07  0.00D+00 EMaxC= 1.00D-01 BMatC= 3.98D-11 BMatP= 4.11D-09
 IDIUse=1 WtCom= 1.00D+00 WtEn= 0.00D+00
 Coeff-Com:  0.147D-04-0.282D-04-0.421D-03-0.138D-02-0.353D-02 0.963D-01
 Coeff-Com:  0.359D+00 0.550D+00
 Coeff:      0.147D-04-0.282D-04-0.421D-03-0.138D-02-0.353D-02 0.963D-01
 Coeff:      0.359D+00 0.550D+00
 Gap=     0.243 Goal=   None    Shift=    0.000
 RMSDP=6.95D-08 MaxDP=1.37D-06 DE=-4.83D-09 OVMax= 2.75D-06

 Cycle   9  Pass 1  IDiag  1:
 E= -232.267679009904     Delta-E=       -0.000000000028 Rises=F Damp=F
 DIIS: error= 2.53D-07 at cycle   9 NSaved=   9.
 NSaved= 9 IEnMin= 9 EnMin= -232.267679009904     IErMin= 9 ErrMin= 2.53D-07
 ErrMax= 2.53D-07  0.00D+00 EMaxC= 1.00D-01 BMatC= 4.98D-12 BMatP= 3.98D-11
 IDIUse=1 WtCom= 1.00D+00 WtEn= 0.00D+00
 Coeff-Com: -0.244D-06 0.267D-06-0.178D-04-0.755D-04-0.847D-03 0.132D-02
 Coeff-Com:  0.798D-02 0.263D+00 0.728D+00
 Coeff:     -0.244D-06 0.267D-06-0.178D-04-0.755D-04-0.847D-03 0.132D-02
 Coeff:      0.798D-02 0.263D+00 0.728D+00
 Gap=     0.243 Goal=   None    Shift=    0.000
 RMSDP=2.45D-08 MaxDP=4.70D-07 DE=-2.80D-11 OVMax= 7.22D-07

 Cycle  10  Pass 1  IDiag  1:
 E= -232.267679009912     Delta-E=       -0.000000000008 Rises=F Damp=F
 DIIS: error= 4.22D-09 at cycle  10 NSaved=  10.
 NSaved=10 IEnMin=10 EnMin= -232.267679009912     IErMin=10 ErrMin= 4.22D-09
 ErrMax= 4.22D-09  0.00D+00 EMaxC= 1.00D-01 BMatC= 1.89D-15 BMatP= 4.98D-12
 IDIUse=1 WtCom= 1.00D+00 WtEn= 0.00D+00
 Coeff-Com: -0.960D-07 0.268D-06 0.267D-05 0.528D-05-0.306D-04-0.685D-03
 Coeff-Com: -0.240D-02 0.634D-02 0.275D-01 0.969D+00
 Coeff:     -0.960D-07 0.268D-06 0.267D-05 0.528D-05-0.306D-04-0.685D-03
 Coeff:     -0.240D-02 0.634D-02 0.275D-01 0.969D+00
 Gap=     0.243 Goal=   None    Shift=    0.000
 RMSDP=1.28D-09 MaxDP=1.80D-08 DE=-8.24D-12 OVMax= 2.54D-08

 SCF Done:  E(RB3LYP) =  -232.267679010     A.U. after   10 cycles
            NFock= 10  Conv=0.13D-08     -V/T= 2.0105
 KE= 2.298537311802D+02 PE=-9.429731363951D+02 EE= 2.778209771012D+02
 Leave Link  502 at Fri Oct 11 19:09:02 2019, MaxMem=   280000000 cpu:              59.6 elap:               3.3
 (Enter /home/soft/g16/l601.exe)
 Copying SCF densities to generalized density rwf, IOpCl= 0 IROHF=0.

 **********************************************************************

            Population analysis using the SCF density.

 **********************************************************************

 Orbital symmetries:
       Occupied  (A) (A) (A) (A) (A) (A) (A) (A) (A) (A) (A) (A)
                 (A) (A) (A) (A) (A) (A) (A) (A) (A)
       Virtual   (A) (A) (A) (A) (A) (A) (A) (A) (A) (A) (A) (A)
                 (A) (A) (A) (A) (A) (A) (A) (A) (A) (A) (A) (A)
                 (A) (A) (A) (A) (A) (A) (A) (A) (A) (A) (A) (A)
                 (A) (A) (A) (A) (A) (A) (A) (A) (A) (A) (A) (A)
                 (A) (A) (A) (A) (A) (A) (A) (A) (A) (A) (A) (A)
                 (A) (A) (A) (A) (A) (A) (A) (A) (A) (A) (A) (A)
                 (A) (A) (A) (A) (A) (A) (A) (A) (A) (A) (A) (A)
                 (A) (A) (A) (A) (A) (A) (A) (A) (A) (A) (A) (A)
                 (A) (A) (A) (A) (A) (A) (A) (A) (A) (A) (A) (A)
                 (A) (A) (A) (A) (A) (A) (A) (A) (A) (A) (A) (A)
                 (A) (A) (A)
 The electronic state is 1-A.
 Alpha  occ. eigenvalues --  -10.19976 -10.19949 -10.19948 -10.19892 -10.19891
 Alpha  occ. eigenvalues --  -10.19864  -0.85880  -0.75003  -0.75000  -0.60546
 Alpha  occ. eigenvalues --   -0.60542  -0.52499  -0.46203  -0.45017  -0.42446
 Alpha  occ. eigenvalues --   -0.42445  -0.37125  -0.34777  -0.34770  -0.25842
 Alpha  occ. eigenvalues --   -0.25838
 Alpha virt. eigenvalues --   -0.01501  -0.01496   0.00735   0.02513   0.02514
 Alpha virt. eigenvalues --    0.04514   0.04514   0.06624   0.07702   0.07828
 Alpha virt. eigenvalues --    0.09181   0.09181   0.09859   0.12568   0.14266
 Alpha virt. eigenvalues --    0.14266   0.14357   0.14357   0.15476   0.15476
 Alpha virt. eigenvalues --    0.19273   0.19532   0.19533   0.20555   0.21146
 Alpha virt. eigenvalues --    0.21146   0.23351   0.24078   0.24081   0.26580
 Alpha virt. eigenvalues --    0.27756   0.27759   0.32319   0.34754   0.34759
 Alpha virt. eigenvalues --    0.34946   0.34953   0.56572   0.56640   0.60488
 Alpha virt. eigenvalues --    0.62371   0.65805   0.71617   0.71618   0.71934
 Alpha virt. eigenvalues --    0.71942   0.74578   0.74579   0.76617   0.76622
 Alpha virt. eigenvalues --    0.79975   0.82619   0.87636   0.90670   0.90671
 Alpha virt. eigenvalues --    0.94332   0.94337   0.97672   1.01554   1.07045
 Alpha virt. eigenvalues --    1.07050   1.12424   1.12429   1.16883   1.16886
 Alpha virt. eigenvalues --    1.25025   1.29449   1.31278   1.39842   1.39842
 Alpha virt. eigenvalues --    1.41984   1.41990   1.42726   1.42730   1.73315
 Alpha virt. eigenvalues --    1.78904   1.83590   1.88251   1.92599   1.92603
 Alpha virt. eigenvalues --    1.98260   1.98266   2.00804   2.00812   2.03177
 Alpha virt. eigenvalues --    2.07840   2.07849   2.29026   2.29041   2.35105
 Alpha virt. eigenvalues --    2.36528   2.36542   2.39317   2.39523   2.39536
 Alpha virt. eigenvalues --    2.47386   2.47393   2.50594   2.50602   2.57715
 Alpha virt. eigenvalues --    2.57719   2.58713   2.62783   2.64932   2.74717
 Alpha virt. eigenvalues --    2.80444   2.80449   3.03454   3.03463   3.17841
 Alpha virt. eigenvalues --    3.22498   3.24663   3.24670   3.36301   3.49732
 Alpha virt. eigenvalues --    3.49735   3.93150   4.27615   4.28685   4.28689
 Alpha virt. eigenvalues --    4.48513   4.48515   4.84736
          Condensed to atoms (all electrons):
               1          2          3          4          5          6
     1  C    4.958228   0.475156  -0.001526  -0.087783  -0.001576   0.475495
     2  C    0.475156   4.958346   0.475468  -0.001610  -0.087802  -0.001566
     3  C   -0.001526   0.475468   4.958045   0.475346  -0.001541  -0.087777
     4  C   -0.087783  -0.001610   0.475346   4.958077   0.475577  -0.001524
     5  C   -0.001576  -0.087802  -0.001541   0.475577   4.958204   0.475129
     6  C    0.475495  -0.001566  -0.087777  -0.001524   0.475129   4.958248
     7  H    0.248821   0.026394   0.003018  -0.000343   0.003035   0.026430
     8  H    0.026401   0.248789   0.026450   0.003023  -0.000348   0.003031
     9  H    0.003030   0.026456   0.248859   0.026338   0.003029  -0.000349
    10  H   -0.000352   0.003049   0.026340   0.248906   0.026403   0.003020
    11  H    0.003032  -0.000346   0.003016   0.026427   0.248786   0.026437
    12  H    0.026424   0.003028  -0.000347   0.003025   0.026399   0.248827
               7          8          9         10         11         12
     1  C    0.248821   0.026401   0.003030  -0.000352   0.003032   0.026424
     2  C    0.026394   0.248789   0.026456   0.003049  -0.000346   0.003028
     3  C    0.003018   0.026450   0.248859   0.026340   0.003016  -0.000347
     4  C   -0.000343   0.003023   0.026338   0.248906   0.026427   0.003025
     5  C    0.003035  -0.000348   0.003029   0.026403   0.248786   0.026399
     6  C    0.026430   0.003031  -0.000349   0.003020   0.026437   0.248827
     7  H    0.579592  -0.006011  -0.000153   0.000014  -0.000153  -0.006008
     8  H   -0.006011   0.579607  -0.006008  -0.000153   0.000014  -0.000153
     9  H   -0.000153  -0.006008   0.579560  -0.006002  -0.000153   0.000014
    10  H    0.000014  -0.000153  -0.006002   0.579550  -0.006001  -0.000153
    11  H   -0.000153   0.000014  -0.000153  -0.006001   0.579579  -0.006010
    12  H   -0.006008  -0.000153   0.000014  -0.000153  -0.006010   0.579592
 Mulliken charges:
               1
     1  C   -0.125351
     2  C   -0.125362
     3  C   -0.125352
     4  C   -0.125458
     5  C   -0.125295
     6  C   -0.125402
     7  H    0.125365
     8  H    0.125359
     9  H    0.125378
    10  H    0.125380
    11  H    0.125374
    12  H    0.125364
 Sum of Mulliken charges =  -0.00000
 Mulliken charges with hydrogens summed into heavy atoms:
               1
     1  C    0.000014
     2  C   -0.000004
     3  C    0.000026
     4  C   -0.000078
     5  C    0.000079
     6  C   -0.000038
 Electronic spatial extent (au):  <R**2>=            461.5979
 Charge=             -0.0000 electrons
 Dipole moment (field-independent basis, Debye):
    X=             -0.0000    Y=             -0.0002    Z=              0.0008  Tot=              0.0008
 Quadrupole moment (field-independent basis, Debye-Ang):
   XX=            -32.3161   YY=            -32.3166   ZZ=            -40.3729
   XY=              0.0010   XZ=              0.0019   YZ=             -0.0001
 Traceless Quadrupole moment (field-independent basis, Debye-Ang):
   XX=              2.6857   YY=              2.6853   ZZ=             -5.3710
   XY=              0.0010   XZ=              0.0019   YZ=             -0.0001
 Octapole moment (field-independent basis, Debye-Ang**2):
  XXX=             -0.0046  YYY=             -0.0036  ZZZ=              0.0014  XYY=              0.0048
  XXY=              0.0019  XXZ=              0.0042  XZZ=             -0.0003  YZZ=             -0.0014
  YYZ=              0.0032  XYZ=              0.0016
 Hexadecapole moment (field-independent basis, Debye-Ang**3):
 XXXX=           -281.4455 YYYY=           -281.4336 ZZZZ=            -52.0185 XXXY=              0.0042
 XXXZ=              0.0108 YYYX=              0.0067 YYYZ=              0.0030 ZZZX=              0.0030
 ZZZY=             -0.0001 XXYY=            -93.8149 XXZZ=            -66.5103 YYZZ=            -66.5086
 XXYZ=             -0.0035 YYXZ=              0.0054 ZZXY=             -0.0000
 N-N= 2.030307491037D+02 E-N=-9.429731366344D+02  KE= 2.298537311802D+02
 No NMR shielding tensors so no spin-rotation constants.
 Leave Link  601 at Fri Oct 11 19:09:02 2019, MaxMem=   280000000 cpu:               3.2 elap:               0.2
 (Enter /home/soft/g16/l701.exe)
 ... and contract with generalized density number  0.
 Compute integral first derivatives.
 Leave Link  701 at Fri Oct 11 19:09:02 2019, MaxMem=   280000000 cpu:               4.5 elap:               0.3
 (Enter /home/soft/g16/l702.exe)
 L702 exits ... SP integral derivatives will be done elsewhere.
 Leave Link  702 at Fri Oct 11 19:09:02 2019, MaxMem=   280000000 cpu:               0.4 elap:               0.0
 (Enter /home/soft/g16/l703.exe)
 Integral derivatives from FoFJK, PRISM(SPDF).
 Compute integral first derivatives, UseDBF=F ICtDFT=           0.
 Calling FoFJK, ICntrl=      2127 FMM=F ISym2X=0 I1Cent= 0 IOpClX= 0 NMat=1 NMatS=1 NMatT=0.
 FoFJK:  IHMeth= 1 ICntrl=    2127 DoSepK=F KAlg= 0 I1Cent=           0 FoldK=F
 IRaf=         0 NMat=       1 IRICut=       1 DoRegI=T DoRafI=F ISym2E= 0 IDoP0=0 IntGTp=1.
 FoFCou: FMM=F IPFlag=           0 FMFlag=      100000 FMFlg1=         800
         NFxFlg=           0 DoJE=F BraDBF=F KetDBF=F FulRan=T
         wScrn=  0.000000 ICntrl=      2127 IOpCl=  0 I1Cent=           0 NGrid=           0
         NMat0=    1 NMatS0=      1 NMatT0=    0 NMatD0=    1 NMtDS0=    0 NMtDT0=    0
 Symmetry not used in FoFCou.
 Leave Link  703 at Fri Oct 11 19:09:03 2019, MaxMem=   280000000 cpu:              16.6 elap:               0.7
 (Enter /home/soft/g16/l716.exe)
 Dipole        =-4.53831351D-06-8.42245893D-05 3.16212362D-04
 ***** Axes restored to original set *****
 -------------------------------------------------------------------
 Center     Atomic                   Forces (Hartrees/Bohr)
 Number     Number              X              Y              Z
 -------------------------------------------------------------------
      1        6          -0.005681862   -0.010056516   -0.000014349
      2        6           0.005647300   -0.010209927    0.000123148
      3        6           0.011516088    0.000387631   -0.000049111
      4        6           0.006040957    0.009781973    0.000032170
      5        6          -0.005934178    0.010059525    0.000011311
      6        6          -0.011559243    0.000110478   -0.000056644
      7        1           0.004290763    0.007428650    0.000001480
      8        1          -0.004280525    0.007458981   -0.000046073
      9        1          -0.008625123   -0.000004853   -0.000006869
     10        1          -0.004342825   -0.007452536   -0.000016789
     11        1           0.004354735   -0.007495359    0.000014973
     12        1           0.008573914   -0.000008048    0.000006754
 -------------------------------------------------------------------
 Cartesian Forces:  Max     0.011559243 RMS     0.005891539
 Leave Link  716 at Fri Oct 11 19:09:03 2019, MaxMem=   280000000 cpu:               1.0 elap:               0.1
 (Enter /home/soft/g16/l103.exe)

 GradGradGradGradGradGradGradGradGradGradGradGradGradGradGradGradGradGrad
 Berny optimization.
 FormGI is forming the generalized inverse of G from B-inverse, IUseBI=4.
 Internal  Forces:  Max     0.008668554 RMS     0.003036440
 Search for a local minimum.
 Step number   1 out of a maximum of   64
 All quantities printed in internal units (Hartrees-Bohrs-Radians)
 RMS Force = .30364D-02 SwitMx=.10000D-02 MixMth= 1
 Mixed Optimization -- RFO/linear search
 Second derivative matrix not updated -- first step.
 ITU=  0
     Eigenvalues ---    0.02152   0.02153   0.02154   0.02155   0.02155
     Eigenvalues ---    0.02155   0.02155   0.02156   0.02157   0.16000
     Eigenvalues ---    0.16000   0.16000   0.16000   0.16000   0.16000
     Eigenvalues ---    0.22000   0.22000   0.22000   0.33709   0.33718
     Eigenvalues ---    0.33718   0.33720   0.33725   0.33726   0.42106
     Eigenvalues ---    0.42123   0.46412   0.46453   0.46466   0.46497
 RFO step:  Lambda=-1.42783285D-03 EMin= 2.15189824D-02
 Linear search not attempted -- first point.
 Iteration  1 RMS(Cart)=  0.00670777 RMS(Int)=  0.00000252
 Iteration  2 RMS(Cart)=  0.00000203 RMS(Int)=  0.00000011
 Iteration  3 RMS(Cart)=  0.00000000 RMS(Int)=  0.00000011
 ITry= 1 IFail=0 DXMaxC= 1.92D-02 DCOld= 1.00D+10 DXMaxT= 3.00D-01 DXLimC= 3.00D+00 Rises=F
 Variable       Old X    -DE/DX   Delta X   Delta X   Delta X     New X
                                 (Linear)    (Quad)   (Total)
    R1        2.63647   0.00291   0.00000   0.00627   0.00627   2.64274
    R2        2.63584   0.00305   0.00000   0.00656   0.00656   2.64240
    R3        2.07796  -0.00858   0.00000  -0.02533  -0.02533   2.05263
    R4        2.63562   0.00314   0.00000   0.00673   0.00673   2.64235
    R5        2.07805  -0.00860   0.00000  -0.02540  -0.02540   2.05265
    R6        2.63697   0.00271   0.00000   0.00581   0.00581   2.64278
    R7        2.07809  -0.00863   0.00000  -0.02547  -0.02547   2.05262
    R8        2.63584   0.00304   0.00000   0.00651   0.00651   2.64235
    R9        2.07809  -0.00863   0.00000  -0.02547  -0.02547   2.05262
   R10        2.63643   0.00293   0.00000   0.00630   0.00630   2.64273
   R11        2.07825  -0.00867   0.00000  -0.02561  -0.02561   2.05264
   R12        2.07795  -0.00857   0.00000  -0.02532  -0.02532   2.05264
    A1        2.09437  -0.00001   0.00000  -0.00000  -0.00000   2.09436
    A2        2.09435   0.00000   0.00000  -0.00001  -0.00001   2.09434
    A3        2.09447   0.00001   0.00000   0.00001   0.00001   2.09448
    A4        2.09455  -0.00003   0.00000  -0.00011  -0.00011   2.09443
    A5        2.09406   0.00003   0.00000   0.00018   0.00018   2.09424
    A6        2.09458  -0.00001   0.00000  -0.00007  -0.00007   2.09451
    A7        2.09429   0.00003   0.00000   0.00010   0.00010   2.09439
    A8        2.09462  -0.00002   0.00000  -0.00008  -0.00008   2.09454
    A9        2.09427  -0.00001   0.00000  -0.00002  -0.00002   2.09425
   A10        2.09429   0.00003   0.00000   0.00007   0.00007   2.09436
   A11        2.09407   0.00002   0.00000   0.00016   0.00016   2.09423
   A12        2.09483  -0.00005   0.00000  -0.00024  -0.00024   2.09459
   A13        2.09448  -0.00000   0.00000  -0.00004  -0.00004   2.09444
   A14        2.09459  -0.00002   0.00000  -0.00012  -0.00012   2.09447
   A15        2.09411   0.00003   0.00000   0.00016   0.00016   2.09428
   A16        2.09440  -0.00001   0.00000  -0.00001  -0.00001   2.09439
   A17        2.09453  -0.00000   0.00000  -0.00004  -0.00004   2.09450
   A18        2.09426   0.00001   0.00000   0.00004   0.00004   2.09430
    D1        0.00056  -0.00002   0.00000  -0.00068  -0.00068  -0.00011
    D2        3.14078   0.00002   0.00000   0.00086   0.00086  -3.14155
    D3       -3.14112  -0.00001   0.00000  -0.00065  -0.00065   3.14141
    D4       -0.00091   0.00002   0.00000   0.00089   0.00089  -0.00002
    D5        0.00026  -0.00001   0.00000  -0.00036  -0.00036  -0.00010
    D6        3.14140   0.00001   0.00000   0.00025   0.00025  -3.14153
    D7       -3.14124  -0.00001   0.00000  -0.00038  -0.00038   3.14156
    D8       -0.00010   0.00001   0.00000   0.00023   0.00023   0.00013
    D9       -0.00099   0.00003   0.00000   0.00121   0.00121   0.00022
   D10        3.14093   0.00002   0.00000   0.00081   0.00081  -3.14145
   D11       -3.14120  -0.00001   0.00000  -0.00032  -0.00032  -3.14153
   D12        0.00072  -0.00002   0.00000  -0.00073  -0.00073  -0.00002
   D13        0.00060  -0.00002   0.00000  -0.00072  -0.00072  -0.00012
   D14       -3.14153  -0.00000   0.00000  -0.00018  -0.00018   3.14148
   D15       -3.14132  -0.00001   0.00000  -0.00031  -0.00031   3.14156
   D16       -0.00026   0.00001   0.00000   0.00023   0.00023  -0.00003
   D17        0.00023  -0.00001   0.00000  -0.00032  -0.00032  -0.00009
   D18       -3.14158   0.00000   0.00000   0.00010   0.00010  -3.14148
   D19       -3.14083  -0.00002   0.00000  -0.00086  -0.00086   3.14150
   D20        0.00054  -0.00001   0.00000  -0.00043  -0.00043   0.00011
   D21       -0.00066   0.00002   0.00000   0.00086   0.00086   0.00020
   D22        3.14138   0.00001   0.00000   0.00024   0.00024  -3.14156
   D23        3.14116   0.00001   0.00000   0.00043   0.00043   3.14159
   D24        0.00001  -0.00000   0.00000  -0.00018  -0.00018  -0.00017
         Item               Value     Threshold  Converged?
 Maximum Force            0.008669     0.000450     NO 
 RMS     Force            0.003036     0.000300     NO 
 Maximum Displacement     0.019237     0.001800     NO 
 RMS     Displacement     0.006708     0.001200     NO 
 Predicted change in Energy=-7.168669D-04
 Lowest energy point so far.  Saving SCF results.
 GradGradGradGradGradGradGradGradGradGradGradGradGradGradGradGradGradGrad

 Leave Link  103 at Fri Oct 11 19:09:03 2019, MaxMem=   280000000 cpu:               7.7 elap:               0.4
 (Enter /home/soft/g16/l202.exe)
                          Input orientation:                          
 ---------------------------------------------------------------------
 Center     Atomic      Atomic             Coordinates (Angstroms)
 Number     Number       Type             X           Y           Z
 ---------------------------------------------------------------------
      1          6           0       -2.999101   -0.700649    0.000073
      2          6           0       -1.600625   -0.700679    0.000589
      3          6           0       -0.901418    0.510220   -0.000096
      4          6           0       -1.600604    1.721393   -0.001027
      5          6           0       -2.998876    1.721421   -0.001418
      6          6           0       -3.698186    0.510351   -0.000990
      7          1           0       -3.542171   -1.641350    0.000437
      8          1           0       -1.057683   -1.641466    0.001373
      9          1           0        0.184782    0.510315    0.000173
     10          1           0       -1.057299    2.661952   -0.001450
     11          1           0       -3.542036    2.662074   -0.002246
     12          1           0       -4.784394    0.510521   -0.001328
 ---------------------------------------------------------------------
                    Distance matrix (angstroms):
                    1          2          3          4          5
     1  C    0.000000
     2  C    1.398476   0.000000
     3  C    2.422081   1.398273   0.000000
     4  C    2.796799   2.422073   1.398500   0.000000
     5  C    2.422070   2.796726   2.422052   1.398272   0.000000
     6  C    1.398299   2.422057   2.796768   2.422080   1.398472
     7  H    1.086206   2.157420   3.406292   3.883005   3.406376
     8  H    2.157369   1.086216   2.157353   3.406404   3.882942
     9  H    3.406398   2.157357   1.086201   2.157386   3.406238
    10  H    3.882999   3.406244   2.157371   1.086200   2.157387
    11  H    3.406272   3.882936   3.406368   2.157322   1.086210
    12  H    2.157361   3.406375   3.882975   3.406278   2.157395
                    6          7          8          9         10
     6  C    0.000000
     7  H    2.157350   0.000000
     8  H    3.406255   2.484488   0.000000
     9  H    3.882968   4.303469   2.484730   0.000000
    10  H    3.406416   4.969205   4.303418   2.484413   0.000000
    11  H    2.157382   4.303425   4.969152   4.303399   2.484737
    12  H    1.086208   2.484687   4.303420   4.969176   4.303474
                   11         12
    11  H    0.000000
    12  H    2.484479   0.000000
 Stoichiometry    C6H6
 Framework group  C1[X(C6H6)]
 Deg. of freedom    30
 Full point group                 C1      NOp   1
 RotChk:  IX=1 Diff= 1.55D+00
 Largest Abelian subgroup         C1      NOp   1
 Largest concise Abelian subgroup C1      NOp   1
                         Standard orientation:                         
 ---------------------------------------------------------------------
 Center     Atomic      Atomic             Coordinates (Angstroms)
 Number     Number       Type             X           Y           Z
 ---------------------------------------------------------------------
      1          6           0       -1.343366   -0.388444    0.000003
      2          6           0       -0.335167   -1.357603    0.000071
      3          6           0        1.008068   -0.969161   -0.000061
      4          6           0        1.343334    0.388557    0.000008
      5          6           0        0.335279    1.357573    0.000064
      6          6           0       -1.008148    0.969080   -0.000060
      7          1           0       -2.386789   -0.690289   -0.000063
      8          1           0       -0.595698   -2.412112    0.000079
      9          1           0        1.791222   -1.721825   -0.000140
     10          1           0        2.386827    0.690137    0.000013
     11          1           0        0.595561    2.412137    0.000012
     12          1           0       -1.791123    1.721940   -0.000051
 ---------------------------------------------------------------------
 Rotational constants (GHZ):           5.6745722           5.6744208           2.8372483
 Leave Link  202 at Fri Oct 11 19:09:03 2019, MaxMem=   280000000 cpu:               0.5 elap:               0.0
 (Enter /home/soft/g16/l301.exe)
 Standard basis: 6-31+G(d,p) (6D, 7F)
 Ernie: Thresh=  0.10000D-02 Tol=  0.10000D-05 Strict=F.
 There are   144 symmetry adapted cartesian basis functions of A   symmetry.
 There are   144 symmetry adapted basis functions of A   symmetry.
   144 basis functions,   234 primitive gaussians,   144 cartesian basis functions
    21 alpha electrons       21 beta electrons
       nuclear repulsion energy       202.9914701585 Hartrees.
 IExCor=  402 DFT=T Ex+Corr=B3LYP ExCW=0 ScaHFX=  0.200000
 ScaDFX=  0.800000  0.720000  1.000000  0.810000 ScalE2=  1.000000  1.000000
 IRadAn=      5 IRanWt=     -1 IRanGd=            0 ICorTp=0 IEmpDi=  4
 NAtoms=   12 NActive=   12 NUniq=   12 SFac= 1.00D+00 NAtFMM=   60 NAOKFM=F Big=F
 Integral buffers will be    131072 words long.
 Raffenetti 2 integral format.
 Two-electron integral symmetry is turned on.
 Leave Link  301 at Fri Oct 11 19:09:03 2019, MaxMem=   280000000 cpu:               1.4 elap:               0.1
 (Enter /home/soft/g16/l302.exe)
 NPDir=0 NMtPBC=     1 NCelOv=     1 NCel=       1 NClECP=     1 NCelD=      1
         NCelK=      1 NCelE2=     1 NClLst=     1 CellRange=     0.0.
 One-electron integrals computed using PRISM.
 One-electron integral symmetry used in STVInt
 NBasis=   144 RedAO= T EigKep=  6.51D-06  NBF=   144
 NBsUse=   144 1.00D-06 EigRej= -1.00D+00 NBFU=   144
 Precomputing XC quadrature grid using
 IXCGrd= 4 IRadAn=           5 IRanWt=          -1 IRanGd=           0 AccXCQ= 0.00D+00.
 Generated NRdTot=       0 NPtTot=           0 NUsed=           0 NTot=          32
 NSgBfM=   144   144   144   144   144 MxSgAt=    12 MxSgA2=    12.
 Leave Link  302 at Fri Oct 11 19:09:04 2019, MaxMem=   280000000 cpu:               3.0 elap:               0.1
 (Enter /home/soft/g16/l303.exe)
 DipDrv:  MaxL=1.
 Leave Link  303 at Fri Oct 11 19:09:04 2019, MaxMem=   280000000 cpu:               0.5 elap:               0.0
 (Enter /home/soft/g16/l401.exe)
 Initial guess from the checkpoint file:  "benzene.chk"
 B after Tr=    -0.000000    0.000000   -0.000000
         Rot=    0.835825    0.000000    0.000000    0.548995 Ang=  66.60 deg.
 Guess basis will be translated and rotated to current coordinates.
 JPrj=2 DoOrth=T DoCkMO=T.
 Leave Link  401 at Fri Oct 11 19:09:04 2019, MaxMem=   280000000 cpu:               6.0 elap:               0.3
 (Enter /home/soft/g16/l502.exe)
 Keep R1 ints in memory in canonical form, NReq=77803324.
 FoFCou: FMM=F IPFlag=           0 FMFlag=           0 FMFlg1=           0
         NFxFlg=           0 DoJE=F BraDBF=F KetDBF=F FulRan=T
         wScrn=  0.000000 ICntrl=       600 IOpCl=  0 I1Cent=           0 NGrid=           0
         NMat0=    1 NMatS0=  10440 NMatT0=    0 NMatD0=    1 NMtDS0=    0 NMtDT0=    0
 Symmetry not used in FoFCou.
 Two-electron integral symmetry not used.
 Closed shell SCF:
 Using DIIS extrapolation, IDIIS=  1040.
 NGot=   280000000 LenX=   225451476 LenY=   225430299
 Requested convergence on RMS density matrix=1.00D-08 within 128 cycles.
 Requested convergence on MAX density matrix=1.00D-06.
 Requested convergence on             energy=1.00D-06.
 No special actions if energy rises.

 Cycle   1  Pass 1  IDiag  1:
 E= -232.268228163853    
 DIIS: error= 1.28D-03 at cycle   1 NSaved=   1.
 NSaved= 1 IEnMin= 1 EnMin= -232.268228163853     IErMin= 1 ErrMin= 1.28D-03
 ErrMax= 1.28D-03  0.00D+00 EMaxC= 1.00D-01 BMatC= 1.17D-04 BMatP= 1.17D-04
 IDIUse=3 WtCom= 9.87D-01 WtEn= 1.28D-02
 Coeff-Com:  0.100D+01
 Coeff-En:   0.100D+01
 Coeff:      0.100D+01
 Gap=     0.529 Goal=   None    Shift=    0.000
 GapD=    0.529 DampG=2.000 DampE=1.000 DampFc=2.0000 IDamp=-1.
 RMSDP=7.52D-04 MaxDP=1.75D-02              OVMax= 3.78D-03

 Cycle   2  Pass 1  IDiag  1:
 E= -232.268386736644     Delta-E=       -0.000158572790 Rises=F Damp=F
 DIIS: error= 2.23D-04 at cycle   2 NSaved=   2.
 NSaved= 2 IEnMin= 2 EnMin= -232.268386736644     IErMin= 2 ErrMin= 2.23D-04
 ErrMax= 2.23D-04  0.00D+00 EMaxC= 1.00D-01 BMatC= 6.26D-06 BMatP= 1.17D-04
 IDIUse=3 WtCom= 9.98D-01 WtEn= 2.23D-03
 Coeff-Com:  0.117D+00 0.883D+00
 Coeff-En:   0.000D+00 0.100D+01
 Coeff:      0.117D+00 0.883D+00
 Gap=     0.242 Goal=   None    Shift=    0.000
 RMSDP=9.35D-05 MaxDP=2.04D-03 DE=-1.59D-04 OVMax= 5.47D-04

 Cycle   3  Pass 1  IDiag  1:
 E= -232.268392262094     Delta-E=       -0.000005525451 Rises=F Damp=F
 DIIS: error= 5.93D-05 at cycle   3 NSaved=   3.
 NSaved= 3 IEnMin= 3 EnMin= -232.268392262094     IErMin= 3 ErrMin= 5.93D-05
 ErrMax= 5.93D-05  0.00D+00 EMaxC= 1.00D-01 BMatC= 4.48D-07 BMatP= 6.26D-06
 IDIUse=1 WtCom= 1.00D+00 WtEn= 0.00D+00
 Coeff-Com: -0.312D-02 0.190D+00 0.813D+00
 Coeff:     -0.312D-02 0.190D+00 0.813D+00
 Gap=     0.242 Goal=   None    Shift=    0.000
 RMSDP=3.09D-05 MaxDP=7.35D-04 DE=-5.53D-06 OVMax= 1.48D-04

 Cycle   4  Pass 1  IDiag  1:
 E= -232.268392669046     Delta-E=       -0.000000406952 Rises=F Damp=F
 DIIS: error= 2.22D-05 at cycle   4 NSaved=   4.
 NSaved= 4 IEnMin= 4 EnMin= -232.268392669046     IErMin= 4 ErrMin= 2.22D-05
 ErrMax= 2.22D-05  0.00D+00 EMaxC= 1.00D-01 BMatC= 2.60D-08 BMatP= 4.48D-07
 IDIUse=1 WtCom= 1.00D+00 WtEn= 0.00D+00
 Coeff-Com: -0.270D-02 0.398D-01 0.242D+00 0.721D+00
 Coeff:     -0.270D-02 0.398D-01 0.242D+00 0.721D+00
 Gap=     0.242 Goal=   None    Shift=    0.000
 RMSDP=3.84D-06 MaxDP=8.93D-05 DE=-4.07D-07 OVMax= 1.51D-04

 Cycle   5  Pass 1  IDiag  1:
 E= -232.268392665759     Delta-E=        0.000000003287 Rises=F Damp=F
 DIIS: error= 2.49D-05 at cycle   5 NSaved=   5.
 NSaved= 5 IEnMin= 4 EnMin= -232.268392669046     IErMin= 4 ErrMin= 2.22D-05
 ErrMax= 2.49D-05  0.00D+00 EMaxC= 1.00D-01 BMatC= 2.82D-08 BMatP= 2.60D-08
 IDIUse=1 WtCom= 1.00D+00 WtEn= 0.00D+00
 Coeff-Com: -0.142D-02-0.120D-02 0.478D-01 0.515D+00 0.440D+00
 Coeff:     -0.142D-02-0.120D-02 0.478D-01 0.515D+00 0.440D+00
 Gap=     0.242 Goal=   None    Shift=    0.000
 RMSDP=1.80D-06 MaxDP=3.96D-05 DE= 3.29D-09 OVMax= 7.94D-05

 Cycle   6  Pass 1  IDiag  1:
 E= -232.268392699008     Delta-E=       -0.000000033249 Rises=F Damp=F
 DIIS: error= 1.01D-06 at cycle   6 NSaved=   6.
 NSaved= 6 IEnMin= 6 EnMin= -232.268392699008     IErMin= 6 ErrMin= 1.01D-06
 ErrMax= 1.01D-06  0.00D+00 EMaxC= 1.00D-01 BMatC= 8.45D-11 BMatP= 2.60D-08
 IDIUse=1 WtCom= 1.00D+00 WtEn= 0.00D+00
 Coeff-Com: -0.517D-03-0.104D-02 0.161D-01 0.193D+00 0.172D+00 0.620D+00
 Coeff:     -0.517D-03-0.104D-02 0.161D-01 0.193D+00 0.172D+00 0.620D+00
 Gap=     0.242 Goal=   None    Shift=    0.000
 RMSDP=1.27D-07 MaxDP=3.24D-06 DE=-3.32D-08 OVMax= 4.32D-06

 Cycle   7  Pass 1  IDiag  1:
 E= -232.268392699074     Delta-E=       -0.000000000066 Rises=F Damp=F
 DIIS: error= 5.70D-07 at cycle   7 NSaved=   7.
 NSaved= 7 IEnMin= 7 EnMin= -232.268392699074     IErMin= 7 ErrMin= 5.70D-07
 ErrMax= 5.70D-07  0.00D+00 EMaxC= 1.00D-01 BMatC= 2.36D-11 BMatP= 8.45D-11
 IDIUse=1 WtCom= 1.00D+00 WtEn= 0.00D+00
 Coeff-Com:  0.222D-04-0.347D-03-0.139D-02-0.517D-02-0.608D-03 0.350D+00
 Coeff-Com:  0.658D+00
 Coeff:      0.222D-04-0.347D-03-0.139D-02-0.517D-02-0.608D-03 0.350D+00
 Coeff:      0.658D+00
 Gap=     0.242 Goal=   None    Shift=    0.000
 RMSDP=5.63D-08 MaxDP=1.33D-06 DE=-6.61D-11 OVMax= 1.56D-06

 Cycle   8  Pass 1  IDiag  1:
 E= -232.268392699094     Delta-E=       -0.000000000020 Rises=F Damp=F
 DIIS: error= 1.82D-08 at cycle   8 NSaved=   8.
 NSaved= 8 IEnMin= 8 EnMin= -232.268392699094     IErMin= 8 ErrMin= 1.82D-08
 ErrMax= 1.82D-08  0.00D+00 EMaxC= 1.00D-01 BMatC= 2.81D-14 BMatP= 2.36D-11
 IDIUse=1 WtCom= 1.00D+00 WtEn= 0.00D+00
 Coeff-Com:  0.674D-05-0.423D-04-0.375D-03-0.238D-02-0.151D-02 0.457D-01
 Coeff-Com:  0.950D-01 0.864D+00
 Coeff:      0.674D-05-0.423D-04-0.375D-03-0.238D-02-0.151D-02 0.457D-01
 Coeff:      0.950D-01 0.864D+00
 Gap=     0.242 Goal=   None    Shift=    0.000
 RMSDP=6.23D-09 MaxDP=1.08D-07 DE=-2.03D-11 OVMax= 1.06D-07

 SCF Done:  E(RB3LYP) =  -232.268392699     A.U. after    8 cycles
            NFock=  8  Conv=0.62D-08     -V/T= 2.0102
 KE= 2.299133697957D+02 PE=-9.429418199316D+02 EE= 2.777685872783D+02
 Leave Link  502 at Fri Oct 11 19:09:07 2019, MaxMem=   280000000 cpu:              49.1 elap:               2.7
 (Enter /home/soft/g16/l701.exe)
 ... and contract with generalized density number  0.
 Compute integral first derivatives.
 Leave Link  701 at Fri Oct 11 19:09:07 2019, MaxMem=   280000000 cpu:               2.5 elap:               0.1
 (Enter /home/soft/g16/l702.exe)
 L702 exits ... SP integral derivatives will be done elsewhere.
 Leave Link  702 at Fri Oct 11 19:09:07 2019, MaxMem=   280000000 cpu:               0.5 elap:               0.0
 (Enter /home/soft/g16/l703.exe)
 Integral derivatives from FoFJK, PRISM(SPDF).
 Compute integral first derivatives, UseDBF=F ICtDFT=           0.
 Calling FoFJK, ICntrl=      2127 FMM=F ISym2X=0 I1Cent= 0 IOpClX= 0 NMat=1 NMatS=1 NMatT=0.
 FoFJK:  IHMeth= 1 ICntrl=    2127 DoSepK=F KAlg= 0 I1Cent=           0 FoldK=F
 IRaf=         0 NMat=       1 IRICut=       1 DoRegI=T DoRafI=F ISym2E= 0 IDoP0=0 IntGTp=1.
 FoFCou: FMM=F IPFlag=           0 FMFlag=      100000 FMFlg1=         800
         NFxFlg=           0 DoJE=F BraDBF=F KetDBF=F FulRan=T
         wScrn=  0.000000 ICntrl=      2127 IOpCl=  0 I1Cent=           0 NGrid=           0
         NMat0=    1 NMatS0=      1 NMatT0=    0 NMatD0=    1 NMtDS0=    0 NMtDT0=    0
 Symmetry not used in FoFCou.
 Leave Link  703 at Fri Oct 11 19:09:08 2019, MaxMem=   280000000 cpu:              15.8 elap:               0.7
 (Enter /home/soft/g16/l716.exe)
 Dipole        = 4.37786751D-06-6.24805748D-07-4.67456965D-05
 ***** Axes restored to original set *****
 -------------------------------------------------------------------
 Center     Atomic                   Forces (Hartrees/Bohr)
 Number     Number              X              Y              Z
 -------------------------------------------------------------------
      1        6           0.000159102    0.000134008   -0.000002135
      2        6          -0.000164500    0.000090290   -0.000016315
      3        6          -0.000184590    0.000106330    0.000013425
      4        6           0.000000255   -0.000230993   -0.000000448
      5        6           0.000006625   -0.000181783   -0.000016586
      6        6           0.000180168    0.000074603    0.000016575
      7        1          -0.000075943   -0.000124914    0.000003473
      8        1           0.000080283   -0.000116931    0.000000893
      9        1           0.000149996   -0.000012286    0.000001693
     10        1           0.000060950    0.000138441   -0.000001445
     11        1          -0.000067340    0.000129421    0.000004912
     12        1          -0.000145008   -0.000006185   -0.000004042
 -------------------------------------------------------------------
 Cartesian Forces:  Max     0.000230993 RMS     0.000102573
 Leave Link  716 at Fri Oct 11 19:09:08 2019, MaxMem=   280000000 cpu:               0.7 elap:               0.0
 (Enter /home/soft/g16/l103.exe)

 GradGradGradGradGradGradGradGradGradGradGradGradGradGradGradGradGradGrad
 Berny optimization.
 Using GEDIIS/GDIIS optimizer.
 FormGI is forming the generalized inverse of G from B-inverse, IUseBI=4.
 Internal  Forces:  Max     0.000150366 RMS     0.000052930
 Search for a local minimum.
 Step number   2 out of a maximum of   64
 All quantities printed in internal units (Hartrees-Bohrs-Radians)
 RMS Force = .52930D-04 SwitMx=.10000D-02 MixMth= 2
 Mixed Optimization -- En-DIIS/RFO-DIIS
 Update second derivatives using D2CorX and points    1    2
 DE= -7.14D-04 DEPred=-7.17D-04 R= 9.96D-01
 TightC=F SS=  1.41D+00  RLast= 6.43D-02 DXNew= 5.0454D-01 1.9286D-01
 Trust test= 9.96D-01 RLast= 6.43D-02 DXMaxT set to 3.00D-01
 ITU=  1  0
 Use linear search instead of GDIIS.
     Eigenvalues ---    0.02152   0.02153   0.02154   0.02155   0.02155
     Eigenvalues ---    0.02155   0.02156   0.02156   0.02157   0.16000
     Eigenvalues ---    0.16000   0.16000   0.16000   0.16000   0.16000
     Eigenvalues ---    0.22000   0.22000   0.22000   0.33710   0.33718
     Eigenvalues ---    0.33719   0.33723   0.33726   0.34394   0.42124
     Eigenvalues ---    0.42140   0.46438   0.46451   0.46467   0.46503
 RFO step:  Lambda=-5.25527338D-08 EMin= 2.15190258D-02
 Quartic linear search produced a step of -0.01551.
 Iteration  1 RMS(Cart)=  0.00013724 RMS(Int)=  0.00000001
 Iteration  2 RMS(Cart)=  0.00000001 RMS(Int)=  0.00000000
 ITry= 1 IFail=0 DXMaxC= 3.63D-04 DCOld= 1.00D+10 DXMaxT= 3.00D-01 DXLimC= 3.00D+00 Rises=F
 Variable       Old X    -DE/DX   Delta X   Delta X   Delta X     New X
                                 (Linear)    (Quad)   (Total)
    R1        2.64274  -0.00008  -0.00010  -0.00006  -0.00016   2.64258
    R2        2.64240   0.00001  -0.00010   0.00012   0.00001   2.64242
    R3        2.05263   0.00015   0.00039   0.00001   0.00040   2.05304
    R4        2.64235   0.00002  -0.00010   0.00014   0.00004   2.64239
    R5        2.05265   0.00014   0.00039  -0.00000   0.00039   2.05304
    R6        2.64278  -0.00009  -0.00009  -0.00010  -0.00019   2.64260
    R7        2.05262   0.00015   0.00040   0.00002   0.00042   2.05304
    R8        2.64235   0.00002  -0.00010   0.00015   0.00005   2.64240
    R9        2.05262   0.00015   0.00040   0.00002   0.00042   2.05304
   R10        2.64273  -0.00008  -0.00010  -0.00006  -0.00016   2.64257
   R11        2.05264   0.00015   0.00040   0.00001   0.00040   2.05304
   R12        2.05264   0.00015   0.00039   0.00001   0.00040   2.05304
    A1        2.09436   0.00001   0.00000   0.00004   0.00004   2.09440
    A2        2.09434  -0.00000   0.00000   0.00000   0.00000   2.09434
    A3        2.09448  -0.00001  -0.00000  -0.00004  -0.00004   2.09445
    A4        2.09443  -0.00001   0.00000  -0.00003  -0.00003   2.09440
    A5        2.09424   0.00001  -0.00000   0.00009   0.00009   2.09433
    A6        2.09451  -0.00001   0.00000  -0.00006  -0.00006   2.09445
    A7        2.09439  -0.00000  -0.00000  -0.00001  -0.00001   2.09438
    A8        2.09454  -0.00001   0.00000  -0.00007  -0.00007   2.09447
    A9        2.09425   0.00001   0.00000   0.00008   0.00008   2.09434
   A10        2.09436   0.00001  -0.00000   0.00004   0.00004   2.09440
   A11        2.09423   0.00001  -0.00000   0.00009   0.00009   2.09432
   A12        2.09459  -0.00002   0.00000  -0.00013  -0.00013   2.09447
   A13        2.09444  -0.00001   0.00000  -0.00003  -0.00003   2.09441
   A14        2.09447  -0.00000   0.00000  -0.00002  -0.00002   2.09445
   A15        2.09428   0.00001  -0.00000   0.00006   0.00005   2.09433
   A16        2.09439  -0.00000   0.00000  -0.00001  -0.00001   2.09438
   A17        2.09450  -0.00001   0.00000  -0.00004  -0.00004   2.09446
   A18        2.09430   0.00001  -0.00000   0.00005   0.00004   2.09434
    D1       -0.00011   0.00000   0.00001   0.00014   0.00015   0.00003
    D2       -3.14155  -0.00000  -0.00001  -0.00004  -0.00006   3.14158
    D3        3.14141   0.00000   0.00001   0.00020   0.00021  -3.14156
    D4       -0.00002  -0.00000  -0.00001   0.00002   0.00000  -0.00002
    D5       -0.00010   0.00000   0.00001   0.00011   0.00012   0.00002
    D6       -3.14153  -0.00000  -0.00000  -0.00006  -0.00007   3.14159
    D7        3.14156   0.00000   0.00001   0.00005   0.00006  -3.14157
    D8        0.00013  -0.00000  -0.00000  -0.00013  -0.00013   0.00000
    D9        0.00022  -0.00001  -0.00002  -0.00026  -0.00028  -0.00006
   D10       -3.14145  -0.00000  -0.00001  -0.00014  -0.00015   3.14158
   D11       -3.14153  -0.00000   0.00001  -0.00008  -0.00008   3.14158
   D12       -0.00002   0.00000   0.00001   0.00004   0.00005   0.00003
   D13       -0.00012   0.00000   0.00001   0.00014   0.00016   0.00003
   D14        3.14148   0.00000   0.00000   0.00013   0.00014  -3.14157
   D15        3.14156   0.00000   0.00000   0.00002   0.00002   3.14158
   D16       -0.00003   0.00000  -0.00000   0.00001   0.00001  -0.00003
   D17       -0.00009   0.00000   0.00000   0.00010   0.00011   0.00002
   D18       -3.14148  -0.00000  -0.00000  -0.00013  -0.00013   3.14157
   D19        3.14150   0.00000   0.00001   0.00011   0.00013  -3.14156
   D20        0.00011  -0.00000   0.00001  -0.00012  -0.00011  -0.00001
   D21        0.00020  -0.00001  -0.00001  -0.00023  -0.00025  -0.00004
   D22       -3.14156  -0.00000  -0.00000  -0.00006  -0.00006   3.14157
   D23        3.14159  -0.00000  -0.00001   0.00000  -0.00001   3.14158
   D24       -0.00017   0.00000   0.00000   0.00018   0.00018   0.00001
         Item               Value     Threshold  Converged?
 Maximum Force            0.000150     0.000450     YES
 RMS     Force            0.000053     0.000300     YES
 Maximum Displacement     0.000363     0.001800     YES
 RMS     Displacement     0.000137     0.001200     YES
 Predicted change in Energy=-2.178711D-07
 Optimization completed.
    -- Stationary point found.
                           ----------------------------
                           !   Optimized Parameters   !
                           ! (Angstroms and Degrees)  !
 --------------------------                            --------------------------
 ! Name  Definition              Value          Derivative Info.                !
 --------------------------------------------------------------------------------
 ! R1    R(1,2)                  1.3985         -DE/DX =   -0.0001              !
 ! R2    R(1,6)                  1.3983         -DE/DX =    0.0                 !
 ! R3    R(1,7)                  1.0862         -DE/DX =    0.0001              !
 ! R4    R(2,3)                  1.3983         -DE/DX =    0.0                 !
 ! R5    R(2,8)                  1.0862         -DE/DX =    0.0001              !
 ! R6    R(3,4)                  1.3985         -DE/DX =   -0.0001              !
 ! R7    R(3,9)                  1.0862         -DE/DX =    0.0001              !
 ! R8    R(4,5)                  1.3983         -DE/DX =    0.0                 !
 ! R9    R(4,10)                 1.0862         -DE/DX =    0.0002              !
 ! R10   R(5,6)                  1.3985         -DE/DX =   -0.0001              !
 ! R11   R(5,11)                 1.0862         -DE/DX =    0.0001              !
 ! R12   R(6,12)                 1.0862         -DE/DX =    0.0001              !
 ! A1    A(2,1,6)              119.9982         -DE/DX =    0.0                 !
 ! A2    A(2,1,7)              119.9967         -DE/DX =    0.0                 !
 ! A3    A(6,1,7)              120.005          -DE/DX =    0.0                 !
 ! A4    A(1,2,3)              120.002          -DE/DX =    0.0                 !
 ! A5    A(1,2,8)              119.9912         -DE/DX =    0.0                 !
 ! A6    A(3,2,8)              120.0068         -DE/DX =    0.0                 !
 ! A7    A(2,3,4)              119.9997         -DE/DX =    0.0                 !
 ! A8    A(2,3,9)              120.0083         -DE/DX =    0.0                 !
 ! A9    A(4,3,9)              119.9919         -DE/DX =    0.0                 !
 ! A10   A(3,4,5)              119.9981         -DE/DX =    0.0                 !
 ! A11   A(3,4,10)             119.9906         -DE/DX =    0.0                 !
 ! A12   A(5,4,10)             120.0113         -DE/DX =    0.0                 !
 ! A13   A(4,5,6)              120.0024         -DE/DX =    0.0                 !
 ! A14   A(4,5,11)             120.0045         -DE/DX =    0.0                 !
 ! A15   A(6,5,11)             119.9932         -DE/DX =    0.0                 !
 ! A16   A(1,6,5)              119.9996         -DE/DX =    0.0                 !
 ! A17   A(1,6,12)             120.0059         -DE/DX =    0.0                 !
 ! A18   A(5,6,12)             119.9945         -DE/DX =    0.0                 !
 ! D1    D(6,1,2,3)             -0.0065         -DE/DX =    0.0                 !
 ! D2    D(6,1,2,8)            180.0025         -DE/DX =    0.0                 !
 ! D3    D(7,1,2,3)           -180.0103         -DE/DX =    0.0                 !
 ! D4    D(7,1,2,8)             -0.0012         -DE/DX =    0.0                 !
 ! D5    D(2,1,6,5)             -0.0056         -DE/DX =    0.0                 !
 ! D6    D(2,1,6,12)           180.0038         -DE/DX =    0.0                 !
 ! D7    D(7,1,6,5)           -180.0019         -DE/DX =    0.0                 !
 ! D8    D(7,1,6,12)             0.0075         -DE/DX =    0.0                 !
 ! D9    D(1,2,3,4)              0.0128         -DE/DX =    0.0                 !
 ! D10   D(1,2,3,9)            180.008          -DE/DX =    0.0                 !
 ! D11   D(8,2,3,4)            180.0037         -DE/DX =    0.0                 !
 ! D12   D(8,2,3,9)             -0.001          -DE/DX =    0.0                 !
 ! D13   D(2,3,4,5)             -0.0069         -DE/DX =    0.0                 !
 ! D14   D(2,3,4,10)          -180.0066         -DE/DX =    0.0                 !
 ! D15   D(9,3,4,5)            179.9978         -DE/DX =    0.0                 !
 ! D16   D(9,3,4,10)            -0.0019         -DE/DX =    0.0                 !
 ! D17   D(3,4,5,6)             -0.0053         -DE/DX =    0.0                 !
 ! D18   D(3,4,5,11)           180.0064         -DE/DX =    0.0                 !
 ! D19   D(10,4,5,6)          -180.0055         -DE/DX =    0.0                 !
 ! D20   D(10,4,5,11)            0.0061         -DE/DX =    0.0                 !
 ! D21   D(4,5,6,1)              0.0115         -DE/DX =    0.0                 !
 ! D22   D(4,5,6,12)           180.0021         -DE/DX =    0.0                 !
 ! D23   D(11,5,6,1)           179.9998         -DE/DX =    0.0                 !
 ! D24   D(11,5,6,12)           -0.0096         -DE/DX =    0.0                 !
 --------------------------------------------------------------------------------
 Lowest energy point so far.  Saving SCF results.
 Largest change from initial coordinates is atom   11       2.734 Angstoms.
 GradGradGradGradGradGradGradGradGradGradGradGradGradGradGradGradGradGrad

 Leave Link  103 at Fri Oct 11 19:09:08 2019, MaxMem=   280000000 cpu:               0.5 elap:               0.0
 (Enter /home/soft/g16/l202.exe)
                          Input orientation:                          
 ---------------------------------------------------------------------
 Center     Atomic      Atomic             Coordinates (Angstroms)
 Number     Number       Type             X           Y           Z
 ---------------------------------------------------------------------
      1          6           0       -2.999101   -0.700649    0.000073
      2          6           0       -1.600625   -0.700679    0.000589
      3          6           0       -0.901418    0.510220   -0.000096
      4          6           0       -1.600604    1.721393   -0.001027
      5          6           0       -2.998876    1.721421   -0.001418
      6          6           0       -3.698186    0.510351   -0.000990
      7          1           0       -3.542171   -1.641350    0.000437
      8          1           0       -1.057683   -1.641466    0.001373
      9          1           0        0.184782    0.510315    0.000173
     10          1           0       -1.057299    2.661952   -0.001450
     11          1           0       -3.542036    2.662074   -0.002246
     12          1           0       -4.784394    0.510521   -0.001328
 ---------------------------------------------------------------------
                    Distance matrix (angstroms):
                    1          2          3          4          5
     1  C    0.000000
     2  C    1.398476   0.000000
     3  C    2.422081   1.398273   0.000000
     4  C    2.796799   2.422073   1.398500   0.000000
     5  C    2.422070   2.796726   2.422052   1.398272   0.000000
     6  C    1.398299   2.422057   2.796768   2.422080   1.398472
     7  H    1.086206   2.157420   3.406292   3.883005   3.406376
     8  H    2.157369   1.086216   2.157353   3.406404   3.882942
     9  H    3.406398   2.157357   1.086201   2.157386   3.406238
    10  H    3.882999   3.406244   2.157371   1.086200   2.157387
    11  H    3.406272   3.882936   3.406368   2.157322   1.086210
    12  H    2.157361   3.406375   3.882975   3.406278   2.157395
                    6          7          8          9         10
     6  C    0.000000
     7  H    2.157350   0.000000
     8  H    3.406255   2.484488   0.000000
     9  H    3.882968   4.303469   2.484730   0.000000
    10  H    3.406416   4.969205   4.303418   2.484413   0.000000
    11  H    2.157382   4.303425   4.969152   4.303399   2.484737
    12  H    1.086208   2.484687   4.303420   4.969176   4.303474
                   11         12
    11  H    0.000000
    12  H    2.484479   0.000000
 Stoichiometry    C6H6
 Framework group  C1[X(C6H6)]
 Deg. of freedom    30
 Full point group                 C1      NOp   1
 RotChk:  IX=1 Diff= 1.40D-11
 Largest Abelian subgroup         C1      NOp   1
 Largest concise Abelian subgroup C1      NOp   1
                         Standard orientation:                         
 ---------------------------------------------------------------------
 Center     Atomic      Atomic             Coordinates (Angstroms)
 Number     Number       Type             X           Y           Z
 ---------------------------------------------------------------------
      1          6           0       -1.343366   -0.388444    0.000003
      2          6           0       -0.335167   -1.357603    0.000071
      3          6           0        1.008068   -0.969161   -0.000061
      4          6           0        1.343334    0.388557    0.000008
      5          6           0        0.335279    1.357573    0.000064
      6          6           0       -1.008148    0.969080   -0.000060
      7          1           0       -2.386789   -0.690289   -0.000063
      8          1           0       -0.595698   -2.412112    0.000079
      9          1           0        1.791222   -1.721825   -0.000140
     10          1           0        2.386827    0.690137    0.000013
     11          1           0        0.595561    2.412137    0.000012
     12          1           0       -1.791123    1.721940   -0.000051
 ---------------------------------------------------------------------
 Rotational constants (GHZ):           5.6745722           5.6744208           2.8372483
 Leave Link  202 at Fri Oct 11 19:09:08 2019, MaxMem=   280000000 cpu:               0.3 elap:               0.0
 (Enter /home/soft/g16/l601.exe)
 Copying SCF densities to generalized density rwf, IOpCl= 0 IROHF=0.

 **********************************************************************

            Population analysis using the SCF density.

 **********************************************************************

 Orbital symmetries:
       Occupied  (A) (A) (A) (A) (A) (A) (A) (A) (A) (A) (A) (A)
                 (A) (A) (A) (A) (A) (A) (A) (A) (A)
       Virtual   (A) (A) (A) (A) (A) (A) (A) (A) (A) (A) (A) (A)
                 (A) (A) (A) (A) (A) (A) (A) (A) (A) (A) (A) (A)
                 (A) (A) (A) (A) (A) (A) (A) (A) (A) (A) (A) (A)
                 (A) (A) (A) (A) (A) (A) (A) (A) (A) (A) (A) (A)
                 (A) (A) (A) (A) (A) (A) (A) (A) (A) (A) (A) (A)
                 (A) (A) (A) (A) (A) (A) (A) (A) (A) (A) (A) (A)
                 (A) (A) (A) (A) (A) (A) (A) (A) (A) (A) (A) (A)
                 (A) (A) (A) (A) (A) (A) (A) (A) (A) (A) (A) (A)
                 (A) (A) (A) (A) (A) (A) (A) (A) (A) (A) (A) (A)
                 (A) (A) (A) (A) (A) (A) (A) (A) (A) (A) (A) (A)
                 (A) (A) (A)
 The electronic state is 1-A.
 Alpha  occ. eigenvalues --  -10.19879 -10.19853 -10.19853 -10.19798 -10.19798
 Alpha  occ. eigenvalues --  -10.19771  -0.85699  -0.74991  -0.74991  -0.60673
 Alpha  occ. eigenvalues --   -0.60673  -0.52664  -0.46656  -0.44878  -0.42582
 Alpha  occ. eigenvalues --   -0.42581  -0.36973  -0.34897  -0.34895  -0.25762
 Alpha  occ. eigenvalues --   -0.25762
 Alpha virt. eigenvalues --   -0.01548  -0.01548   0.00846   0.02564   0.02564
 Alpha virt. eigenvalues --    0.04541   0.04541   0.06643   0.07780   0.07929
 Alpha virt. eigenvalues --    0.09202   0.09203   0.09905   0.12484   0.14273
 Alpha virt. eigenvalues --    0.14273   0.14411   0.14411   0.15516   0.15516
 Alpha virt. eigenvalues --    0.19638   0.19638   0.19665   0.20491   0.21141
 Alpha virt. eigenvalues --    0.21141   0.23533   0.24458   0.24458   0.26617
 Alpha virt. eigenvalues --    0.27936   0.27937   0.32544   0.34705   0.34707
 Alpha virt. eigenvalues --    0.34835   0.34837   0.56231   0.56782   0.60122
 Alpha virt. eigenvalues --    0.61975   0.65872   0.71700   0.71700   0.71845
 Alpha virt. eigenvalues --    0.71846   0.74616   0.74616   0.76642   0.76643
 Alpha virt. eigenvalues --    0.80010   0.82613   0.88158   0.91398   0.91398
 Alpha virt. eigenvalues --    0.94914   0.94914   0.97560   1.02274   1.07045
 Alpha virt. eigenvalues --    1.07046   1.12172   1.12175   1.16605   1.16605
 Alpha virt. eigenvalues --    1.25079   1.29494   1.30992   1.39685   1.39686
 Alpha virt. eigenvalues --    1.41836   1.41838   1.43119   1.43120   1.74196
 Alpha virt. eigenvalues --    1.78398   1.84420   1.88704   1.94232   1.94233
 Alpha virt. eigenvalues --    1.98017   1.98018   2.00225   2.00226   2.02634
 Alpha virt. eigenvalues --    2.07267   2.07267   2.28835   2.28837   2.36340
 Alpha virt. eigenvalues --    2.37553   2.37558   2.40365   2.40707   2.40710
 Alpha virt. eigenvalues --    2.46994   2.46995   2.51315   2.51317   2.59112
 Alpha virt. eigenvalues --    2.59113   2.60510   2.61731   2.64297   2.76152
 Alpha virt. eigenvalues --    2.81115   2.81118   3.04940   3.04943   3.18237
 Alpha virt. eigenvalues --    3.25492   3.27476   3.27477   3.38263   3.52110
 Alpha virt. eigenvalues --    3.52112   3.94549   4.27237   4.28602   4.28602
 Alpha virt. eigenvalues --    4.48543   4.48543   4.85016
          Condensed to atoms (all electrons):
               1          2          3          4          5          6
     1  C    4.932786   0.496349  -0.020104  -0.068884  -0.020138   0.496500
     2  C    0.496349   4.932832   0.496503  -0.020139  -0.068894  -0.020138
     3  C   -0.020104   0.496503   4.932821   0.496335  -0.020144  -0.068882
     4  C   -0.068884  -0.020139   0.496335   4.932778   0.496515  -0.020100
     5  C   -0.020138  -0.068894  -0.020144   0.496515   4.932836   0.496338
     6  C    0.496500  -0.020138  -0.068882  -0.020100   0.496338   4.932811
     7  H    0.257627   0.021656   0.003841  -0.001110   0.003844   0.021675
     8  H    0.021661   0.257613   0.021678   0.003839  -0.001109   0.003846
     9  H    0.003837   0.021672   0.257627   0.021661   0.003847  -0.001110
    10  H   -0.001110   0.003850   0.021665   0.257628   0.021665   0.003836
    11  H    0.003845  -0.001110   0.003842   0.021670   0.257616   0.021666
    12  H    0.021673   0.003841  -0.001110   0.003841   0.021664   0.257626
               7          8          9         10         11         12
     1  C    0.257627   0.021661   0.003837  -0.001110   0.003845   0.021673
     2  C    0.021656   0.257613   0.021672   0.003850  -0.001110   0.003841
     3  C    0.003841   0.021678   0.257627   0.021665   0.003842  -0.001110
     4  C   -0.001110   0.003839   0.021661   0.257628   0.021670   0.003841
     5  C    0.003844  -0.001109   0.003847   0.021665   0.257616   0.021664
     6  C    0.021675   0.003846  -0.001110   0.003836   0.021666   0.257626
     7  H    0.580937  -0.006108  -0.000160   0.000014  -0.000160  -0.006107
     8  H   -0.006108   0.580946  -0.006107  -0.000160   0.000014  -0.000160
     9  H   -0.000160  -0.006107   0.580937  -0.006109  -0.000160   0.000014
    10  H    0.000014  -0.000160  -0.006109   0.580938  -0.006106  -0.000160
    11  H   -0.000160   0.000014  -0.000160  -0.006106   0.580947  -0.006109
    12  H   -0.006107  -0.000160   0.000014  -0.000160  -0.006109   0.580935
 Mulliken charges:
               1
     1  C   -0.124040
     2  C   -0.124036
     3  C   -0.124073
     4  C   -0.124035
     5  C   -0.124040
     6  C   -0.124068
     7  H    0.124051
     8  H    0.124047
     9  H    0.124049
    10  H    0.124050
    11  H    0.124046
    12  H    0.124050
[...]
   D21        0.00020  -0.00001   0.00000  -0.00020  -0.00020  -0.00000
   D22       -3.14156  -0.00000   0.00000  -0.00004  -0.00004   3.14159
   D23        3.14159  -0.00000   0.00000   0.00000   0.00000   3.14159
   D24       -0.00017   0.00000   0.00000   0.00017   0.00017  -0.00000
         Item               Value     Threshold  Converged?
 Maximum Force            0.000150     0.000450     YES
 RMS     Force            0.000053     0.000300     YES
 Maximum Displacement     0.000376     0.001800     YES
 RMS     Displacement     0.000142     0.001200     YES
 Predicted change in Energy=-2.272535D-07
 Optimization completed.
    -- Stationary point found.
                           ----------------------------
                           !   Optimized Parameters   !
                           ! (Angstroms and Degrees)  !
 --------------------------                            --------------------------
 ! Name  Definition              Value          Derivative Info.                !
 --------------------------------------------------------------------------------
 ! R1    R(1,2)                  1.3985         -DE/DX =   -0.0001              !
 ! R2    R(1,6)                  1.3983         -DE/DX =    0.0                 !
 ! R3    R(1,7)                  1.0862         -DE/DX =    0.0001              !
 ! R4    R(2,3)                  1.3983         -DE/DX =    0.0                 !
 ! R5    R(2,8)                  1.0862         -DE/DX =    0.0001              !
 ! R6    R(3,4)                  1.3985         -DE/DX =   -0.0001              !
 ! R7    R(3,9)                  1.0862         -DE/DX =    0.0001              !
 ! R8    R(4,5)                  1.3983         -DE/DX =    0.0                 !
 ! R9    R(4,10)                 1.0862         -DE/DX =    0.0002              !
 ! R10   R(5,6)                  1.3985         -DE/DX =   -0.0001              !
 ! R11   R(5,11)                 1.0862         -DE/DX =    0.0001              !
 ! R12   R(6,12)                 1.0862         -DE/DX =    0.0001              !
 ! A1    A(2,1,6)              119.9982         -DE/DX =    0.0                 !
 ! A2    A(2,1,7)              119.9967         -DE/DX =    0.0                 !
 ! A3    A(6,1,7)              120.005          -DE/DX =    0.0                 !
 ! A4    A(1,2,3)              120.002          -DE/DX =    0.0                 !
 ! A5    A(1,2,8)              119.9912         -DE/DX =    0.0                 !
 ! A6    A(3,2,8)              120.0068         -DE/DX =    0.0                 !
 ! A7    A(2,3,4)              119.9997         -DE/DX =    0.0                 !
 ! A8    A(2,3,9)              120.0083         -DE/DX =    0.0                 !
 ! A9    A(4,3,9)              119.9919         -DE/DX =    0.0                 !
 ! A10   A(3,4,5)              119.9981         -DE/DX =    0.0                 !
 ! A11   A(3,4,10)             119.9906         -DE/DX =    0.0                 !
 ! A12   A(5,4,10)             120.0113         -DE/DX =    0.0                 !
 ! A13   A(4,5,6)              120.0024         -DE/DX =    0.0                 !
 ! A14   A(4,5,11)             120.0045         -DE/DX =    0.0                 !
 ! A15   A(6,5,11)             119.9932         -DE/DX =    0.0                 !
 ! A16   A(1,6,5)              119.9996         -DE/DX =    0.0                 !
 ! A17   A(1,6,12)             120.0059         -DE/DX =    0.0                 !
 ! A18   A(5,6,12)             119.9945         -DE/DX =    0.0                 !
 ! D1    D(6,1,2,3)             -0.0065         -DE/DX =    0.0                 !
 ! D2    D(6,1,2,8)            180.0025         -DE/DX =    0.0                 !
 ! D3    D(7,1,2,3)           -180.0103         -DE/DX =    0.0                 !
 ! D4    D(7,1,2,8)             -0.0012         -DE/DX =    0.0                 !
 ! D5    D(2,1,6,5)             -0.0056         -DE/DX =    0.0                 !
 ! D6    D(2,1,6,12)          -179.9962         -DE/DX =    0.0                 !
 ! D7    D(7,1,6,5)            179.9981         -DE/DX =    0.0                 !
 ! D8    D(7,1,6,12)             0.0075         -DE/DX =    0.0                 !
 ! D9    D(1,2,3,4)              0.0128         -DE/DX =    0.0                 !
 ! D10   D(1,2,3,9)            180.008          -DE/DX =    0.0                 !
 ! D11   D(8,2,3,4)            180.0037         -DE/DX =    0.0                 !
 ! D12   D(8,2,3,9)             -0.001          -DE/DX =    0.0                 !
 ! D13   D(2,3,4,5)             -0.0069         -DE/DX =    0.0                 !
 ! D14   D(2,3,4,10)          -180.0066         -DE/DX =    0.0                 !
 ! D15   D(9,3,4,5)            179.9978         -DE/DX =    0.0                 !
 ! D16   D(9,3,4,10)            -0.0019         -DE/DX =    0.0                 !
 ! D17   D(3,4,5,6)             -0.0053         -DE/DX =    0.0                 !
 ! D18   D(3,4,5,11)          -179.9936         -DE/DX =    0.0                 !
 ! D19   D(10,4,5,6)           179.9945         -DE/DX =    0.0                 !
 ! D20   D(10,4,5,11)            0.0061         -DE/DX =    0.0                 !
 ! D21   D(4,5,6,1)              0.0115         -DE/DX =    0.0                 !
 ! D22   D(4,5,6,12)           180.0021         -DE/DX =    0.0                 !
 ! D23   D(11,5,6,1)           179.9998         -DE/DX =    0.0                 !
 ! D24   D(11,5,6,12)           -0.0096         -DE/DX =    0.0                 !
 --------------------------------------------------------------------------------
 GradGradGradGradGradGradGradGradGradGradGradGradGradGradGradGradGradGrad

 Leave Link  103 at Fri Oct 11 19:09:31 2019, MaxMem=   280000000 cpu:               5.7 elap:               0.3
 (Enter /home/soft/g16/l9999.exe)

 ----------------------------------------------------------------------

 Electric dipole moment (input orientation):
 (Debye = 10**-18 statcoulomb cm , SI units = C m)
                  (au)            (Debye)         (10**-30 SI)
   Tot        0.460159D-04      0.116961D-03      0.390139D-03
   x          0.000000D+00      0.000000D+00      0.000000D+00
   y          0.000000D+00      0.000000D+00      0.000000D+00
   z         -0.460159D-04     -0.116961D-03     -0.390139D-03

 Dipole polarizability, Alpha (input orientation).
 (esu units = cm**3 , SI units = C**2 m**2 J**-1)
 Alpha(0;0):
               (au)            (10**-24 esu)      (10**-40 SI)
   iso        0.665222D+02      0.985758D+01      0.109680D+02
   aniso      0.378200D+02      0.560435D+01      0.623568D+01
   xx         0.791287D+02      0.117257D+02      0.130466D+02
   yx         0.486597D-03      0.721063D-04      0.802290D-04
   yy         0.791291D+02      0.117257D+02      0.130466D+02
   zx         0.121398D-01      0.179893D-02      0.200158D-02
   zy        -0.242545D-01     -0.359415D-02     -0.399903D-02
   zz         0.413089D+02      0.612135D+01      0.681092D+01

 ----------------------------------------------------------------------

 Dipole orientation:
     6         -5.64741653          1.30981441         -0.51425205
     6         -3.01262623          1.31550397         -0.30955237
     6         -1.70035174         -0.96636076         -0.07920347
     6         -3.02267162         -3.25440164         -0.05402406
     6         -5.65706007         -3.26009731         -0.25892815
     6         -6.96956605         -0.97788492         -0.48882761
     1         -6.66667745          3.08252512         -0.69286699
     1         -1.98578790          3.09274654         -0.32924847
     1          0.34607857         -0.96215221          0.08004820
     1         -2.00297742         -5.02683599          0.12472370
     1         -6.68431435         -5.03708565         -0.23919476
     1         -9.01602128         -0.98258626         -0.64792083

 Electric dipole moment (dipole orientation):
 (Debye = 10**-18 statcoulomb cm , SI units = C m)
                  (au)            (Debye)         (10**-30 SI)
   Tot        0.462267D-04      0.117496D-03      0.391926D-03
   x          0.000000D+00      0.000000D+00      0.000000D+00
   y          0.000000D+00      0.000000D+00      0.000000D+00
   z          0.462267D-04      0.117496D-03      0.391926D-03

 Dipole polarizability, Alpha (dipole orientation).
 (esu units = cm**3 , SI units = C**2 m**2 J**-1)
 Alpha(0;0):
               (au)            (10**-24 esu)      (10**-40 SI)
   iso        0.665222D+02      0.985758D+01      0.109680D+02
   aniso      0.378200D+02      0.560435D+01      0.623568D+01
   xx         0.789016D+02      0.116920D+02      0.130091D+02
   yx         0.163099D+00      0.241687D-01      0.268913D-01
   yy         0.790113D+02      0.117083D+02      0.130272D+02
   zx         0.291783D+01      0.432378D+00      0.481086D+00
   zy        -0.210093D+01     -0.311325D+00     -0.346396D+00
   zz         0.416538D+02      0.617246D+01      0.686779D+01

 ----------------------------------------------------------------------
 1\1\GINC-NODE11\Freq\RB3LYP\6-31+G(d,p)\C6H6\ROOT\11-Oct-2019\0\\#P Ge
 om=AllCheck Guess=TCheck SCRF=Check GenChk RB3LYP/6-31+G(d,p) Freq\\Ti
 tle Card Required\\0,1\C,-2.9991005671,-0.7006489414,0.0000731558\C,-1
 .6006249324,-0.7006794349,0.0005889213\C,-0.9014183226,0.5102200767,-0
 .0000958806\C,-1.6006038896,1.7213932478,-0.0010266985\C,-2.9988759504
 ,1.7214205511,-0.0014180616\C,-3.6981857811,0.5103507264,-0.0009896897
 \H,-3.5421708045,-1.6413500494,0.0004365757\H,-1.0576825789,-1.6414655
 167,0.0013731548\H,0.1847822608,0.5103152712,0.0001726801\H,-1.0572992
 834,2.6619517239,-0.0014503087\H,-3.5420359216,2.6620738653,-0.0022464
 89\H,-4.7843935493,0.5105205599,-0.0013283595\\Version=ES64L-G16RevA.0
 3\State=1-A\HF=-232.2683927\RMSD=3.236e-09\RMSF=1.026e-04\ZeroPoint=0.
 1004213\Thermal=0.1048254\Dipole=0.0000036,0.0000026,-0.000046\DipoleD
 eriv=-0.009334,0.061856,0.0000115,0.0617959,0.0619538,-0.0000952,0.000
 0401,-0.0000731,-0.1404475,-0.0093242,-0.0618482,0.0000953,-0.0618269,
 0.0620347,-0.000172,0.0000678,-0.0001357,-0.1404568,0.097645,-0.000023
 1,0.0000318,-0.0000056,-0.0450279,-0.0000612,0.0000647,-0.0000677,-0.1
 404481,-0.0093572,0.0618415,0.0000049,0.0617793,0.0619702,-0.0001082,0
 .0000056,-0.0000847,-0.1404473,-0.0093483,-0.0618318,0.0000779,-0.0618
 091,0.0620558,-0.0001421,0.0001311,-0.0002199,-0.1404559,0.0976519,0.0
 000004,0.0000972,0.000018,-0.0450282,-0.0000619,0.0000024,-0.0000564,-
 0.1404478,0.0187551,-0.0780394,0.0000042,-0.0780553,-0.0713891,0.00010
 93,-0.0000148,0.0000986,0.140442,0.0187604,0.0780338,-0.0000917,0.0780
 705,-0.0714413,0.0001711,-0.0000673,0.0001383,0.1404449,-0.1164462,0.0
 000029,-0.0000649,-0.0000279,0.0638134,0.0000517,-0.0000861,0.000057,0
 .1404645,0.018719,-0.0780896,0.0000161,-0.0780445,-0.0713492,0.0001089
 ,0.0000237,0.0001031,0.1404427,0.0187262,0.0780817,-0.0000877,0.078061
 7,-0.0714059,0.0001531,-0.0001206,0.0001987,0.1404448,-0.1164478,0.000
 0159,-0.0000946,0.0000438,0.0638138,0.0000466,-0.0000466,0.0000418,0.1
 404644\Polar=79.1287361,0.0004866,79.1290939,0.0121398,-0.0242545,41.3
 088947\Quadrupole=2.0075139,2.0073143,-4.0148281,0.0003514,0.0018906,-
 0.0038433\PG=C01 [X(C6H6)]\NImag=0\\0.68151843,0.03350486,0.72068034,0
 .00018778,-0.00036124,0.13366818,-0.33594040,-0.03181797,-0.00008508,0
 .68151900,0.03181922,-0.12815514,0.00005149,-0.03342881,0.72068986,-0.
 00012109,0.00003176,-0.06227135,0.00019626,-0.00041347,0.13365742,-0.0
 2628252,-0.02878502,0.00001037,-0.18022698,-0.12199951,0.00005582,0.73
 989359,-0.07516074,0.03372660,-0.00004045,-0.05837053,-0.28434841,0.00
 014733,0.00030456,0.66240542,0.00003630,-0.00002666,0.00699759,0.00001
 656,0.00012837,-0.06224332,0.00014685,-0.00035204,0.13365713,-0.050811
 32,0.02854144,-0.00003471,0.06374529,0.02318326,0.00000228,-0.18008568
 ,0.05809385,-0.00006469,0.68195645,0.02853710,-0.01785942,0.00001763,-
 0.02319321,-0.05627636,0.00003156,0.12173509,-0.28400443,0.00016936,0.
 03375774,0.72026278,-0.00003030,0.00001504,-0.00650154,0.00003119,0.00
 005079,0.00699502,-0.00010561,0.00014765,-0.06229642,0.00013122,-0.000
 35094,0.13366606,0.06374537,-0.02319747,0.00003617,-0.05081626,-0.0285
 3812,0.00000516,-0.02627809,0.07518276,-0.00005883,-0.33641986,-0.0318
 1542,-0.00005430,0.68195287,0.02317911,-0.05627676,0.00004554,-0.02853
 395,-0.01785834,-0.00000100,0.02880269,0.03370463,-0.00001037,0.031815
 80,-0.12813729,0.00005240,-0.03367721,0.72027783,0.00000554,0.00003424
 ,0.00699502,0.00000291,-0.00000244,-0.00650561,-0.00002798,0.00000600,
 0.00700384,-0.00009955,0.00003282,-0.06223543,0.00020690,-0.00037581,0
 .13365518,-0.18018980,0.12194354,-0.00012475,-0.02628127,0.02880029,-0
 .00003050,-0.00140129,-0.00002682,0.00000168,-0.02627917,-0.02878696,0
 .00000484,-0.18012324,-0.12179264,0.00002661,0.73987840,0.05830976,-0.
 28435356,0.00017065,0.07518039,0.03370811,0.00000653,-0.00003087,-0.06
 727248,0.00004017,-0.07516286,0.03372307,-0.00004046,-0.05815716,-0.28
 400093,0.00010329,-0.00018390,0.66240812,-0.00008227,0.00019023,-0.062
 26054,-0.00005986,-0.00000660,0.00700371,0.00000158,0.00003772,-0.0064
 8584,0.00003769,-0.00002479,0.00699758,-0.00001387,0.00008133,-0.06227
 825,0.00021441,-0.00032593,0.13365839,-0.12916550,-0.12081420,0.000037
 00,-0.01031840,-0.02908717,0.00001371,-0.00571268,0.00150909,-0.000005
 94,-0.00080001,0.00087709,-0.00000053,-0.00098753,0.00318894,-0.000005
 57,0.01177478,0.01498074,-0.00000600,0.13340567,-0.12081528,-0.2686947
 7,0.00009718,0.00222943,0.00363008,0.00000045,0.00046069,0.00172443,0.
 00000339,0.00087739,0.00021155,-0.00000030,0.00423633,-0.00299684,0.00
 000814,-0.01633537,-0.01846512,0.00000710,0.13021625,0.28379014,0.0000
 3518,0.00009544,-0.03651701,-0.00000396,-0.00001074,0.00311252,-0.0000
 0491,0.00000318,0.00721315,-0.00000174,0.00000044,-0.00077347,-0.00000
 502,0.00000840,0.00721837,0.00001450,0.00001939,0.00311555,-0.00003794
 ,-0.00010956,0.02539971,-0.01031914,0.02909167,-0.00002305,-0.12912571
 ,0.12078256,-0.00010753,0.01177570,-0.01498414,0.00001232,-0.00098814,
 -0.00318901,-0.00000014,-0.00080024,-0.00087750,0.00000058,-0.00571336
 ,-0.00150762,-0.00000337,0.00104932,-0.00034722,0.00000183,0.13336756,
 -0.00222651,0.00362650,-0.00000121,0.12078602,-0.26869737,0.00019115,0
 .01633143,-0.01846389,0.00001854,-0.00423626,-0.00299609,0.00000608,-0
 .00087755,0.00021208,-0.00000095,-0.00045974,0.00172241,0.00000361,0.0
 0034700,0.00080146,-0.00000305,-0.13018643,0.28379665,-0.00000448,0.00
 001012,0.00311436,-0.00010521,0.00018825,-0.03652077,-0.00000948,0.000
 01055,0.00311678,0.00000108,0.00000668,0.00721925,0.00000155,-0.000001
 06,-0.00077354,-0.00000478,0.00000181,0.00721309,0.00000174,-0.0000030
 0,-0.00399367,0.00011881,-0.00021092,0.02539995,0.00072039,-0.00325125
 ,0.00000099,-0.01148791,0.00290499,-0.00000622,-0.33846024,-0.00002126
 ,-0.00007447,-0.01148993,-0.00290405,-0.00000220,0.00071923,0.00325200
 ,-0.00000337,0.00071640,0.00000155,0.00000037,-0.00067860,0.00019199,-
 0.00000041,0.00086355,-0.00024008,0.00000127,0.35898397,-0.00220300,-0
 .00470496,0.00000759,-0.02841300,0.00480055,-0.00000903,-0.00002128,-0
 .05942065,0.00001604,0.02841452,0.00479741,0.00000645,0.00220414,-0.00
 470709,0.00000841,-0.00000042,-0.00130663,0.00000034,-0.00148531,0.000
 06823,-0.00000062,0.00045570,0.00098812,-0.00000320,0.00001817,0.05823
 444,-0.00000036,0.00000790,0.00721868,0.00001589,-0.00000122,0.0031151
 5,-0.00007618,0.00001643,-0.03652305,-0.00002115,-0.00000233,0.0031150
 2,-0.00000409,0.00000745,0.00721246,-0.00000015,0.00000104,-0.00077292
 ,0.00000101,0.00000004,0.00022180,0.00000112,-0.00000346,-0.00399965,0
 .00008291,-0.00002214,0.02540509,-0.00080032,0.00087648,-0.00000057,-0
 .00098796,0.00318937,-0.00000417,0.01177271,0.01498022,-0.00000723,-0.
 12922741,-0.12085691,0.00004977,-0.01031731,-0.02908568,0.00001401,-0.
 00571004,0.00151004,-0.00000440,0.00012758,-0.00011536,0.00000045,0.00
 044153,0.00083853,-0.00000067,0.00086393,-0.00045501,0.00000163,0.1334
 6617,0.00087768,0.00021184,-0.00000034,0.00423661,-0.00299971,0.000007
 24,-0.01633766,-0.01846776,0.00000926,-0.12085407,-0.26864480,0.000107
 98,0.00222981,0.00363385,0.00000029,0.00046157,0.00172515,0.00000343,-
 0.00011520,-0.00000546,-0.00000078,-0.00083880,-0.00105231,0.00000078,
 0.00023969,0.00098839,-0.00000293,0.13025609,0.28374134,0.00000081,-0.
 00000104,-0.00077347,-0.00000587,0.00000645,0.00721242,0.00001167,0.00
 001977,0.00311388,0.00005043,0.00010690,-0.03651535,-0.00000628,-0.000
 00816,0.00311432,-0.00000404,0.00000481,0.00721917,0.00000062,-0.00000
 079,-0.00121941,0.00000048,0.00000098,0.00022183,0.00000097,-0.0000034
 5,-0.00399498,-0.00005037,-0.00012207,0.02539800,-0.00098860,-0.003189
 51,-0.00000138,-0.00080058,-0.00087690,0.00000057,-0.00571091,-0.00150
 847,-0.00000306,-0.01031871,0.02909097,-0.00002360,-0.12918344,0.12082
 214,-0.00011389,0.01177368,-0.01498357,0.00001276,0.00044154,-0.000838
 74,0.00000064,0.00012763,0.00011540,0.00000040,-0.00067878,0.00148553,
 -0.00000104,0.00104979,-0.00034776,0.00000196,0.13342473,-0.00423654,-
 0.00299894,0.00000464,-0.00087779,0.00021240,-0.00000093,-0.00046052,0
 .00172315,0.00000359,-0.00222657,0.00362987,-0.00000084,0.12082249,-0.
 26865087,0.00019626,0.01633335,-0.01846590,0.00002023,0.00083860,-0.00
 105229,0.00000117,0.00011524,-0.00000556,-0.00000073,-0.00019185,0.000
 06805,0.00000010,0.00034748,0.00080117,-0.00000315,-0.13022400,0.28375
 103,-0.00000098,0.00000463,0.00721330,-0.00000027,-0.00000092,-0.00077
 356,-0.00000306,0.00000427,0.00721918,-0.00000007,0.00000746,0.0031166
 4,-0.00011728,0.00020149,-0.03651951,-0.00000619,0.00000591,0.00311485
 ,-0.00000038,0.00000035,0.00022185,0.00000036,-0.00000081,-0.00121938,
 -0.00000007,0.00000056,0.00022174,0.00000119,-0.00000305,-0.00399824,0
 .00012504,-0.00021702,0.02539832,-0.01148660,-0.00290259,-0.00000276,0
 .00072118,0.00325081,-0.00000428,0.00071639,0.00000148,0.00000050,0.00
 071849,-0.00325243,-0.00000033,-0.01149149,0.00290629,-0.00000619,-0.3
 3844508,0.00004350,-0.00009705,0.00086382,0.00023989,0.00000139,-0.000
 67870,-0.00019182,-0.00000023,-0.00007203,-0.00000007,0.00000042,-0.00
 067866,0.00019204,-0.00000037,0.00086366,-0.00023988,0.00000171,0.3589
 6903,0.02841433,0.00479826,0.00000853,0.00220281,-0.00470568,0.0000084
 1,0.00000039,-0.00130661,0.00000034,-0.00220425,-0.00470628,0.00000615
 ,-0.02841261,0.00479973,-0.00001025,0.00004708,-0.05942224,0.00001334,
 -0.00045583,0.00098860,-0.00000327,0.00148554,0.00006800,0.00000072,0.
 00000009,0.00019412,-0.00000087,-0.00148524,0.00006832,-0.00000025,0.0
 0045491,0.00098788,-0.00000286,-0.00004722,0.05823588,-0.00002613,-0.0
 0000042,0.00311678,-0.00000258,0.00001005,0.00721838,0.00000094,-0.000
 00040,-0.00077291,-0.00000078,0.00000521,0.00721265,0.00000990,-0.0000
 0020,0.00311315,-0.00009165,0.00001279,-0.03652480,0.00000229,-0.00000
 301,-0.00399939,-0.00000140,0.00000005,0.00022176,0.00000022,-0.000000
 95,-0.00121935,0.00000037,0.00000019,0.00022182,0.00000160,-0.00000332
 ,-0.00399520,0.00010721,-0.00001999,0.02540711\\-0.00015909,-0.0001339
 8,0.00000213,0.00016449,-0.00009025,0.00001631,0.00018456,-0.00010635,
 -0.00001342,-0.00000029,0.00023097,0.00000045,-0.00000661,0.00018176,0
 .00001659,-0.00018013,-0.00007460,-0.00001657,0.00007594,0.00012491,-0
 .00000347,-0.00008028,0.00011693,-0.00000089,-0.00015000,0.00001229,-0
 .00000169,-0.00006095,-0.00013843,0.00000145,0.00006734,-0.00012943,-0
 .00000491,0.00014500,0.00000618,0.00000404\\\@


 LIVE PURE, SPEAK TRUE, RIGHT WRONG, FOLLOW THE KING...
 ELSE, WHEREFORE BORN......
           IDYLLS OF THE KING, TENNYSON
 Job cpu time:       0 days  0 hours  8 minutes 39.8 seconds.
 Elapsed time:       0 days  0 hours  0 minutes 22.4 seconds.
 File lengths (MBytes):  RWF=    344 Int=      0 D2E=      0 Chk=      8 Scr=      8
 Normal termination of Gaussian 16 at Fri Oct 11 19:09:31 2019.
