 Entering Gaussian System, Link 0=g16
 Input=P_6-31+gs.gjf
 Output=P_6-31+gs.log
 Initial command:
 /home/soft/g16/l1.exe "/tmp/gaussian/Gau-224144.inp" -scrdir="/tmp/gaussian/"
 Entering Link 1 = /home/soft/g16/l1.exe PID=    224145.
  
 Copyright (c) 1988,1990,1992,1993,1995,1998,2003,2009,2016,
            Gaussian, Inc.  All Rights Reserved.
  
 This is part of the Gaussian(R) 16 program.  It is based on
 the Gaussian(R) 09 system (copyright 2009, Gaussian, Inc.),
 the Gaussian(R) 03 system (copyright 2003, Gaussian, Inc.),
 the Gaussian(R) 98 system (copyright 1998, Gaussian, Inc.),
 the Gaussian(R) 94 system (copyright 1995, Gaussian, Inc.),
 the Gaussian 92(TM) system (copyright 1992, Gaussian, Inc.),
 the Gaussian 90(TM) system (copyright 1990, Gaussian, Inc.),
 the Gaussian 88(TM) system (copyright 1988, Gaussian, Inc.),
 the Gaussian 86(TM) system (copyright 1986, Carnegie Mellon
 University), and the Gaussian 82(TM) system (copyright 1983,
 Carnegie Mellon University). Gaussian is a federally registered
 trademark of Gaussian, Inc.
  
 This software contains proprietary and confidential information,
 including trade secrets, belonging to Gaussian, Inc.
  
 This software is provided under written license and may be
 used, copied, transmitted, or stored only in accord with that
 written license.
  
 The following legend is applicable only to US Government
 contracts under FAR:
  
                    RESTRICTED RIGHTS LEGEND
  
 Use, reproduction and disclosure by the US Government is
 subject to restrictions as set forth in subparagraphs (a)
 and (c) of the Commercial Computer Software - Restricted
 Rights clause in FAR 52.227-19.
  
 Gaussian, Inc.
 340 Quinnipiac St., Bldg. 40, Wallingford CT 06492
  
  
 ---------------------------------------------------------------
 Warning -- This program may not be used in any manner that
 competes with the business of Gaussian, Inc. or will provide
 assistance to any competitor of Gaussian, Inc.  The licensee
 of this program is prohibited from giving any competitor of
 Gaussian, Inc. access to this program.  By using this program,
 the user acknowledges that Gaussian, Inc. is engaged in the
 business of creating and licensing software in the field of
 computational chemistry and represents and warrants to the
 licensee that it is not a competitor of Gaussian, Inc. and that
 it will not use this program in any manner prohibited above.
 ---------------------------------------------------------------
  

 Cite this work as:
 Gaussian 16, Revision A.03,
 M. J. Frisch, G. W. Trucks, H. B. Schlegel, G. E. Scuseria, 
 M. A. Robb, J. R. Cheeseman, G. Scalmani, V. Barone, 
 G. A. Petersson, H. Nakatsuji, X. Li, M. Caricato, A. V. Marenich, 
 J. Bloino, B. G. Janesko, R. Gomperts, B. Mennucci, H. P. Hratchian, 
 J. V. Ortiz, A. F. Izmaylov, J. L. Sonnenberg, D. Williams-Young, 
 F. Ding, F. Lipparini, F. Egidi, J. Goings, B. Peng, A. Petrone, 
 T. Henderson, D. Ranasinghe, V. G. Zakrzewski, J. Gao, N. Rega, 
 G. Zheng, W. Liang, M. Hada, M. Ehara, K. Toyota, R. Fukuda, 
 J. Hasegawa, M. Ishida, T. Nakajima, Y. Honda, O. Kitao, H. Nakai, 
 T. Vreven, K. Throssell, J. A. Montgomery, Jr., J. E. Peralta, 
 F. Ogliaro, M. J. Bearpark, J. J. Heyd, E. N. Brothers, K. N. Kudin, 
 V. N. Staroverov, T. A. Keith, R. Kobayashi, J. Normand, 
 K. Raghavachari, A. P. Rendell, J. C. Burant, S. S. Iyengar, 
 J. Tomasi, M. Cossi, J. M. Millam, M. Klene, C. Adamo, R. Cammi, 
 J. W. Ochterski, R. L. Martin, K. Morokuma, O. Farkas, 
 J. B. Foresman, and D. J. Fox, Gaussian, Inc., Wallingford CT, 2016.
 
 ******************************************
 Gaussian 16:  ES64L-G16RevA.03 25-Dec-2016
                14-Oct-2019 
 ******************************************
 %chk=P_6-31+gs.chk
 %nproc=24
 Will use up to   24 processors via shared memory.
 -------------------------------------------
 #p b3lyp/6-31+g* opt=(calcfc,recalc=3) freq
 -------------------------------------------
 1/10=4,18=20,19=15,26=3,38=1,71=3/1,3;
 2/9=110,12=2,17=6,18=5,40=1/2;
 3/5=1,6=6,7=11,11=2,25=1,30=1,71=2,74=-5,140=1/1,2,3;
 4//1;
 5/5=2,38=5/2;
 8/6=4,10=90,11=11/1;
 11/6=1,8=1,9=11,15=111,16=1/1,2,10;
 10/6=1,13=1/2;
 6/7=2,8=2,9=2,10=2,28=1/1;
 7/10=1,18=20,25=1/1,2,3,16;
 1/10=4,18=20,19=15,26=3,71=3/3(2);
 2/9=110/2;
 99//99;
 2/9=110/2;
 3/5=1,6=6,7=11,11=2,25=1,30=1,71=1,74=-5/1,2,3;
 4/5=5,16=3,69=1/1;
 5/5=2,38=5/2;
 7//1,2,3,16;
 1/18=20,19=15,26=3,71=3/3(-5);
 2/9=110/2;
 6/7=2,8=2,9=2,10=2,19=2,28=1/1;
 99/9=1/99;
 Leave Link    1 at Mon Oct 14 23:36:26 2019, MaxMem=           0 cpu:               2.6 elap:               0.1
 (Enter /home/soft/g16/l101.exe)
 -------------------
 Title Card Required
 -------------------
 Symbolic Z-matrix:
 Charge = -1 Multiplicity = 1
 C                    -1.08527  -1.08527   0. 
 H                    -0.72862  -2.09408   0. 
 H                    -0.7286   -0.58087   0.87365 
 H                    -0.7286   -0.58087  -0.87365 
 Br                   -2.99527  -1.08525   0. 
 Cl                    0.90443  -1.0853    0. 
 
 ITRead=  0  0  0  0  0  0
 MicOpt= -1 -1 -1 -1 -1 -1
 NAtoms=      6 NQM=        6 NQMF=       0 NMMI=      0 NMMIF=      0
                NMic=       0 NMicF=      0.
                    Isotopes and Nuclear Properties:
 (Nuclear quadrupole moments (NQMom) in fm**2, nuclear magnetic moments (NMagM)
  in nuclear magnetons)

  Atom         1           2           3           4           5           6
 IAtWgt=          12           1           1           1          79          35
 AtmWgt=  12.0000000   1.0078250   1.0078250   1.0078250  78.9183361  34.9688527
 NucSpn=           0           1           1           1           3           3
 AtZEff=  -0.0000000  -0.0000000  -0.0000000  -0.0000000  -0.0000000  -0.0000000
 NQMom=    0.0000000   0.0000000   0.0000000   0.0000000  31.3000000  -8.1650000
 NMagM=    0.0000000   2.7928460   2.7928460   2.7928460   2.1063990   0.8218740
 AtZNuc=   6.0000000   1.0000000   1.0000000   1.0000000  35.0000000  17.0000000
 Leave Link  101 at Mon Oct 14 23:36:26 2019, MaxMem=   280000000 cpu:               4.6 elap:               0.3
 (Enter /home/soft/g16/l103.exe)

 GradGradGradGradGradGradGradGradGradGradGradGradGradGradGradGradGradGrad
 Berny optimization.
 Initialization pass.
                           ----------------------------
                           !    Initial Parameters    !
                           ! (Angstroms and Degrees)  !
 --------------------------                            --------------------------
 ! Name  Definition              Value          Derivative Info.                !
 --------------------------------------------------------------------------------
 ! R1    R(1,2)                  1.07           calculate D2E/DX2 analytically  !
 ! R2    R(1,3)                  1.07           calculate D2E/DX2 analytically  !
 ! R3    R(1,4)                  1.07           calculate D2E/DX2 analytically  !
 ! R4    R(1,5)                  1.91           calculate D2E/DX2 analytically  !
 ! R5    R(1,6)                  1.9897         calculate D2E/DX2 analytically  !
 ! A1    A(2,1,3)              109.4712         calculate D2E/DX2 analytically  !
 ! A2    A(2,1,4)              109.4712         calculate D2E/DX2 analytically  !
 ! A3    A(2,1,5)              109.4712         calculate D2E/DX2 analytically  !
 ! A4    A(2,1,6)               70.5288         calculate D2E/DX2 analytically  !
 ! A5    A(3,1,4)              109.4713         calculate D2E/DX2 analytically  !
 ! A6    A(3,1,5)              109.4712         calculate D2E/DX2 analytically  !
 ! A7    A(3,1,6)               70.5288         calculate D2E/DX2 analytically  !
 ! A8    A(4,1,5)              109.4712         calculate D2E/DX2 analytically  !
 ! A9    A(4,1,6)               70.5288         calculate D2E/DX2 analytically  !
 ! A10   L(5,1,6,2,-1)         180.0            calculate D2E/DX2 analytically  !
 ! A11   L(5,1,6,2,-2)         180.0            calculate D2E/DX2 analytically  !
 ! D1    D(2,1,4,3)           -120.0            calculate D2E/DX2 analytically  !
 ! D2    D(2,1,5,3)            120.0            calculate D2E/DX2 analytically  !
 ! D3    D(2,1,6,3)           -120.0            calculate D2E/DX2 analytically  !
 ! D4    D(2,1,5,4)           -120.0            calculate D2E/DX2 analytically  !
 ! D5    D(2,1,6,4)            120.0            calculate D2E/DX2 analytically  !
 ! D6    D(3,1,5,4)            120.0            calculate D2E/DX2 analytically  !
 ! D7    D(3,1,6,4)           -120.0            calculate D2E/DX2 analytically  !
 --------------------------------------------------------------------------------
 Trust Radius=3.00D-01 FncErr=1.00D-07 GrdErr=1.00D-06 EigMax=2.50D+02 EigMin=1.00D-04
 Number of steps in this run=     33 maximum allowed number of steps=    100.
 Step   0 in ReCalcFC= 3 IGetFC= 4 compute analytic Hessian.
 GradGradGradGradGradGradGradGradGradGradGradGradGradGradGradGradGradGrad

 Leave Link  103 at Mon Oct 14 23:36:26 2019, MaxMem=   280000000 cpu:               0.3 elap:               0.0
 (Enter /home/soft/g16/l202.exe)
                          Input orientation:                          
 ---------------------------------------------------------------------
 Center     Atomic      Atomic             Coordinates (Angstroms)
 Number     Number       Type             X           Y           Z
 ---------------------------------------------------------------------
      1          6           0       -1.085271   -1.085271    0.000000
      2          1           0       -0.728617   -2.094081    0.000000
      3          1           0       -0.728598   -0.580873    0.873652
      4          1           0       -0.728598   -0.580873   -0.873652
      5         35           0       -2.995271   -1.085248    0.000000
      6         17           0        0.904435   -1.085296    0.000000
 ---------------------------------------------------------------------
                    Distance matrix (angstroms):
                    1          2          3          4          5
     1  C    0.000000
     2  H    1.070000   0.000000
     3  H    1.070000   1.747302   0.000000
     4  H    1.070000   1.747302   1.747303   0.000000
     5  Br   1.910000   2.481021   2.481021   2.481021   0.000000
     6  Cl   1.989706   1.919507   1.919507   1.919507   3.899706
                    6
     6  Cl   0.000000
 Stoichiometry    CH3BrCl(1-)
 Framework group  C3V[C3(ClCBr),3SGV(H)]
 Deg. of freedom     4
 Full point group                 C3V     NOp   6
 Largest Abelian subgroup         CS      NOp   2
 Largest concise Abelian subgroup CS      NOp   2
                         Standard orientation:                         
 ---------------------------------------------------------------------
 Center     Atomic      Atomic             Coordinates (Angstroms)
 Number     Number       Type             X           Y           Z
 ---------------------------------------------------------------------
      1          6           0        0.000000   -0.000000   -0.523852
      2          1           0       -0.000000    1.008806   -0.880519
      3          1           0       -0.873651   -0.504403   -0.880519
      4          1           0        0.873651   -0.504403   -0.880519
      5         35           0       -0.000000    0.000000    1.386148
      6         17           0        0.000000   -0.000000   -2.513558
 ---------------------------------------------------------------------
 Rotational constants (GHZ):         164.2463927           1.3351421           1.3351421
 Leave Link  202 at Mon Oct 14 23:36:26 2019, MaxMem=   280000000 cpu:               1.4 elap:               0.1
 (Enter /home/soft/g16/l301.exe)
 Standard basis: 6-31+G(d) (6D, 7F)
 Ernie: Thresh=  0.10000D-02 Tol=  0.10000D-05 Strict=F.
 There are    60 symmetry adapted cartesian basis functions of A'  symmetry.
 There are    22 symmetry adapted cartesian basis functions of A"  symmetry.
 There are    60 symmetry adapted basis functions of A'  symmetry.
 There are    22 symmetry adapted basis functions of A"  symmetry.
    82 basis functions,   187 primitive gaussians,    82 cartesian basis functions
    31 alpha electrons       31 beta electrons
       nuclear repulsion energy       212.3149345937 Hartrees.
 IExCor=  402 DFT=T Ex+Corr=B3LYP ExCW=0 ScaHFX=  0.200000
 ScaDFX=  0.800000  0.720000  1.000000  0.810000 ScalE2=  1.000000  1.000000
 IRadAn=      5 IRanWt=     -1 IRanGd=            0 ICorTp=0 IEmpDi=  4
 NAtoms=    6 NActive=    6 NUniq=    4 SFac= 2.25D+00 NAtFMM=   60 NAOKFM=F Big=F
 Integral buffers will be    131072 words long.
 Raffenetti 2 integral format.
 Two-electron integral symmetry is turned on.
 Leave Link  301 at Mon Oct 14 23:36:26 2019, MaxMem=   280000000 cpu:               2.0 elap:               0.1
 (Enter /home/soft/g16/l302.exe)
 NPDir=0 NMtPBC=     1 NCelOv=     1 NCel=       1 NClECP=     1 NCelD=      1
         NCelK=      1 NCelE2=     1 NClLst=     1 CellRange=     0.0.
 One-electron integrals computed using PRISM.
 One-electron integral symmetry used in STVInt
 NBasis=    82 RedAO= T EigKep=  5.85D-04  NBF=    60    22
 NBsUse=    82 1.00D-06 EigRej= -1.00D+00 NBFU=    60    22
 Precomputing XC quadrature grid using
 IXCGrd= 4 IRadAn=           5 IRanWt=          -1 IRanGd=           0 AccXCQ= 0.00D+00.
 Generated NRdTot=       0 NPtTot=           0 NUsed=           0 NTot=          32
 NSgBfM=    82    82    82    82    82 MxSgAt=     6 MxSgA2=     6.
 Leave Link  302 at Mon Oct 14 23:36:27 2019, MaxMem=   280000000 cpu:               6.0 elap:               0.4
 (Enter /home/soft/g16/l303.exe)
 DipDrv:  MaxL=1.
 Leave Link  303 at Mon Oct 14 23:36:27 2019, MaxMem=   280000000 cpu:               1.1 elap:               0.1
 (Enter /home/soft/g16/l401.exe)
 ExpMin= 3.50D-02 ExpMax= 5.74D+05 ExpMxC= 5.74D+03 IAcc=3 IRadAn=         5 AccDes= 0.00D+00
 Harris functional with IExCor=  402 and IRadAn=       5 diagonalized for initial guess.
 HarFok:  IExCor=  402 AccDes= 0.00D+00 IRadAn=         5 IDoV= 1 UseB2=F ITyADJ=14
 ICtDFT=  3500011 ScaDFX=  1.000000  1.000000  1.000000  1.000000
 FoFCou: FMM=F IPFlag=           0 FMFlag=      100000 FMFlg1=           0
         NFxFlg=           0 DoJE=T BraDBF=F KetDBF=T FulRan=T
         wScrn=  0.000000 ICntrl=       500 IOpCl=  0 I1Cent=   200000004 NGrid=           0
         NMat0=    1 NMatS0=      1 NMatT0=    0 NMatD0=    1 NMtDS0=    0 NMtDT0=    0
 Petite list used in FoFCou.
 Harris En= -3071.98426579145    
 JPrj=0 DoOrth=F DoCkMO=F.
 Initial guess orbital symmetries:
       Occupied  (A1) (A1) (A1) (A1) (E) (E) (A1) (A1) (A1) (A1)
                 (E) (E) (A1) (E) (E) (A1) (E) (E) (E) (E) (A1)
                 (A1) (A1) (E) (E) (A1) (E) (E) (E) (E) (A1)
       Virtual   (A1) (A1) (A1) (E) (E) (A1) (E) (E) (E) (E) (A1)
                 (E) (E) (A1) (A1) (A1) (E) (E) (E) (E) (A1) (A1)
                 (A1) (E) (E) (E) (E) (E) (E) (A1) (A1) (E) (E)
                 (A1) (E) (E) (E) (E) (A1) (A1) (A1) (E) (E) (A1)
                 (A1) (E) (E) (A1) (A1) (A1) (A1)
 The electronic state of the initial guess is 1-A1.
 Leave Link  401 at Mon Oct 14 23:36:27 2019, MaxMem=   280000000 cpu:               7.0 elap:               0.4
 (Enter /home/soft/g16/l502.exe)
 Keep R1 ints in memory in symmetry-blocked form, NReq=27510814.
 FoFCou: FMM=F IPFlag=           0 FMFlag=           0 FMFlg1=           0
         NFxFlg=           0 DoJE=F BraDBF=F KetDBF=F FulRan=T
         wScrn=  0.000000 ICntrl=       600 IOpCl=  0 I1Cent=           0 NGrid=           0
         NMat0=    1 NMatS0=   3403 NMatT0=    0 NMatD0=    1 NMtDS0=    0 NMtDT0=    0
 Petite list used in FoFCou.
 Closed shell SCF:
 Using DIIS extrapolation, IDIIS=  1040.
 NGot=   280000000 LenX=   276933098 LenY=   276925933
 Requested convergence on RMS density matrix=1.00D-08 within 128 cycles.
 Requested convergence on MAX density matrix=1.00D-06.
 Requested convergence on             energy=1.00D-06.
 No special actions if energy rises.

 Cycle   1  Pass 1  IDiag  1:
 E= -3071.68845827770    
 DIIS: error= 1.24D-01 at cycle   1 NSaved=   1.
 NSaved= 1 IEnMin= 1 EnMin= -3071.68845827770     IErMin= 1 ErrMin= 1.24D-01
 ErrMax= 1.24D-01  0.00D+00 EMaxC= 1.00D-01 BMatC= 4.53D-01 BMatP= 4.53D-01
 IDIUse=3 WtCom= 0.00D+00 WtEn= 1.00D+00
 Coeff-Com:  0.100D+01
 Coeff-En:   0.100D+01
 Coeff:      0.100D+01
 Gap=     0.181 Goal=   None    Shift=    0.000
 GapD=    0.181 DampG=1.000 DampE=0.250 DampFc=0.2500 IDamp=-1.
 Damping current iteration by 2.50D-01
 RMSDP=3.01D-02 MaxDP=5.70D-01              OVMax= 2.14D-01

 Cycle   2  Pass 1  IDiag  1:
 E= -3071.72765865335     Delta-E=       -0.039200375658 Rises=F Damp=T
 DIIS: error= 9.16D-02 at cycle   2 NSaved=   2.
 NSaved= 2 IEnMin= 2 EnMin= -3071.72765865335     IErMin= 2 ErrMin= 9.16D-02
 ErrMax= 9.16D-02  0.00D+00 EMaxC= 1.00D-01 BMatC= 2.20D-01 BMatP= 4.53D-01
 IDIUse=3 WtCom= 8.39D-02 WtEn= 9.16D-01
 Coeff-Com: -0.169D+01 0.269D+01
 Coeff-En:   0.000D+00 0.100D+01
 Coeff:     -0.142D+00 0.114D+01
 Gap=     0.144 Goal=   None    Shift=    0.000
 RMSDP=8.67D-03 MaxDP=1.22D-01 DE=-3.92D-02 OVMax= 8.51D-02

 Cycle   3  Pass 1  IDiag  1:
 E= -3071.78319343189     Delta-E=       -0.055534778535 Rises=F Damp=F
 DIIS: error= 1.67D-02 at cycle   3 NSaved=   3.
 NSaved= 3 IEnMin= 3 EnMin= -3071.78319343189     IErMin= 3 ErrMin= 1.67D-02
 ErrMax= 1.67D-02  0.00D+00 EMaxC= 1.00D-01 BMatC= 1.47D-02 BMatP= 2.20D-01
 IDIUse=3 WtCom= 8.33D-01 WtEn= 1.67D-01
 Coeff-Com:  0.114D+01-0.149D+01 0.134D+01
 Coeff-En:   0.244D-01 0.000D+00 0.976D+00
 Coeff:      0.958D+00-0.124D+01 0.128D+01
 Gap=     0.160 Goal=   None    Shift=    0.000
 RMSDP=4.90D-03 MaxDP=8.00D-02 DE=-5.55D-02 OVMax= 3.70D-02

 Cycle   4  Pass 1  IDiag  1:
 E= -3071.79731638638     Delta-E=       -0.014122954492 Rises=F Damp=F
 DIIS: error= 3.94D-03 at cycle   4 NSaved=   4.
 NSaved= 4 IEnMin= 4 EnMin= -3071.79731638638     IErMin= 4 ErrMin= 3.94D-03
 ErrMax= 3.94D-03  0.00D+00 EMaxC= 1.00D-01 BMatC= 8.98D-04 BMatP= 1.47D-02
 IDIUse=3 WtCom= 9.61D-01 WtEn= 3.94D-02
 Coeff-Com:  0.210D+00-0.270D+00 0.392D+00 0.667D+00
 Coeff-En:   0.000D+00 0.000D+00 0.000D+00 0.100D+01
 Coeff:      0.202D+00-0.259D+00 0.377D+00 0.680D+00
 Gap=     0.160 Goal=   None    Shift=    0.000
 RMSDP=7.12D-04 MaxDP=8.37D-03 DE=-1.41D-02 OVMax= 1.42D-02

 Cycle   5  Pass 1  IDiag  1:
 E= -3071.79816354863     Delta-E=       -0.000847162252 Rises=F Damp=F
 DIIS: error= 6.34D-04 at cycle   5 NSaved=   5.
 NSaved= 5 IEnMin= 5 EnMin= -3071.79816354863     IErMin= 5 ErrMin= 6.34D-04
 ErrMax= 6.34D-04  0.00D+00 EMaxC= 1.00D-01 BMatC= 8.18D-05 BMatP= 8.98D-04
 IDIUse=3 WtCom= 9.94D-01 WtEn= 6.34D-03
 Coeff-Com:  0.506D-01-0.645D-01 0.138D+00 0.366D+00 0.510D+00
 Coeff-En:   0.000D+00 0.000D+00 0.000D+00 0.000D+00 0.100D+01
 Coeff:      0.503D-01-0.641D-01 0.137D+00 0.364D+00 0.513D+00
 Gap=     0.158 Goal=   None    Shift=    0.000
 RMSDP=3.89D-04 MaxDP=7.51D-03 DE=-8.47D-04 OVMax= 5.82D-03

 Cycle   6  Pass 1  IDiag  1:
 E= -3071.79826070327     Delta-E=       -0.000097154636 Rises=F Damp=F
 DIIS: error= 1.49D-04 at cycle   6 NSaved=   6.
 NSaved= 6 IEnMin= 6 EnMin= -3071.79826070327     IErMin= 6 ErrMin= 1.49D-04
 ErrMax= 1.49D-04  0.00D+00 EMaxC= 1.00D-01 BMatC= 3.53D-06 BMatP= 8.18D-05
 IDIUse=3 WtCom= 9.99D-01 WtEn= 1.49D-03
 Coeff-Com: -0.664D-02 0.916D-02 0.162D-01 0.960D-01 0.224D+00 0.661D+00
 Coeff-En:   0.000D+00 0.000D+00 0.000D+00 0.000D+00 0.000D+00 0.100D+01
 Coeff:     -0.663D-02 0.915D-02 0.162D-01 0.958D-01 0.224D+00 0.662D+00
 Gap=     0.158 Goal=   None    Shift=    0.000
 RMSDP=5.70D-05 MaxDP=8.18D-04 DE=-9.72D-05 OVMax= 8.45D-04

 Cycle   7  Pass 1  IDiag  1:
 E= -3071.79826501634     Delta-E=       -0.000004313075 Rises=F Damp=F
 DIIS: error= 1.01D-05 at cycle   7 NSaved=   7.
 NSaved= 7 IEnMin= 7 EnMin= -3071.79826501634     IErMin= 7 ErrMin= 1.01D-05
 ErrMax= 1.01D-05  0.00D+00 EMaxC= 1.00D-01 BMatC= 1.62D-08 BMatP= 3.53D-06
 IDIUse=1 WtCom= 1.00D+00 WtEn= 0.00D+00
 Coeff-Com: -0.217D-02 0.294D-02 0.977D-03 0.130D-01 0.279D-01 0.125D+00
 Coeff-Com:  0.832D+00
 Coeff:     -0.217D-02 0.294D-02 0.977D-03 0.130D-01 0.279D-01 0.125D+00
 Coeff:      0.832D+00
 Gap=     0.158 Goal=   None    Shift=    0.000
 RMSDP=1.01D-05 MaxDP=1.74D-04 DE=-4.31D-06 OVMax= 9.32D-05

 Cycle   8  Pass 1  IDiag  1:
 E= -3071.79826503608     Delta-E=       -0.000000019734 Rises=F Damp=F
 DIIS: error= 4.31D-06 at cycle   8 NSaved=   8.
 NSaved= 8 IEnMin= 8 EnMin= -3071.79826503608     IErMin= 8 ErrMin= 4.31D-06
 ErrMax= 4.31D-06  0.00D+00 EMaxC= 1.00D-01 BMatC= 1.34D-09 BMatP= 1.62D-08
 IDIUse=1 WtCom= 1.00D+00 WtEn= 0.00D+00
 Coeff-Com: -0.382D-03 0.505D-03-0.343D-03 0.330D-03-0.128D-02 0.125D-01
 Coeff-Com:  0.281D+00 0.708D+00
 Coeff:     -0.382D-03 0.505D-03-0.343D-03 0.330D-03-0.128D-02 0.125D-01
 Coeff:      0.281D+00 0.708D+00
 Gap=     0.158 Goal=   None    Shift=    0.000
 RMSDP=1.54D-06 MaxDP=3.35D-05 DE=-1.97D-08 OVMax= 1.78D-05

 Cycle   9  Pass 1  IDiag  1:
 E= -3071.79826503764     Delta-E=       -0.000000001560 Rises=F Damp=F
 DIIS: error= 7.82D-07 at cycle   9 NSaved=   9.
 NSaved= 9 IEnMin= 9 EnMin= -3071.79826503764     IErMin= 9 ErrMin= 7.82D-07
 ErrMax= 7.82D-07  0.00D+00 EMaxC= 1.00D-01 BMatC= 8.97D-11 BMatP= 1.34D-09
 IDIUse=1 WtCom= 1.00D+00 WtEn= 0.00D+00
 Coeff-Com:  0.853D-05-0.143D-04-0.130D-03-0.410D-03-0.153D-02-0.234D-02
 Coeff-Com:  0.322D-01 0.240D+00 0.732D+00
 Coeff:      0.853D-05-0.143D-04-0.130D-03-0.410D-03-0.153D-02-0.234D-02
 Coeff:      0.322D-01 0.240D+00 0.732D+00
 Gap=     0.158 Goal=   None    Shift=    0.000
 RMSDP=4.90D-07 MaxDP=9.43D-06 DE=-1.56D-09 OVMax= 6.20D-06

 Cycle  10  Pass 1  IDiag  1:
 E= -3071.79826503779     Delta-E=       -0.000000000158 Rises=F Damp=F
 DIIS: error= 1.31D-07 at cycle  10 NSaved=  10.
 NSaved=10 IEnMin=10 EnMin= -3071.79826503779     IErMin=10 ErrMin= 1.31D-07
 ErrMax= 1.31D-07  0.00D+00 EMaxC= 1.00D-01 BMatC= 1.73D-12 BMatP= 8.97D-11
 IDIUse=1 WtCom= 1.00D+00 WtEn= 0.00D+00
 Coeff-Com:  0.468D-05-0.693D-05-0.254D-04-0.912D-04-0.314D-03-0.100D-02
 Coeff-Com: -0.360D-02 0.170D-01 0.130D+00 0.858D+00
 Coeff:      0.468D-05-0.693D-05-0.254D-04-0.912D-04-0.314D-03-0.100D-02
 Coeff:     -0.360D-02 0.170D-01 0.130D+00 0.858D+00
 Gap=     0.158 Goal=   None    Shift=    0.000
 RMSDP=1.19D-07 MaxDP=2.60D-06 DE=-1.58D-10 OVMax= 1.41D-06

 Cycle  11  Pass 1  IDiag  1:
 E= -3071.79826503778     Delta-E=        0.000000000020 Rises=F Damp=F
 DIIS: error= 4.03D-08 at cycle  11 NSaved=  11.
 NSaved=11 IEnMin=10 EnMin= -3071.79826503779     IErMin=11 ErrMin= 4.03D-08
 ErrMax= 4.03D-08  0.00D+00 EMaxC= 1.00D-01 BMatC= 1.65D-13 BMatP= 1.73D-12
 IDIUse=1 WtCom= 1.00D+00 WtEn= 0.00D+00
 Coeff-Com: -0.166D-05 0.222D-05-0.114D-05 0.219D-05-0.153D-04-0.153D-03
 Coeff-Com: -0.257D-02-0.727D-02 0.175D-02 0.254D+00 0.755D+00
 Coeff:     -0.166D-05 0.222D-05-0.114D-05 0.219D-05-0.153D-04-0.153D-03
 Coeff:     -0.257D-02-0.727D-02 0.175D-02 0.254D+00 0.755D+00
 Gap=     0.158 Goal=   None    Shift=    0.000
 RMSDP=2.55D-08 MaxDP=5.46D-07 DE= 1.96D-11 OVMax= 3.82D-07

 Cycle  12  Pass 1  IDiag  1:
 E= -3071.79826503775     Delta-E=        0.000000000026 Rises=F Damp=F
 DIIS: error= 7.27D-09 at cycle  12 NSaved=  12.
 NSaved=12 IEnMin=10 EnMin= -3071.79826503779     IErMin=12 ErrMin= 7.27D-09
 ErrMax= 7.27D-09  0.00D+00 EMaxC= 1.00D-01 BMatC= 3.89D-15 BMatP= 1.65D-13
 IDIUse=1 WtCom= 1.00D+00 WtEn= 0.00D+00
 Coeff-Com: -0.488D-06 0.688D-06 0.127D-05 0.543D-05 0.112D-04 0.120D-04
 Coeff-Com: -0.262D-03-0.141D-02-0.585D-02-0.119D-01 0.116D+00 0.903D+00
 Coeff:     -0.488D-06 0.688D-06 0.127D-05 0.543D-05 0.112D-04 0.120D-04
 Coeff:     -0.262D-03-0.141D-02-0.585D-02-0.119D-01 0.116D+00 0.903D+00
 Gap=     0.158 Goal=   None    Shift=    0.000
 RMSDP=7.63D-09 MaxDP=1.53D-07 DE= 2.64D-11 OVMax= 8.44D-08

 SCF Done:  E(RB3LYP) =  -3071.79826504     A.U. after   12 cycles
            NFock= 12  Conv=0.76D-08     -V/T= 2.0055
 KE= 3.054959843537D+03 PE=-7.757664111311D+03 EE= 1.418591068142D+03
 Leave Link  502 at Mon Oct 14 23:36:28 2019, MaxMem=   280000000 cpu:              15.6 elap:               0.8
 (Enter /home/soft/g16/l801.exe)
 DoSCS=F DFT=T ScalE2(SS,OS)=  1.000000  1.000000
 Range of M.O.s used for correlation:     1    82
 NBasis=    82 NAE=    31 NBE=    31 NFC=     0 NFV=     0
 NROrb=     82 NOA=    31 NOB=    31 NVA=    51 NVB=    51

 **** Warning!!: The largest alpha MO coefficient is  0.20206659D+02

 Leave Link  801 at Mon Oct 14 23:36:28 2019, MaxMem=   280000000 cpu:               0.7 elap:               0.0
 (Enter /home/soft/g16/l1101.exe)
 Using compressed storage, NAtomX=     6.
 Will process      7 centers per pass.
 Leave Link 1101 at Mon Oct 14 23:36:28 2019, MaxMem=   280000000 cpu:               2.9 elap:               0.2
 (Enter /home/soft/g16/l1102.exe)
 Symmetrizing basis deriv contribution to polar:
 IMax=3 JMax=2 DiffMx= 0.00D+00
 Leave Link 1102 at Mon Oct 14 23:36:28 2019, MaxMem=   280000000 cpu:               1.3 elap:               0.1
 (Enter /home/soft/g16/l1110.exe)
 Forming Gx(P) for the SCF density, NAtomX=     6.
 Integral derivatives from FoFJK, PRISM(SPDF).
 Do as many integral derivatives as possible in FoFJK.
 G2DrvN: MDV=     279999420.
 G2DrvN: will do     7 centers at a time, making    1 passes.
 Calling FoFCou, ICntrl=  3107 FMM=F I1Cent=   0 AccDes= 0.00D+00.
 FoFJK:  IHMeth= 1 ICntrl=    3107 DoSepK=F KAlg= 0 I1Cent=           0 FoldK=F
 IRaf=         0 NMat=       1 IRICut=       1 DoRegI=T DoRafI=F ISym2E= 1 IDoP0=0 IntGTp=1.
 FoFCou: FMM=F IPFlag=           0 FMFlag=      100000 FMFlg1=           0
         NFxFlg=           0 DoJE=F BraDBF=F KetDBF=F FulRan=T
         wScrn=  0.000000 ICntrl=      3107 IOpCl=  0 I1Cent=           0 NGrid=           0
         NMat0=    1 NMatS0=      1 NMatT0=    0 NMatD0=    1 NMtDS0=    0 NMtDT0=    0
 Petite list used in FoFCou.
 End of G2Drv F.D. properties file   721 does not exist.
 End of G2Drv F.D. properties file   722 does not exist.
 End of G2Drv F.D. properties file   788 does not exist.
 Leave Link 1110 at Mon Oct 14 23:36:29 2019, MaxMem=   280000000 cpu:              21.6 elap:               1.0
 (Enter /home/soft/g16/l1002.exe)
 Minotr:  Closed shell wavefunction.
          IDoAtm=111111
          Direct CPHF calculation.
          Differentiating once with respect to nuclear coordinates.
          Using symmetry in CPHF.
          Requested convergence is 1.0D-08 RMS, and 1.0D-07 maximum.
          Secondary convergence is 1.0D-12 RMS, and 1.0D-12 maximum.
          NewPWx=T KeepS1=F KeepF1=F KeepIn=T MapXYZ=F SortEE=F KeepMc=T.
         1810 words used for storage of precomputed grid.
 Keep R1 ints in memory in symmetry-blocked form, NReq=27432254.
 FoFCou: FMM=F IPFlag=           0 FMFlag=           0 FMFlg1=           0
         NFxFlg=           0 DoJE=F BraDBF=F KetDBF=F FulRan=T
         wScrn=  0.000000 ICntrl=       600 IOpCl=  0 I1Cent=           0 NGrid=           0
         NMat0=    1 NMatS0=   3403 NMatT0=    0 NMatD0=    1 NMtDS0=    0 NMtDT0=    0
 Petite list used in FoFCou.
          MDV=     280000000 using IRadAn=       1.
          Solving linear equations simultaneously, MaxMat=       0.
          There are    15 degrees of freedom in the 1st order CPHF.  IDoFFX=4 NUNeed=    15.
     12 vectors produced by pass  0 Test12= 1.05D-14 6.67D-09 XBig12= 2.74D-01 2.22D-01.
 AX will form    12 AO Fock derivatives at one time.
     12 vectors produced by pass  1 Test12= 1.05D-14 6.67D-09 XBig12= 4.58D-02 7.30D-02.
     12 vectors produced by pass  2 Test12= 1.05D-14 6.67D-09 XBig12= 2.06D-03 1.81D-02.
     12 vectors produced by pass  3 Test12= 1.05D-14 6.67D-09 XBig12= 4.76D-05 2.10D-03.
     12 vectors produced by pass  4 Test12= 1.05D-14 6.67D-09 XBig12= 2.74D-07 1.20D-04.
     12 vectors produced by pass  5 Test12= 1.05D-14 6.67D-09 XBig12= 2.09D-09 1.25D-05.
      7 vectors produced by pass  6 Test12= 1.05D-14 6.67D-09 XBig12= 4.76D-12 4.72D-07.
      2 vectors produced by pass  7 Test12= 1.05D-14 6.67D-09 XBig12= 8.42D-15 2.67D-08.
 InvSVY:  IOpt=1 It=  1 EMax= 8.88D-16
 Solved reduced A of dimension    81 with    12 vectors.
 FullF1:  Do perturbations      4 to      15.
 End of Minotr F.D. properties file   721 does not exist.
 End of Minotr F.D. properties file   722 does not exist.
 End of Minotr F.D. properties file   788 does not exist.
 Leave Link 1002 at Mon Oct 14 23:36:30 2019, MaxMem=   280000000 cpu:              23.7 elap:               1.1
 (Enter /home/soft/g16/l601.exe)
 Copying SCF densities to generalized density rwf, IOpCl= 0 IROHF=0.

 **********************************************************************

            Population analysis using the SCF density.

 **********************************************************************

 Orbital symmetries:
       Occupied  (A1) (A1) (A1) (A1) (E) (E) (A1) (A1) (A1) (A1)
                 (E) (E) (A1) (E) (E) (A1) (E) (E) (E) (E) (A1)
                 (A1) (A1) (E) (E) (A1) (E) (E) (E) (E) (A1)
       Virtual   (A1) (A1) (E) (E) (A1) (E) (E) (A1) (A1) (E) (E)
                 (A1) (E) (E) (A1) (A1) (E) (E) (E) (E) (A1) (A1)
                 (A1) (E) (E) (E) (E) (E) (E) (A1) (A1) (A1) (E)
                 (E) (E) (E) (E) (E) (A1) (A1) (A1) (E) (E) (A1)
                 (A1) (E) (E) (A1) (A1) (A1) (A1)
 The electronic state is 1-A1.
 Alpha  occ. eigenvalues -- -482.72501-101.27000 -61.68712 -56.20256 -56.20027
 Alpha  occ. eigenvalues --  -56.20027 -10.04120  -9.19310  -8.39499  -6.95176
 Alpha  occ. eigenvalues --   -6.94897  -6.94897  -6.34411  -6.33626  -6.33626
 Alpha  occ. eigenvalues --   -2.46048  -2.45804  -2.45804  -2.45181  -2.45181
 Alpha  occ. eigenvalues --   -0.66233  -0.58950  -0.45708  -0.29053  -0.29053
 Alpha  occ. eigenvalues --   -0.23568  -0.11860  -0.11860  -0.06714  -0.06714
 Alpha  occ. eigenvalues --   -0.03085
 Alpha virt. eigenvalues --    0.12731   0.14193   0.16851   0.16851   0.19246
 Alpha virt. eigenvalues --    0.21650   0.21650   0.22998   0.25798   0.26033
 Alpha virt. eigenvalues --    0.26033   0.30861   0.33458   0.33458   0.33766
 Alpha virt. eigenvalues --    0.46586   0.63677   0.63677   0.66184   0.66184
 Alpha virt. eigenvalues --    0.66692   0.72921   0.76310   0.77474   0.77474
 Alpha virt. eigenvalues --    0.81406   0.81406   0.87589   0.87589   0.92836
 Alpha virt. eigenvalues --    1.06307   1.06914   1.07792   1.07792   1.13495
 Alpha virt. eigenvalues --    1.13495   1.17883   1.17883   1.27765   1.39621
 Alpha virt. eigenvalues --    1.71918   1.89759   1.89759   1.97659   2.37356
 Alpha virt. eigenvalues --    2.47610   2.47610   4.37257   4.56156   9.08850
 Alpha virt. eigenvalues --   78.97989
          Condensed to atoms (all electrons):
               1          2          3          4          5          6
     1  C    6.687451   0.544928   0.544928   0.544928  -0.357823  -1.109525
     2  H    0.544928   0.543547  -0.021689  -0.021689  -0.090646  -0.204841
     3  H    0.544928  -0.021689   0.543547  -0.021689  -0.090646  -0.204841
     4  H    0.544928  -0.021689  -0.021689   0.543547  -0.090646  -0.204841
     5  Br  -0.357823  -0.090646  -0.090646  -0.090646  35.763343   0.231849
     6  Cl  -1.109525  -0.204841  -0.204841  -0.204841   0.231849  19.023051
 Mulliken charges:
               1
     1  C   -0.854888
     2  H    0.250390
     3  H    0.250390
     4  H    0.250390
     5  Br  -0.365430
     6  Cl  -0.530852
 Sum of Mulliken charges =  -1.00000
 Mulliken charges with hydrogens summed into heavy atoms:
               1
     1  C   -0.103718
     5  Br  -0.365430
     6  Cl  -0.530852
 APT charges:
               1
     1  C   -1.261555
     2  H    0.530150
     3  H    0.530150
     4  H    0.530150
     5  Br  -0.386643
     6  Cl  -0.942250
 Sum of APT charges =  -1.00000
 APT charges with hydrogens summed into heavy atoms:
               1
     1  C    0.328894
     5  Br  -0.386643
     6  Cl  -0.942250
 Electronic spatial extent (au):  <R**2>=            772.2593
 Charge=             -1.0000 electrons
 Dipole moment (field-independent basis, Debye):
    X=             -0.0000    Y=              0.0000    Z=              4.8917  Tot=              4.8917
 Quadrupole moment (field-independent basis, Debye-Ang):
   XX=            -43.7425   YY=            -43.7425   ZZ=            -78.5826
   XY=             -0.0000   XZ=              0.0000   YZ=             -0.0000
 Traceless Quadrupole moment (field-independent basis, Debye-Ang):
   XX=             11.6134   YY=             11.6134   ZZ=            -23.2267
   XY=             -0.0000   XZ=              0.0000   YZ=             -0.0000
 Octapole moment (field-independent basis, Debye-Ang**2):
  XXX=              0.0000  YYY=              0.7083  ZZZ=            120.8612  XYY=              0.0000
  XXY=             -0.7083  XXZ=             14.0122  XZZ=              0.0000  YZZ=              0.0000
  YYZ=             14.0122  XYZ=              0.0000
 Hexadecapole moment (field-independent basis, Debye-Ang**3):
 XXXX=            -73.8446 YYYY=            -73.8446 ZZZZ=          -1198.5856 XXXY=              0.0000
 XXXZ=              0.0000 YYYX=             -0.0000 YYYZ=             -0.7020 ZZZX=              0.0000
 ZZZY=             -0.0000 XXYY=            -24.6149 XXZZ=           -177.9219 YYZZ=           -177.9219
 XXYZ=              0.7020 YYXZ=             -0.0000 ZZXY=             -0.0000
 N-N= 2.123149345937D+02 E-N=-7.757664110866D+03  KE= 3.054959843537D+03
 Symmetry A'   KE= 2.630681142828D+03
 Symmetry A"   KE= 4.242787007092D+02
  Exact polarizability:   0.000   0.000   0.000   0.000   0.000   0.000
 Approx polarizability:  60.970  -0.000  60.970   0.000  -0.000 173.479
 No NMR shielding tensors so no spin-rotation constants.
 Leave Link  601 at Mon Oct 14 23:36:31 2019, MaxMem=   280000000 cpu:               5.3 elap:               0.3
 (Enter /home/soft/g16/l701.exe)
 ... and contract with generalized density number  0.
 Compute integral second derivatives.
 Leave Link  701 at Mon Oct 14 23:36:31 2019, MaxMem=   280000000 cpu:               3.4 elap:               0.2
 (Enter /home/soft/g16/l702.exe)
 L702 exits ... SP integral derivatives will be done elsewhere.
 Leave Link  702 at Mon Oct 14 23:36:31 2019, MaxMem=   280000000 cpu:               0.6 elap:               0.0
 (Enter /home/soft/g16/l703.exe)
 Integral derivatives from FoFJK, PRISM(SPDF).
 Compute integral second derivatives, UseDBF=F ICtDFT=           0.
 Calling FoFJK, ICntrl=    100147 FMM=F ISym2X=1 I1Cent= 0 IOpClX= 0 NMat=1 NMatS=1 NMatT=0.
 FoFJK:  IHMeth= 1 ICntrl=  100147 DoSepK=F KAlg= 0 I1Cent=           0 FoldK=F
 IRaf=         0 NMat=       1 IRICut=       1 DoRegI=T DoRafI=F ISym2E= 1 IDoP0=0 IntGTp=1.
 FoFCou: FMM=F IPFlag=           0 FMFlag=      100000 FMFlg1=         800
         NFxFlg=           0 DoJE=F BraDBF=F KetDBF=F FulRan=T
         wScrn=  0.000000 ICntrl=    100147 IOpCl=  0 I1Cent=           0 NGrid=           0
         NMat0=    1 NMatS0=      1 NMatT0=    0 NMatD0=    1 NMtDS0=    0 NMtDT0=    0
 Petite list used in FoFCou.
 Leave Link  703 at Mon Oct 14 23:36:32 2019, MaxMem=   280000000 cpu:              33.3 elap:               1.4
 (Enter /home/soft/g16/l716.exe)
 Dipole        =-1.12995415D-16 5.17212741D-18 1.92452535D+00
 Polarizability= 0.00000000D+00 0.00000000D+00 0.00000000D+00
                 0.00000000D+00 0.00000000D+00 0.00000000D+00
 ***** Axes restored to original set *****
 -------------------------------------------------------------------
 Center     Atomic                   Forces (Hartrees/Bohr)
 Number     Number              X              Y              Z
 -------------------------------------------------------------------
      1        6          -0.006650042    0.000000082    0.000000000
      2        1          -0.037334472   -0.015987585   -0.000000001
      3        1          -0.037334177    0.007994482    0.013846054
      4        1          -0.037334177    0.007994484   -0.013846053
      5       35          -0.088006306    0.000001085   -0.000000000
      6       17           0.206659174   -0.000002547   -0.000000000
 -------------------------------------------------------------------
 Cartesian Forces:  Max     0.206659174 RMS     0.055500623
 Force constants in Cartesian coordinates: 
                1             2             3             4             5 
      1  0.164142D+00
      2  0.495538D-05  0.616984D+00
      3  0.000000D+00  0.000000D+00  0.616982D+00
      4 -0.200328D-01  0.105062D+00  0.000000D+00  0.994395D-01
      5  0.104758D+00 -0.346831D+00  0.000000D+00 -0.828748D-01  0.357385D+00
      6  0.000000D+00  0.000000D+00 -0.518271D-01  0.000000D+00  0.000000D+00
      7 -0.200369D-01 -0.525341D-01 -0.909911D-01  0.671624D-03  0.185841D-02
      8 -0.523822D-01 -0.125576D+00 -0.127738D+00 -0.366922D-02 -0.936104D-02
      9 -0.907280D-01 -0.127738D+00 -0.273078D+00 -0.276749D-04  0.179881D-02
     10 -0.200369D-01 -0.525341D-01  0.909911D-01  0.671624D-03  0.185841D-02
     11 -0.523822D-01 -0.125576D+00  0.127738D+00 -0.366922D-02 -0.936104D-02
     12  0.907280D-01  0.127738D+00 -0.273078D+00  0.276745D-04 -0.179881D-02
     13 -0.671705D-01  0.000000D+00  0.000000D+00 -0.223356D-01 -0.627523D-02
     14  0.000000D+00 -0.245237D-01  0.000000D+00  0.118883D-01  0.815419D-02
     15  0.000000D+00  0.000000D+00 -0.245237D-01  0.000000D+00  0.000000D+00
     16 -0.368645D-01  0.146778D-05  0.000000D+00 -0.584143D-01 -0.193248D-01
     17  0.000000D+00  0.552300D-02  0.000000D+00 -0.267367D-01  0.135327D-04
     18  0.000000D+00  0.000000D+00  0.552341D-02  0.000000D+00  0.000000D+00
                6             7             8             9            10 
      6  0.374647D-01
      7  0.316339D-02  0.994426D-01
      8 -0.243543D-01  0.414392D-01  0.117443D+00
      9  0.366133D-02  0.717761D-01  0.138528D+00  0.277404D+00
     10 -0.316339D-02  0.671691D-03  0.181068D-02 -0.319154D-02  0.994426D-01
     11  0.243543D-01  0.181068D-02  0.101725D-01 -0.130765D-01  0.414392D-01
     12  0.366133D-02  0.319154D-02  0.130765D-01 -0.158723D-01 -0.717761D-01
     13  0.000000D+00 -0.223355D-01  0.313816D-02  0.543496D-02 -0.223355D-01
     14  0.000000D+00 -0.594370D-02  0.294105D-02  0.300975D-02 -0.594370D-02
     15  0.120330D-02 -0.102952D-01  0.300997D-02  0.641650D-02  0.102952D-01
     16  0.000000D+00 -0.584135D-01  0.966345D-02  0.167362D-01 -0.584135D-01
     17  0.000000D+00  0.133696D-01  0.438038D-02 -0.252170D-02  0.133696D-01
     18  0.583644D-02  0.231553D-01 -0.252187D-02  0.146892D-02 -0.231553D-01
               11            12            13            14            15 
     11  0.117443D+00
     12 -0.138528D+00  0.277404D+00
     13  0.313816D-02 -0.543496D-02  0.201856D+00
     14  0.294105D-02 -0.300975D-02 -0.243988D-05 -0.684187D-03
     15 -0.300997D-02  0.641650D-02  0.000000D+00  0.000000D+00 -0.684062D-03
     16  0.966345D-02 -0.167362D-01 -0.676791D-01  0.119123D-05  0.000000D+00
     17  0.438038D-02  0.252170D-02  0.132950D-05  0.111717D-01  0.000000D+00
     18  0.252187D-02  0.146892D-02  0.000000D+00  0.000000D+00  0.111715D-01
               16            17            18 
     16  0.279785D+00
     17 -0.458685D-05 -0.254691D-01
     18  0.000000D+00  0.000000D+00 -0.254694D-01
 FormGI is forming the generalized inverse of G from B-inverse, IUseBI=4.
 Force constants in internal coordinates: 
                1             2             3             4             5 
      1  0.380815D+00
      2  0.168229D-02  0.380815D+00
      3  0.168229D-02  0.168234D-02  0.380815D+00
      4  0.152853D-02  0.152835D-02  0.152835D-02  0.201856D+00
      5 -0.125089D-02 -0.125118D-02 -0.125118D-02  0.676791D-01  0.279785D+00
      6  0.672776D-03  0.672789D-03 -0.105316D-02 -0.683305D-02  0.181569D-01
      7  0.778096D-03 -0.123001D-02  0.924682D-03 -0.110478D-01  0.293565D-01
      8 -0.169232D-02  0.764430D-03  0.548002D-03  0.887650D-02 -0.235872D-01
      9 -0.987715D-02  0.502039D-02  0.523682D-02 -0.887693D-02  0.235865D-01
     10 -0.123003D-02  0.778099D-03  0.924668D-03 -0.110477D-01  0.293566D-01
     11  0.764462D-03 -0.144073D-02  0.296443D-03  0.887656D-02 -0.235870D-01
     12  0.502027D-02 -0.962572D-02  0.498518D-02 -0.887635D-02  0.235873D-01
     13  0.707015D-03  0.455421D-03 -0.164064D-02  0.111755D-01 -0.296958D-01
     14  0.507772D-02  0.482621D-02 -0.942581D-02 -0.111753D-01  0.296962D-01
     15 -0.115695D-01  0.578482D-02  0.578482D-02  0.000000D+00  0.000000D+00
     16  0.000000D+00  0.100111D-01 -0.100111D-01  0.000000D+00  0.000000D+00
     17 -0.547227D-03 -0.547257D-03  0.157357D-03  0.218994D-01 -0.581918D-01
     18  0.255786D-03  0.409847D-03 -0.772733D-03  0.250274D-02 -0.665058D-02
     19 -0.379820D-02 -0.364417D-02  0.754953D-02 -0.250287D-02  0.665038D-02
     20 -0.349596D-03  0.759445D-03 -0.463399D-03  0.125145D-02 -0.332516D-02
     21  0.389201D-02 -0.753624D-02  0.369772D-02 -0.125132D-02  0.332536D-02
     22 -0.605382D-03  0.349597D-03  0.309334D-03 -0.125130D-02  0.332542D-02
     23  0.769021D-02 -0.389207D-02 -0.385180D-02  0.125156D-02 -0.332502D-02
                6             7             8             9            10 
      6  0.111233D-01
      7 -0.279254D-02  0.202952D-01
      8 -0.815345D-02 -0.131229D-01  0.515181D-01
      9  0.106418D-01  0.158067D-01 -0.288797D-01  0.701440D-01
     10 -0.279253D-02  0.340343D-02  0.102360D-01 -0.162376D-01  0.202952D-01
     11 -0.826166D-02  0.103711D-01 -0.235576D-01  0.123714D-01 -0.131137D-01
     12  0.105336D-01 -0.161025D-01  0.123443D-01 -0.337795D-01  0.158159D-01
     13  0.108768D-01 -0.181543D-01 -0.169202D-01  0.629742D-02 -0.180284D-01
     14 -0.156370D-01  0.212018D-01  0.549513D-02 -0.261537D-01  0.213277D-01
     15  0.248830D-02  0.268381D-02  0.226385D-01  0.412644D-01 -0.600153D-02
     16 -0.430627D-02  0.537600D-02 -0.129653D-03  0.950332D-03  0.365692D-03
     17 -0.102031D-01 -0.110922D-01  0.117537D-01 -0.127696D-01 -0.110922D-01
     18  0.357110D-02 -0.510526D-02  0.713635D-02  0.292421D-02 -0.518234D-02
     19 -0.656077D-03  0.323900D-02 -0.139936D-03  0.923521D-02  0.316191D-02
     20  0.175242D-02 -0.570313D-02 -0.511466D-02 -0.553039D-02  0.603493D-03
     21 -0.361166D-03  0.219338D-02 -0.175210D-02 -0.757936D-02  0.105125D-02
     22 -0.181868D-02 -0.597872D-03 -0.122510D-01 -0.845460D-02  0.578584D-02
     23  0.294911D-03 -0.104562D-02 -0.161216D-02 -0.168146D-01 -0.211066D-02
               11            12            13            14            15 
     11  0.505703D-01
     12 -0.302190D-01  0.684134D-01
     13 -0.160084D-01  0.762775D-02  0.582344D-01
     14  0.684331D-02 -0.243869D-01 -0.392310D-01  0.774331D-01
     15 -0.111862D-01 -0.214353D-01 -0.106228D-01 -0.206585D-01  0.639028D-01
     16 -0.180750D-01 -0.336520D-01  0.167692D-01  0.341371D-01  0.820679D-03
     17  0.117979D-01 -0.127254D-01  0.883588D-02 -0.689253D-02 -0.101585D-02
     18  0.642338D-02  0.195495D-02 -0.684323D-02 -0.115957D-01  0.100606D-01
     19 -0.810942D-03  0.830790D-02 -0.479395D-02 -0.117983D-01  0.909527D-02
     20  0.115272D-01  0.749112D-02 -0.306534D-02 -0.530795D-02 -0.106450D-01
     21  0.935374D-03  0.158981D-01 -0.206674D-02 -0.543527D-02 -0.933147D-02
     22  0.510383D-02  0.553617D-02  0.377789D-02  0.628772D-02 -0.207056D-01
     23  0.174632D-02  0.759020D-02  0.272722D-02  0.636301D-02 -0.184267D-01
               16            17            18            19            20 
     16  0.628499D-01
     17  0.175803D-02  0.260813D-01
     18 -0.164221D-01  0.192616D-02  0.126773D-01
     19 -0.147516D-01 -0.311621D-02 -0.138582D-02  0.115464D-01
     20 -0.167739D-01  0.976607D-03  0.607314D-02 -0.945570D-03  0.119941D-01
     21 -0.149024D-01 -0.154458D-02 -0.942478D-03  0.553650D-02 -0.347781D-03
     22 -0.351740D-03 -0.949550D-03 -0.660415D-02  0.440249D-03  0.592095D-02
     23 -0.150822D-03  0.157163D-02  0.443341D-03 -0.600995D-02  0.597788D-03
               21            22            23 
     21  0.106561D-01
     22  0.594697D-03  0.125251D-01
     23  0.511964D-02  0.154448D-03  0.111296D-01
 Leave Link  716 at Mon Oct 14 23:36:32 2019, MaxMem=   280000000 cpu:               1.1 elap:               0.1
 (Enter /home/soft/g16/l103.exe)

 GradGradGradGradGradGradGradGradGradGradGradGradGradGradGradGradGradGrad
 Berny optimization.
 Red2BG is reusing G-inverse.
 Internal  Forces:  Max     0.206659174 RMS     0.048733595
 Step   1 in ReCalcFC= 3 IGetFC= 4 recover analytic Hessian.
 Search for a local minimum.
 Step number   1 out of a maximum of   33
 All quantities printed in internal units (Hartrees-Bohrs-Radians)
 RMS Force = .48734D-01 SwitMx=.10000D-02 MixMth= 1
 Mixed Optimization -- RFO/linear search
 Second derivative matrix not updated -- analytic derivatives used.
 ITU=  0
     Eigenvalues ---    0.01187   0.01990   0.02644   0.10283   0.11028
     Eigenvalues ---    0.15339   0.16133   0.20389   0.33860   0.38127
     Eigenvalues ---    0.38144   0.38424
 RFO step:  Lambda=-1.19364691D-01 EMin= 1.18727255D-02
 Linear search not attempted -- first point.
 Maximum step size (   0.300) exceeded in Quadratic search.
    -- Step size scaled by   0.596
 Iteration  1 RMS(Cart)=  0.05080831 RMS(Int)=  0.01422970
 Iteration  2 RMS(Cart)=  0.01299838 RMS(Int)=  0.00029576
 Iteration  3 RMS(Cart)=  0.00000003 RMS(Int)=  0.00029576
 ITry= 1 IFail=0 DXMaxC= 2.64D-01 DCOld= 1.00D+10 DXMaxT= 3.00D-01 DXLimC= 3.00D+00 Rises=F
 ClnCor:  largest displacement from symmetrization is 3.09D-03 for atom     3.
 Variable       Old X    -DE/DX   Delta X   Delta X   Delta X     New X
                                 (Linear)    (Quad)   (Total)
    R1        2.02201   0.00263   0.00000   0.00339   0.00295   2.02495
    R2        2.02201   0.00263   0.00000   0.00339   0.00295   2.02495
    R3        2.02201   0.00263   0.00000   0.00322   0.00295   2.02495
    R4        3.60938   0.08801   0.00000   0.11649   0.11649   3.72587
    R5        3.76000   0.20666   0.00000   0.26816   0.26816   4.02816
    A1        1.91063   0.01196   0.00000   0.01878   0.02134   1.93197
    A2        1.91063   0.01934   0.00000   0.02393   0.02134   1.93197
    A3        1.91063  -0.01554   0.00000  -0.02197  -0.02185   1.88878
    A4        1.23096   0.01554   0.00000   0.02209   0.02185   1.25281
    A5        1.91063   0.01934   0.00000   0.02393   0.02134   1.93197
    A6        1.91063  -0.01554   0.00000  -0.02197  -0.02185   1.88878
    A7        1.23096   0.01554   0.00000   0.02208   0.02185   1.25281
    A8        1.91063  -0.01956   0.00000  -0.02270  -0.02185   1.88878
    A9        1.23096   0.01956   0.00000   0.02248   0.02185   1.25281
   A10        3.14159   0.00000   0.00000   0.00012   0.00000   3.14159
   A11        3.14159  -0.00000   0.00000  -0.00021   0.00000   3.14159
    D1       -2.09439  -0.03834   0.00000  -0.05232  -0.05456  -2.14896
    D2        2.09440  -0.00438   0.00000  -0.00391   0.00000   2.09440
    D3       -2.09440   0.00438   0.00000   0.00405   0.00000  -2.09440
    D4       -2.09440  -0.00219   0.00000  -0.00195   0.00000  -2.09440
    D5        2.09440   0.00219   0.00000   0.00202   0.00000   2.09440
    D6        2.09440   0.00219   0.00000   0.00195   0.00000   2.09440
    D7       -2.09440  -0.00219   0.00000  -0.00202  -0.00000  -2.09440
         Item               Value     Threshold  Converged?
 Maximum Force            0.206659     0.000450     NO 
 RMS     Force            0.048734     0.000300     NO 
 Maximum Displacement     0.263536     0.001800     NO 
 RMS     Displacement     0.062980     0.001200     NO 
 Predicted change in Energy=-5.544340D-02
 Lowest energy point so far.  Saving SCF results.
 Step   1 in ReCalcFC= 3 IGetFC= 0 compute gradient.
 GradGradGradGradGradGradGradGradGradGradGradGradGradGradGradGradGradGrad

 Leave Link  103 at Mon Oct 14 23:36:33 2019, MaxMem=   280000000 cpu:               5.3 elap:               0.3
 (Enter /home/soft/g16/l202.exe)
                          Input orientation:                          
 ---------------------------------------------------------------------
 Center     Atomic      Atomic             Coordinates (Angstroms)
 Number     Number       Type             X           Y           Z
 ---------------------------------------------------------------------
      1          6           0       -1.087717   -1.085271    0.000000
      2          1           0       -0.752704   -2.103114   -0.000000
      3          1           0       -0.752685   -0.576356    0.881474
      4          1           0       -0.752685   -0.576356   -0.881474
      5         35           0       -3.059361   -1.085247    0.000000
      6         17           0        1.043892   -1.085298   -0.000000
 ---------------------------------------------------------------------
                    Distance matrix (angstroms):
                    1          2          3          4          5
     1  C    0.000000
     2  H    1.071559   0.000000
     3  H    1.071559   1.762949   0.000000
     4  H    1.071559   1.762949   1.762949   0.000000
     5  Br   1.971644   2.521254   2.521254   2.521254   0.000000
     6  Cl   2.131608   2.064874   2.064874   2.064874   4.103253
                    6
     6  Cl   0.000000
 Stoichiometry    CH3BrCl(1-)
 Framework group  C3V[C3(ClCBr),3SGV(H)]
 Deg. of freedom     4
 Full point group                 C3V     NOp   6
 RotChk:  IX=0 Diff= 2.99D-16
 Largest Abelian subgroup         CS      NOp   2
 Largest concise Abelian subgroup CS      NOp   2
                         Standard orientation:                         
 ---------------------------------------------------------------------
 Center     Atomic      Atomic             Coordinates (Angstroms)
 Number     Number       Type             X           Y           Z
 ---------------------------------------------------------------------
      1          6           0       -0.000000   -0.000000   -0.520740
      2          1           0        0.000000    1.017839   -0.855766
      3          1           0       -0.881474   -0.508919   -0.855766
      4          1           0        0.881474   -0.508919   -0.855766
      5         35           0        0.000000    0.000000    1.450905
      6         17           0       -0.000000   -0.000000   -2.652348
 ---------------------------------------------------------------------
 Rotational constants (GHZ):         161.3439795           1.2093961           1.2093961
 Leave Link  202 at Mon Oct 14 23:36:33 2019, MaxMem=   280000000 cpu:               1.5 elap:               0.1
 (Enter /home/soft/g16/l301.exe)
 Standard basis: 6-31+G(d) (6D, 7F)
 Ernie: Thresh=  0.10000D-02 Tol=  0.10000D-05 Strict=F.
 There are    60 symmetry adapted cartesian basis functions of A'  symmetry.
 There are    22 symmetry adapted cartesian basis functions of A"  symmetry.
 There are    60 symmetry adapted basis functions of A'  symmetry.
 There are    22 symmetry adapted basis functions of A"  symmetry.
    82 basis functions,   187 primitive gaussians,    82 cartesian basis functions
    31 alpha electrons       31 beta electrons
       nuclear repulsion energy       203.3165527922 Hartrees.
 IExCor=  402 DFT=T Ex+Corr=B3LYP ExCW=0 ScaHFX=  0.200000
 ScaDFX=  0.800000  0.720000  1.000000  0.810000 ScalE2=  1.000000  1.000000
 IRadAn=      5 IRanWt=     -1 IRanGd=            0 ICorTp=0 IEmpDi=  4
 NAtoms=    6 NActive=    6 NUniq=    4 SFac= 2.25D+00 NAtFMM=   60 NAOKFM=F Big=F
 Integral buffers will be    131072 words long.
 Raffenetti 2 integral format.
 Two-electron integral symmetry is turned on.
 Leave Link  301 at Mon Oct 14 23:36:33 2019, MaxMem=   280000000 cpu:               1.7 elap:               0.1
 (Enter /home/soft/g16/l302.exe)
 NPDir=0 NMtPBC=     1 NCelOv=     1 NCel=       1 NClECP=     1 NCelD=      1
         NCelK=      1 NCelE2=     1 NClLst=     1 CellRange=     0.0.
 One-electron integrals computed using PRISM.
 One-electron integral symmetry used in STVInt
 NBasis=    82 RedAO= T EigKep=  6.10D-04  NBF=    60    22
 NBsUse=    82 1.00D-06 EigRej= -1.00D+00 NBFU=    60    22
 Precomputing XC quadrature grid using
 IXCGrd= 4 IRadAn=           5 IRanWt=          -1 IRanGd=           0 AccXCQ= 0.00D+00.
 Generated NRdTot=       0 NPtTot=           0 NUsed=           0 NTot=          32
 NSgBfM=    82    82    82    82    82 MxSgAt=     6 MxSgA2=     6.
 Leave Link  302 at Mon Oct 14 23:36:33 2019, MaxMem=   280000000 cpu:               3.1 elap:               0.2
 (Enter /home/soft/g16/l303.exe)
 DipDrv:  MaxL=1.
 Leave Link  303 at Mon Oct 14 23:36:33 2019, MaxMem=   280000000 cpu:               0.5 elap:               0.0
 (Enter /home/soft/g16/l401.exe)
 Initial guess from the checkpoint file:  "P_6-31+gs.chk"
 B after Tr=    -0.000000    0.000000    0.000000
         Rot=    1.000000   -0.000000    0.000000    0.000000 Ang=   0.00 deg.
 Guess basis will be translated and rotated to current coordinates.
 JPrj=2 DoOrth=T DoCkMO=T.
 Initial guess orbital symmetries:
       Occupied  (A1) (A1) (A1) (A1) (E) (E) (A1) (A1) (A1) (A1)
                 (E) (E) (A1) (E) (E) (A1) (E) (E) (E) (E) (A1)
                 (A1) (A1) (E) (E) (A1) (E) (E) (E) (E) (A1)
       Virtual   (A1) (A1) (E) (E) (A1) (E) (E) (A1) (A1) (E) (E)
                 (A1) (E) (E) (A1) (A1) (E) (E) (E) (E) (A1) (A1)
                 (A1) (E) (E) (E) (E) (E) (E) (A1) (A1) (A1) (E)
                 (E) (E) (E) (E) (E) (A1) (A1) (A1) (E) (E) (A1)
                 (A1) (E) (E) (A1) (A1) (A1) (A1)
 The electronic state of the initial guess is 1-A1.
 Generating alternative initial guess.
 ExpMin= 3.50D-02 ExpMax= 5.74D+05 ExpMxC= 5.74D+03 IAcc=3 IRadAn=         5 AccDes= 0.00D+00
 Harris functional with IExCor=  402 and IRadAn=       5 diagonalized for initial guess.
 HarFok:  IExCor=  402 AccDes= 0.00D+00 IRadAn=         5 IDoV= 1 UseB2=F ITyADJ=14
 ICtDFT=  3500011 ScaDFX=  1.000000  1.000000  1.000000  1.000000
 FoFCou: FMM=F IPFlag=           0 FMFlag=      100000 FMFlg1=           0
         NFxFlg=           0 DoJE=T BraDBF=F KetDBF=T FulRan=T
         wScrn=  0.000000 ICntrl=       500 IOpCl=  0 I1Cent=   200000004 NGrid=           0
         NMat0=    1 NMatS0=      1 NMatT0=    0 NMatD0=    1 NMtDS0=    0 NMtDT0=    0
 Petite list used in FoFCou.
 Harris En= -3072.03525155897    
 Leave Link  401 at Mon Oct 14 23:36:33 2019, MaxMem=   280000000 cpu:               5.1 elap:               0.2
 (Enter /home/soft/g16/l502.exe)
 Keep R1 ints in memory in symmetry-blocked form, NReq=27510814.
 FoFCou: FMM=F IPFlag=           0 FMFlag=           0 FMFlg1=           0
         NFxFlg=           0 DoJE=F BraDBF=F KetDBF=F FulRan=T
         wScrn=  0.000000 ICntrl=       600 IOpCl=  0 I1Cent=           0 NGrid=           0
         NMat0=    1 NMatS0=   3403 NMatT0=    0 NMatD0=    1 NMtDS0=    0 NMtDT0=    0
 Petite list used in FoFCou.
 Closed shell SCF:
 Using DIIS extrapolation, IDIIS=  1040.
 NGot=   280000000 LenX=   276933098 LenY=   276925933
 Requested convergence on RMS density matrix=1.00D-08 within 128 cycles.
 Requested convergence on MAX density matrix=1.00D-06.
 Requested convergence on             energy=1.00D-06.
 No special actions if energy rises.

 Cycle   1  Pass 1  IDiag  1:
 E= -3071.84576850498    
 DIIS: error= 8.44D-02 at cycle   1 NSaved=   1.
 NSaved= 1 IEnMin= 1 EnMin= -3071.84576850498     IErMin= 1 ErrMin= 8.44D-02
 ErrMax= 8.44D-02  0.00D+00 EMaxC= 1.00D-01 BMatC= 1.92D-01 BMatP= 1.92D-01
 IDIUse=3 WtCom= 1.56D-01 WtEn= 8.44D-01
 Coeff-Com:  0.100D+01
 Coeff-En:   0.100D+01
 Coeff:      0.100D+01
 Recover alternate guess density for next cycle.
 RMSDP=1.17D-02 MaxDP=1.47D-01              OVMax= 0.00D+00

 Cycle   2  Pass 1  IDiag  1:
 E= -3071.75799430518     Delta-E=        0.087774199799 Rises=F Damp=F
 Switch densities from cycles 1 and 2 for lowest energy.
 DIIS: error= 1.52D-01 at cycle   2 NSaved=   2.
 NSaved= 2 IEnMin= 1 EnMin= -3071.84576850498     IErMin= 1 ErrMin= 8.44D-02
 ErrMax= 1.52D-01  0.00D+00 EMaxC= 1.00D+00 BMatC= 4.42D-01 BMatP= 1.92D-01
 IDIUse=1 WtCom= 1.00D+00 WtEn= 0.00D+00
 Coeff-Com:  0.697D+00 0.303D+00
 Coeff:      0.697D+00 0.303D+00
 Gap=     0.203 Goal=   None    Shift=    0.000
 RMSDP=3.20D-03 MaxDP=5.43D-02 DE= 8.78D-02 OVMax= 4.68D-02

 Cycle   3  Pass 1  IDiag  1:
 E= -3071.84226617028     Delta-E=       -0.084271865102 Rises=F Damp=F
 DIIS: error= 1.51D-02 at cycle   3 NSaved=   3.
 NSaved= 3 IEnMin= 1 EnMin= -3071.84576850498     IErMin= 3 ErrMin= 1.51D-02
 ErrMax= 1.51D-02  0.00D+00 EMaxC= 1.00D+00 BMatC= 1.22D-02 BMatP= 1.92D-01
 IDIUse=1 WtCom= 1.00D+00 WtEn= 0.00D+00
 Coeff-Com:  0.431D-01 0.805D-01 0.876D+00
 Coeff:      0.431D-01 0.805D-01 0.876D+00
 Gap=     0.183 Goal=   None    Shift=    0.000
 RMSDP=5.22D-03 MaxDP=8.02D-02 DE=-8.43D-02 OVMax= 8.11D-02

 Cycle   4  Pass 1  IDiag  1:
 E= -3071.84123791755     Delta-E=        0.001028252734 Rises=F Damp=F
 DIIS: error= 1.68D-02 at cycle   4 NSaved=   4.
 NSaved= 4 IEnMin= 1 EnMin= -3071.84576850498     IErMin= 3 ErrMin= 1.51D-02
 ErrMax= 1.68D-02  0.00D+00 EMaxC= 1.00D+00 BMatC= 1.34D-02 BMatP= 1.22D-02
 IDIUse=1 WtCom= 1.00D+00 WtEn= 0.00D+00
 Coeff-Com: -0.193D-03 0.820D-02 0.517D+00 0.475D+00
 Coeff:     -0.193D-03 0.820D-02 0.517D+00 0.475D+00
 Gap=     0.175 Goal=   None    Shift=    0.000
 RMSDP=2.25D-03 MaxDP=3.44D-02 DE= 1.03D-03 OVMax= 4.70D-02

 Cycle   5  Pass 1  IDiag  1:
 E= -3071.85527430924     Delta-E=       -0.014036391689 Rises=F Damp=F
 DIIS: error= 4.96D-04 at cycle   5 NSaved=   5.
 NSaved= 5 IEnMin= 5 EnMin= -3071.85527430924     IErMin= 5 ErrMin= 4.96D-04
 ErrMax= 4.96D-04  0.00D+00 EMaxC= 1.00D+00 BMatC= 4.11D-05 BMatP= 1.22D-02
 IDIUse=1 WtCom= 1.00D+00 WtEn= 0.00D+00
 Coeff-Com: -0.219D-03 0.287D-02 0.197D+00 0.185D+00 0.616D+00
 Coeff:     -0.219D-03 0.287D-02 0.197D+00 0.185D+00 0.616D+00
 Gap=     0.173 Goal=   None    Shift=    0.000
 RMSDP=1.50D-04 MaxDP=3.09D-03 DE=-1.40D-02 OVMax= 2.17D-03

 Cycle   6  Pass 1  IDiag  1:
 E= -3071.85532595492     Delta-E=       -0.000051645685 Rises=F Damp=F
 DIIS: error= 1.32D-04 at cycle   6 NSaved=   6.
 NSaved= 6 IEnMin= 6 EnMin= -3071.85532595492     IErMin= 6 ErrMin= 1.32D-04
 ErrMax= 1.32D-04  0.00D+00 EMaxC= 1.00D+00 BMatC= 2.20D-06 BMatP= 4.11D-05
 IDIUse=1 WtCom= 1.00D+00 WtEn= 0.00D+00
 Coeff-Com: -0.284D-04 0.999D-05 0.270D-01 0.246D-01 0.197D+00 0.752D+00
 Coeff:     -0.284D-04 0.999D-05 0.270D-01 0.246D-01 0.197D+00 0.752D+00
 Gap=     0.173 Goal=   None    Shift=    0.000
 RMSDP=6.32D-05 MaxDP=1.04D-03 DE=-5.16D-05 OVMax= 7.52D-04

 Cycle   7  Pass 1  IDiag  1:
 E= -3071.85532790691     Delta-E=       -0.000001951988 Rises=F Damp=F
 DIIS: error= 2.86D-05 at cycle   7 NSaved=   7.
 NSaved= 7 IEnMin= 7 EnMin= -3071.85532790691     IErMin= 7 ErrMin= 2.86D-05
 ErrMax= 2.86D-05  0.00D+00 EMaxC= 1.00D+00 BMatC= 1.81D-07 BMatP= 2.20D-06
 IDIUse=1 WtCom= 1.00D+00 WtEn= 0.00D+00
 Coeff-Com: -0.927D-05-0.607D-04 0.575D-02 0.461D-02 0.617D-01 0.311D+00
 Coeff-Com:  0.617D+00
 Coeff:     -0.927D-05-0.607D-04 0.575D-02 0.461D-02 0.617D-01 0.311D+00
 Coeff:      0.617D+00
 Gap=     0.173 Goal=   None    Shift=    0.000
 RMSDP=1.64D-05 MaxDP=2.71D-04 DE=-1.95D-06 OVMax= 3.30D-04

 Cycle   8  Pass 1  IDiag  1:
 E= -3071.85532812725     Delta-E=       -0.000000220339 Rises=F Damp=F
 DIIS: error= 1.41D-05 at cycle   8 NSaved=   8.
 NSaved= 8 IEnMin= 8 EnMin= -3071.85532812725     IErMin= 8 ErrMin= 1.41D-05
 ErrMax= 1.41D-05  0.00D+00 EMaxC= 1.00D+00 BMatC= 3.00D-08 BMatP= 1.81D-07
 IDIUse=1 WtCom= 1.00D+00 WtEn= 0.00D+00
 Coeff-Com: -0.258D-05-0.205D-04-0.969D-03-0.124D-02 0.918D-02 0.739D-01
 Coeff-Com:  0.312D+00 0.607D+00
 Coeff:     -0.258D-05-0.205D-04-0.969D-03-0.124D-02 0.918D-02 0.739D-01
 Coeff:      0.312D+00 0.607D+00
 Gap=     0.173 Goal=   None    Shift=    0.000
 RMSDP=6.22D-06 MaxDP=9.25D-05 DE=-2.20D-07 OVMax= 1.32D-04

 Cycle   9  Pass 1  IDiag  1:
 E= -3071.85532816434     Delta-E=       -0.000000037091 Rises=F Damp=F
 DIIS: error= 3.20D-06 at cycle   9 NSaved=   9.
 NSaved= 9 IEnMin= 9 EnMin= -3071.85532816434     IErMin= 9 ErrMin= 3.20D-06
 ErrMax= 3.20D-06  0.00D+00 EMaxC= 1.00D+00 BMatC= 1.51D-09 BMatP= 3.00D-08
 IDIUse=1 WtCom= 1.00D+00 WtEn= 0.00D+00
 Coeff-Com: -0.143D-06-0.376D-05-0.854D-03-0.799D-03-0.283D-02-0.586D-02
 Coeff-Com:  0.632D-01 0.246D+00 0.701D+00
 Coeff:     -0.143D-06-0.376D-05-0.854D-03-0.799D-03-0.283D-02-0.586D-02
 Coeff:      0.632D-01 0.246D+00 0.701D+00
 Gap=     0.173 Goal=   None    Shift=    0.000
 RMSDP=1.96D-06 MaxDP=3.11D-05 DE=-3.71D-08 OVMax= 2.21D-05

 Cycle  10  Pass 1  IDiag  1:
 E= -3071.85532816642     Delta-E=       -0.000000002080 Rises=F Damp=F
 DIIS: error= 3.36D-07 at cycle  10 NSaved=  10.
 NSaved=10 IEnMin=10 EnMin= -3071.85532816642     IErMin=10 ErrMin= 3.36D-07
 ErrMax= 3.36D-07  0.00D+00 EMaxC= 1.00D+00 BMatC= 1.08D-11 BMatP= 1.51D-09
 IDIUse=1 WtCom= 1.00D+00 WtEn= 0.00D+00
 Coeff-Com:  0.959D-07-0.145D-06-0.698D-04-0.474D-04-0.702D-03-0.284D-02
 Coeff-Com: -0.181D-02 0.178D-02 0.748D-01 0.929D+00
 Coeff:      0.959D-07-0.145D-06-0.698D-04-0.474D-04-0.702D-03-0.284D-02
 Coeff:     -0.181D-02 0.178D-02 0.748D-01 0.929D+00
 Gap=     0.173 Goal=   None    Shift=    0.000
 RMSDP=3.81D-07 MaxDP=7.10D-06 DE=-2.08D-09 OVMax= 4.63D-06

 Cycle  11  Pass 1  IDiag  1:
 E= -3071.85532816644     Delta-E=       -0.000000000020 Rises=F Damp=F
 DIIS: error= 1.06D-07 at cycle  11 NSaved=  11.
 NSaved=11 IEnMin=11 EnMin= -3071.85532816644     IErMin=11 ErrMin= 1.06D-07
 ErrMax= 1.06D-07  0.00D+00 EMaxC= 1.00D+00 BMatC= 8.60D-13 BMatP= 1.08D-11
 IDIUse=1 WtCom= 1.00D+00 WtEn= 0.00D+00
 Coeff-Com:  0.343D-08 0.444D-07 0.587D-05 0.991D-05-0.141D-03-0.614D-03
 Coeff-Com: -0.263D-02-0.838D-02-0.825D-04 0.286D+00 0.726D+00
 Coeff:      0.343D-08 0.444D-07 0.587D-05 0.991D-05-0.141D-03-0.614D-03
 Coeff:     -0.263D-02-0.838D-02-0.825D-04 0.286D+00 0.726D+00
 Gap=     0.173 Goal=   None    Shift=    0.000
 RMSDP=3.45D-08 MaxDP=6.67D-07 DE=-2.00D-11 OVMax= 7.17D-07

 Cycle  12  Pass 1  IDiag  1:
 E= -3071.85532816645     Delta-E=       -0.000000000004 Rises=F Damp=F
 DIIS: error= 1.51D-08 at cycle  12 NSaved=  12.
 NSaved=12 IEnMin=12 EnMin= -3071.85532816645     IErMin=12 ErrMin= 1.51D-08
 ErrMax= 1.51D-08  0.00D+00 EMaxC= 1.00D+00 BMatC= 2.67D-14 BMatP= 8.60D-13
 IDIUse=1 WtCom= 1.00D+00 WtEn= 0.00D+00
 Coeff-Com:  0.129D-08 0.240D-07 0.442D-05 0.397D-05-0.156D-04-0.568D-04
 Coeff-Com: -0.646D-03-0.211D-02-0.327D-02 0.288D-01 0.171D+00 0.806D+00
 Coeff:      0.129D-08 0.240D-07 0.442D-05 0.397D-05-0.156D-04-0.568D-04
 Coeff:     -0.646D-03-0.211D-02-0.327D-02 0.288D-01 0.171D+00 0.806D+00
 Gap=     0.173 Goal=   None    Shift=    0.000
 RMSDP=1.01D-08 MaxDP=2.17D-07 DE=-4.09D-12 OVMax= 1.19D-07

 Cycle  13  Pass 1  IDiag  1:
 E= -3071.85532816645     Delta-E=       -0.000000000000 Rises=F Damp=F
 DIIS: error= 1.57D-09 at cycle  13 NSaved=  13.
 NSaved=13 IEnMin=13 EnMin= -3071.85532816645     IErMin=13 ErrMin= 1.57D-09
 ErrMax= 1.57D-09  0.00D+00 EMaxC= 1.00D+00 BMatC= 2.21D-16 BMatP= 2.67D-14
 IDIUse=1 WtCom= 1.00D+00 WtEn= 0.00D+00
 Coeff-Com: -0.215D-09 0.260D-08 0.371D-06 0.165D-06 0.146D-05 0.966D-05
 Coeff-Com:  0.283D-04 0.503D-04-0.141D-03-0.462D-02 0.667D-05 0.719D-01
 Coeff-Com:  0.933D+00
 Coeff:     -0.215D-09 0.260D-08 0.371D-06 0.165D-06 0.146D-05 0.966D-05
 Coeff:      0.283D-04 0.503D-04-0.141D-03-0.462D-02 0.667D-05 0.719D-01
 Coeff:      0.933D+00
 Gap=     0.173 Goal=   None    Shift=    0.000
 RMSDP=1.20D-09 MaxDP=2.75D-08 DE=-4.55D-13 OVMax= 1.62D-08

 SCF Done:  E(RB3LYP) =  -3071.85532817     A.U. after   13 cycles
            NFock= 13  Conv=0.12D-08     -V/T= 2.0056
 KE= 3.054622046256D+03 PE=-7.739279827309D+03 EE= 1.409485900095D+03
 Leave Link  502 at Mon Oct 14 23:36:34 2019, MaxMem=   280000000 cpu:              15.2 elap:               0.7
 (Enter /home/soft/g16/l701.exe)
 ... and contract with generalized density number  0.
 Compute integral first derivatives.
 Leave Link  701 at Mon Oct 14 23:36:34 2019, MaxMem=   280000000 cpu:               2.4 elap:               0.1
 (Enter /home/soft/g16/l702.exe)
 L702 exits ... SP integral derivatives will be done elsewhere.
 Leave Link  702 at Mon Oct 14 23:36:34 2019, MaxMem=   280000000 cpu:               0.9 elap:               0.1
 (Enter /home/soft/g16/l703.exe)
 Integral derivatives from FoFJK, PRISM(SPDF).
 Compute integral first derivatives, UseDBF=F ICtDFT=           0.
 Calling FoFJK, ICntrl=      2127 FMM=F ISym2X=1 I1Cent= 0 IOpClX= 0 NMat=1 NMatS=1 NMatT=0.
 FoFJK:  IHMeth= 1 ICntrl=    2127 DoSepK=F KAlg= 0 I1Cent=           0 FoldK=F
 IRaf=         0 NMat=       1 IRICut=       1 DoRegI=T DoRafI=F ISym2E= 1 IDoP0=0 IntGTp=1.
 FoFCou: FMM=F IPFlag=           0 FMFlag=      100000 FMFlg1=         800
         NFxFlg=           0 DoJE=F BraDBF=F KetDBF=F FulRan=T
         wScrn=  0.000000 ICntrl=      2127 IOpCl=  0 I1Cent=           0 NGrid=           0
         NMat0=    1 NMatS0=      1 NMatT0=    0 NMatD0=    1 NMtDS0=    0 NMtDT0=    0
 Petite list used in FoFCou.
 Leave Link  703 at Mon Oct 14 23:36:35 2019, MaxMem=   280000000 cpu:              16.3 elap:               0.7
 (Enter /home/soft/g16/l716.exe)
 Dipole        =-4.44087191D-16-3.47554559D-17 2.25569345D+00
 ***** Axes restored to original set *****
 -------------------------------------------------------------------
 Center     Atomic                   Forces (Hartrees/Bohr)
 Number     Number              X              Y              Z
 -------------------------------------------------------------------
      1        6          -0.003332293    0.000000041    0.000000000
      2        1          -0.024131511   -0.010375740   -0.000000001
      3        1          -0.024131319    0.005188316    0.008985912
      4        1          -0.024131319    0.005188317   -0.008985912
      5       35          -0.054072135    0.000000666    0.000000000
      6       17           0.129798577   -0.000001600   -0.000000000
 -------------------------------------------------------------------
 Cartesian Forces:  Max     0.129798577 RMS     0.034842924
 Leave Link  716 at Mon Oct 14 23:36:35 2019, MaxMem=   280000000 cpu:               0.7 elap:               0.0
 (Enter /home/soft/g16/l103.exe)

 GradGradGradGradGradGradGradGradGradGradGradGradGradGradGradGradGradGrad
 Berny optimization.
 Using GEDIIS/GDIIS optimizer.
 FormGI is forming the generalized inverse of G from B-inverse, IUseBI=4.
 Internal  Forces:  Max     0.129798577 RMS     0.030573078
 Step   2 in ReCalcFC= 3 IGetFC= 0 update Hessian.
 Search for a local minimum.
 Step number   2 out of a maximum of   33
 All quantities printed in internal units (Hartrees-Bohrs-Radians)
 RMS Force = .30573D-01 SwitMx=.10000D-02 MixMth= 1
 Mixed Optimization -- RFO/linear search
 Update second derivatives using D2CorX and points    1    2
 DE= -5.71D-02 DEPred=-5.54D-02 R= 1.03D+00
 TightC=F SS=  1.41D+00  RLast= 3.04D-01 DXNew= 5.0454D-01 9.1346D-01
 Trust test= 1.03D+00 RLast= 3.04D-01 DXMaxT set to 5.05D-01
 ITU=  1  0
 Use linear search instead of GDIIS.
 Linear search step of   0.599 exceeds DXMaxT=   0.505 but not scaled.
 Quartic linear search produced a step of  2.00000.
 Iteration  1 RMS(Cart)=  0.06362839 RMS(Int)=  0.07055110
 Iteration  2 RMS(Cart)=  0.03984618 RMS(Int)=  0.02853193
 Iteration  3 RMS(Cart)=  0.02600120 RMS(Int)=  0.00167470
 Iteration  4 RMS(Cart)=  0.00000005 RMS(Int)=  0.00167470
 ITry= 1 IFail=0 DXMaxC= 5.27D-01 DCOld= 1.00D+10 DXMaxT= 5.05D-01 DXLimC= 3.00D+00 Rises=F
 ClnCor:  largest displacement from symmetrization is 6.61D-04 for atom     4.
 Variable       Old X    -DE/DX   Delta X   Delta X   Delta X     New X
                                 (Linear)    (Quad)   (Total)
    R1        2.02495   0.00231   0.00589   0.00000   0.00584   2.03079
    R2        2.02495   0.00231   0.00589   0.00000   0.00584   2.03079
    R3        2.02495   0.00231   0.00589   0.00000   0.00584   2.03079
    R4        3.72587   0.05407   0.23298   0.00000   0.23298   3.95885
    R5        4.02816   0.12980   0.53631   0.00000   0.53631   4.56447
    A1        1.93197   0.00713   0.04267   0.00000   0.03889   1.97086
    A2        1.93197   0.01181   0.04267   0.00000   0.03889   1.97086
    A3        1.88878  -0.00996  -0.04371   0.00000  -0.04309   1.84569
    A4        1.25281   0.00996   0.04371   0.00000   0.04309   1.29590
    A5        1.93197   0.01181   0.04267   0.00000   0.03889   1.97086
    A6        1.88878  -0.00996  -0.04371   0.00000  -0.04309   1.84569
    A7        1.25281   0.00996   0.04371   0.00000   0.04309   1.29590
    A8        1.88878  -0.01237  -0.04371   0.00000  -0.04309   1.84569
    A9        1.25281   0.01237   0.04371   0.00000   0.04309   1.29590
   A10        3.14159   0.00000   0.00000   0.00000   0.00000   3.14159
   A11        3.14159   0.00000   0.00000   0.00000   0.00000   3.14159
    D1       -2.14896  -0.02558  -0.10913   0.00000  -0.11366  -2.26262
    D2        2.09440  -0.00282   0.00000   0.00000   0.00000   2.09440
    D3       -2.09440   0.00282   0.00000   0.00000   0.00000  -2.09440
    D4       -2.09440  -0.00141   0.00000   0.00000   0.00000  -2.09440
    D5        2.09440   0.00141   0.00000   0.00000   0.00000   2.09440
    D6        2.09440   0.00141   0.00000   0.00000   0.00000   2.09440
    D7       -2.09440  -0.00141  -0.00000   0.00000   0.00000  -2.09440
         Item               Value     Threshold  Converged?
 Maximum Force            0.129799     0.000450     NO 
 RMS     Force            0.030573     0.000300     NO 
 Maximum Displacement     0.526785     0.001800     NO 
 RMS     Displacement     0.125865     0.001200     NO 
 Predicted change in Energy=-3.623861D-02
 Lowest energy point so far.  Saving SCF results.
 Step   2 in ReCalcFC= 3 IGetFC= 0 compute gradient.
 GradGradGradGradGradGradGradGradGradGradGradGradGradGradGradGradGradGrad

 Leave Link  103 at Mon Oct 14 23:36:35 2019, MaxMem=   280000000 cpu:               2.0 elap:               0.1
 (Enter /home/soft/g16/l202.exe)
                          Input orientation:                          
 ---------------------------------------------------------------------
 Center     Atomic      Atomic             Coordinates (Angstroms)
 Number     Number       Type             X           Y           Z
 ---------------------------------------------------------------------
      1          6           0       -1.092759   -1.085271    0.000000
      2          1           0       -0.801066   -2.119575   -0.000000
      3          1           0       -0.801047   -0.568125    0.895730
      4          1           0       -0.801047   -0.568125   -0.895730
      5         35           0       -3.187692   -1.085245    0.000000
      6         17           0        1.322654   -1.085301    0.000000
 ---------------------------------------------------------------------
                    Distance matrix (angstroms):
                    1          2          3          4          5
     1  C    0.000000
     2  H    1.074648   0.000000
     3  H    1.074648   1.791460   0.000000
     4  H    1.074648   1.791460   1.791460   0.000000
     5  Br   2.094933   2.601120   2.601120   2.601120   0.000000
     6  Cl   2.415414   2.362183   2.362183   2.362183   4.510347
                    6
     6  Cl   0.000000
 Stoichiometry    CH3BrCl(1-)
 Framework group  C3V[C3(ClCBr),3SGV(H)]
 Deg. of freedom     4
 Full point group                 C3V     NOp   6
 RotChk:  IX=0 Diff= 3.96D-16
 Largest Abelian subgroup         CS      NOp   2
 Largest concise Abelian subgroup CS      NOp   2
                         Standard orientation:                         
 ---------------------------------------------------------------------
 Center     Atomic      Atomic             Coordinates (Angstroms)
 Number     Number       Type             X           Y           Z
 ---------------------------------------------------------------------
      1          6           0        0.000000   -0.000000   -0.514517
      2          1           0       -0.000000    1.034300   -0.806223
      3          1           0       -0.895730   -0.517150   -0.806223
      4          1           0        0.895730   -0.517150   -0.806223
      5         35           0       -0.000000    0.000000    1.580417
      6         17           0        0.000000   -0.000000   -2.929930
 ---------------------------------------------------------------------
 Rotational constants (GHZ):         156.2492342           1.0054931           1.0054931
 Leave Link  202 at Mon Oct 14 23:36:35 2019, MaxMem=   280000000 cpu:               1.2 elap:               0.1
 (Enter /home/soft/g16/l301.exe)
 Standard basis: 6-31+G(d) (6D, 7F)
 Ernie: Thresh=  0.10000D-02 Tol=  0.10000D-05 Strict=F.
 There are    60 symmetry adapted cartesian basis functions of A'  symmetry.
 There are    22 symmetry adapted cartesian basis functions of A"  symmetry.
 There are    60 symmetry adapted basis functions of A'  symmetry.
 There are    22 symmetry adapted basis functions of A"  symmetry.
    82 basis functions,   187 primitive gaussians,    82 cartesian basis functions
    31 alpha electrons       31 beta electrons
       nuclear repulsion energy       187.7368593136 Hartrees.
 IExCor=  402 DFT=T Ex+Corr=B3LYP ExCW=0 ScaHFX=  0.200000
 ScaDFX=  0.800000  0.720000  1.000000  0.810000 ScalE2=  1.000000  1.000000
 IRadAn=      5 IRanWt=     -1 IRanGd=            0 ICorTp=0 IEmpDi=  4
 NAtoms=    6 NActive=    6 NUniq=    4 SFac= 2.25D+00 NAtFMM=   60 NAOKFM=F Big=F
 Integral buffers will be    131072 words long.
 Raffenetti 2 integral format.
 Two-electron integral symmetry is turned on.
 Leave Link  301 at Mon Oct 14 23:36:35 2019, MaxMem=   280000000 cpu:               1.6 elap:               0.1
 (Enter /home/soft/g16/l302.exe)
 NPDir=0 NMtPBC=     1 NCelOv=     1 NCel=       1 NClECP=     1 NCelD=      1
         NCelK=      1 NCelE2=     1 NClLst=     1 CellRange=     0.0.
 One-electron integrals computed using PRISM.
 One-electron integral symmetry used in STVInt
 NBasis=    82 RedAO= T EigKep=  6.46D-04  NBF=    60    22
 NBsUse=    82 1.00D-06 EigRej= -1.00D+00 NBFU=    60    22
 Precomputing XC quadrature grid using
 IXCGrd= 4 IRadAn=           5 IRanWt=          -1 IRanGd=           0 AccXCQ= 0.00D+00.
 Generated NRdTot=       0 NPtTot=           0 NUsed=           0 NTot=          32
 NSgBfM=    82    82    82    82    82 MxSgAt=     6 MxSgA2=     6.
 Leave Link  302 at Mon Oct 14 23:36:35 2019, MaxMem=   280000000 cpu:               2.7 elap:               0.1
 (Enter /home/soft/g16/l303.exe)
 DipDrv:  MaxL=1.
 Leave Link  303 at Mon Oct 14 23:36:35 2019, MaxMem=   280000000 cpu:               1.3 elap:               0.1
 (Enter /home/soft/g16/l401.exe)
 Initial guess from the checkpoint file:  "P_6-31+gs.chk"
 B after Tr=     0.000000   -0.000000    0.000000
         Rot=    1.000000   -0.000000    0.000000   -0.000000 Ang=   0.00 deg.
 Guess basis will be translated and rotated to current coordinates.
 JPrj=2 DoOrth=T DoCkMO=T.
 Initial guess orbital symmetries:
       Occupied  (A1) (A1) (A1) (A1) (E) (E) (A1) (A1) (A1) (A1)
                 (E) (E) (A1) (E) (E) (A1) (E) (E) (E) (E) (A1)
                 (A1) (A1) (E) (E) (A1) (E) (E) (E) (E) (A1)
       Virtual   (A1) (A1) (E) (E) (A1) (E) (E) (A1) (A1) (E) (E)
                 (A1) (A1) (E) (E) (A1) (E) (E) (E) (E) (A1) (A1)
                 (E) (E) (A1) (E) (E) (E) (E) (A1) (A1) (A1) (E)
                 (E) (E) (E) (E) (E) (A1) (A1) (A1) (E) (E) (A1)
                 (A1) (E) (E) (A1) (A1) (A1) (A1)
 The electronic state of the initial guess is 1-A1.
 Generating alternative initial guess.
 ExpMin= 3.50D-02 ExpMax= 5.74D+05 ExpMxC= 5.74D+03 IAcc=3 IRadAn=         5 AccDes= 0.00D+00
 Harris functional with IExCor=  402 and IRadAn=       5 diagonalized for initial guess.
 HarFok:  IExCor=  402 AccDes= 0.00D+00 IRadAn=         5 IDoV= 1 UseB2=F ITyADJ=14
 ICtDFT=  3500011 ScaDFX=  1.000000  1.000000  1.000000  1.000000
 FoFCou: FMM=F IPFlag=           0 FMFlag=      100000 FMFlg1=           0
         NFxFlg=           0 DoJE=T BraDBF=F KetDBF=T FulRan=T
         wScrn=  0.000000 ICntrl=       500 IOpCl=  0 I1Cent=   200000004 NGrid=           0
         NMat0=    1 NMatS0=      1 NMatT0=    0 NMatD0=    1 NMtDS0=    0 NMtDT0=    0
 Petite list used in FoFCou.
 Harris En= -3072.08112072907    
 Leave Link  401 at Mon Oct 14 23:36:36 2019, MaxMem=   280000000 cpu:               7.6 elap:               0.4
 (Enter /home/soft/g16/l502.exe)
 Keep R1 ints in memory in symmetry-blocked form, NReq=27510814.
 FoFCou: FMM=F IPFlag=           0 FMFlag=           0 FMFlg1=           0
         NFxFlg=           0 DoJE=F BraDBF=F KetDBF=F FulRan=T
         wScrn=  0.000000 ICntrl=       600 IOpCl=  0 I1Cent=           0 NGrid=           0
         NMat0=    1 NMatS0=   3403 NMatT0=    0 NMatD0=    1 NMtDS0=    0 NMtDT0=    0
 Petite list used in FoFCou.
 Closed shell SCF:
 Using DIIS extrapolation, IDIIS=  1040.
 NGot=   280000000 LenX=   276933098 LenY=   276925933
 Requested convergence on RMS density matrix=1.00D-08 within 128 cycles.
 Requested convergence on MAX density matrix=1.00D-06.
 Requested convergence on             energy=1.00D-06.
 No special actions if energy rises.

 Cycle   1  Pass 1  IDiag  1:
 E= -3071.88721693065    
 DIIS: error= 1.37D-01 at cycle   1 NSaved=   1.
 NSaved= 1 IEnMin= 1 EnMin= -3071.88721693065     IErMin= 1 ErrMin= 1.37D-01
 ErrMax= 1.37D-01  0.00D+00 EMaxC= 1.00D-01 BMatC= 5.38D-01 BMatP= 5.38D-01
 IDIUse=3 WtCom= 0.00D+00 WtEn= 1.00D+00
 Coeff-Com:  0.100D+01
 Coeff-En:   0.100D+01
 Coeff:      0.100D+01
 Recover alternate guess density for next cycle.
 RMSDP=9.28D-03 MaxDP=1.44D-01              OVMax= 0.00D+00

 Cycle   2  Pass 1  IDiag  1:
 E= -3071.82871940989     Delta-E=        0.058497520759 Rises=F Damp=F
 Switch densities from cycles 1 and 2 for lowest energy.
 DIIS: error= 1.59D-01 at cycle   2 NSaved=   2.
 NSaved= 2 IEnMin= 1 EnMin= -3071.88721693065     IErMin= 1 ErrMin= 1.37D-01
 ErrMax= 1.59D-01  0.00D+00 EMaxC= 1.00D+00 BMatC= 4.27D-01 BMatP= 5.38D-01
 IDIUse=1 WtCom= 1.00D+00 WtEn= 0.00D+00
 Coeff-Com:  0.443D+00 0.557D+00
 Coeff:      0.443D+00 0.557D+00
 Gap=     0.209 Goal=   None    Shift=    0.000
 RMSDP=5.17D-03 MaxDP=9.56D-02 DE= 5.85D-02 OVMax= 8.62D-02

 Cycle   3  Pass 1  IDiag  1:
 E= -3071.87529564297     Delta-E=       -0.046576233077 Rises=F Damp=F
 DIIS: error= 2.35D-02 at cycle   3 NSaved=   3.
 NSaved= 3 IEnMin= 1 EnMin= -3071.88721693065     IErMin= 3 ErrMin= 2.35D-02
 ErrMax= 2.35D-02  0.00D+00 EMaxC= 1.00D+00 BMatC= 3.06D-02 BMatP= 4.27D-01
 IDIUse=1 WtCom= 1.00D+00 WtEn= 0.00D+00
 Coeff-Com:  0.352D-01 0.136D+00 0.829D+00
 Coeff:      0.352D-01 0.136D+00 0.829D+00
 Gap=     0.213 Goal=   None    Shift=    0.000
 RMSDP=5.51D-03 MaxDP=8.31D-02 DE=-4.66D-02 OVMax= 1.53D-01

 Cycle   4  Pass 1  IDiag  1:
 E= -3071.87228040806     Delta-E=        0.003015234913 Rises=F Damp=F
 DIIS: error= 2.38D-02 at cycle   4 NSaved=   4.
 NSaved= 4 IEnMin= 1 EnMin= -3071.88721693065     IErMin= 3 ErrMin= 2.35D-02
 ErrMax= 2.38D-02  0.00D+00 EMaxC= 1.00D+00 BMatC= 3.38D-02 BMatP= 3.06D-02
 IDIUse=1 WtCom= 1.00D+00 WtEn= 0.00D+00
 Coeff-Com:  0.235D-03 0.145D-01 0.515D+00 0.471D+00
 Coeff:      0.235D-03 0.145D-01 0.515D+00 0.471D+00
 Gap=     0.194 Goal=   None    Shift=    0.000
 RMSDP=2.62D-03 MaxDP=4.67D-02 DE= 3.02D-03 OVMax= 9.30D-02

 Cycle   5  Pass 1  IDiag  1:
 E= -3071.90952214807     Delta-E=       -0.037241740018 Rises=F Damp=F
 DIIS: error= 1.29D-03 at cycle   5 NSaved=   5.
 NSaved= 5 IEnMin= 5 EnMin= -3071.90952214807     IErMin= 5 ErrMin= 1.29D-03
 ErrMax= 1.29D-03  0.00D+00 EMaxC= 1.00D+00 BMatC= 1.87D-04 BMatP= 3.06D-02
 IDIUse=1 WtCom= 1.00D+00 WtEn= 0.00D+00
 Coeff-Com: -0.103D-03 0.548D-02 0.195D+00 0.187D+00 0.613D+00
[...]
      5  0.815407D-01 -0.333855D+00  0.000000D+00 -0.845577D-01  0.347654D+00
      6  0.000000D+00  0.000000D+00 -0.511011D-01  0.000000D+00  0.000000D+00
      7 -0.534891D-01 -0.430382D-01 -0.745446D-01  0.492442D-02  0.419678D-02
      8 -0.407728D-01 -0.121788D+00 -0.122434D+00 -0.881700D-02 -0.107904D-01
      9 -0.706205D-01 -0.122434D+00 -0.263165D+00  0.244168D-03  0.230764D-02
     10 -0.534891D-01 -0.430382D-01  0.745446D-01  0.492442D-02  0.419678D-02
     11 -0.407728D-01 -0.121788D+00  0.122434D+00 -0.881700D-02 -0.107904D-01
     12  0.706205D-01  0.122434D+00 -0.263165D+00 -0.244169D-03 -0.230764D-02
     13 -0.593995D-01  0.000000D+00  0.000000D+00 -0.207428D-01 -0.638872D-02
     14  0.000000D+00 -0.311068D-01  0.000000D+00  0.159558D-01  0.689112D-02
     15  0.000000D+00  0.000000D+00 -0.311070D-01  0.000000D+00  0.000000D+00
     16  0.535747D-02  0.000000D+00  0.000000D+00 -0.236023D-02  0.101225D-02
     17  0.000000D+00 -0.454588D-02  0.000000D+00  0.164421D-03  0.890588D-03
     18  0.000000D+00  0.000000D+00 -0.454590D-02  0.000000D+00  0.000000D+00
                6             7             8             9            10 
      6  0.466965D-01
      7  0.775733D-02  0.667433D-01
      8 -0.254720D-01  0.422812D-01  0.121934D+00
      9  0.258340D-02  0.732337D-01  0.130317D+00  0.272413D+00
     10 -0.775733D-02  0.492459D-02  0.461989D-02 -0.751368D-02  0.667433D-01
     11  0.254720D-01  0.461989D-02  0.927024D-02 -0.138897D-01  0.422812D-01
     12  0.258341D-02  0.751368D-02  0.138897D-01 -0.174774D-01 -0.732337D-01
     13  0.000000D+00 -0.207429D-01  0.319479D-02  0.553305D-02 -0.207429D-01
     14  0.000000D+00 -0.797748D-02  0.174217D-02  0.297276D-02 -0.797748D-02
     15  0.257333D-04 -0.138178D-01  0.297303D-02  0.517489D-02  0.138178D-01
     16  0.000000D+00 -0.236023D-02 -0.506079D-03 -0.876593D-03 -0.236023D-02
     17  0.000000D+00 -0.821612D-04 -0.368251D-03  0.726814D-03 -0.821612D-04
     18 -0.787877D-03 -0.142343D-03  0.726808D-03  0.470991D-03  0.142343D-03
               11            12            13            14            15 
     11  0.121934D+00
     12 -0.130317D+00  0.272413D+00
     13  0.319479D-02 -0.553305D-02  0.131107D+00
     14  0.174218D-02 -0.297276D-02 -0.146621D-05  0.180163D-01
     15 -0.297303D-02  0.517489D-02  0.000000D+00  0.000000D+00  0.180164D-01
     16 -0.506080D-03  0.876593D-03 -0.947859D-02  0.000000D+00  0.000000D+00
     17 -0.368251D-03 -0.726814D-03  0.000000D+00  0.271506D-02  0.000000D+00
     18 -0.726808D-03  0.470990D-03  0.000000D+00  0.000000D+00  0.271505D-02
               16            17            18 
     16  0.112018D-01
     17  0.000000D+00  0.167674D-02
     18  0.000000D+00  0.000000D+00  0.167673D-02
 FormGI is forming the generalized inverse of G from B-inverse, IUseBI=4.
 Force constants in internal coordinates: 
                1             2             3             4             5 
      1  0.370932D+00
      2  0.118272D-02  0.370932D+00
      3  0.118272D-02  0.118269D-02  0.370932D+00
      4 -0.534750D-04 -0.533855D-04 -0.533855D-04  0.131107D+00
      5 -0.165729D-02 -0.165732D-02 -0.165732D-02  0.947856D-02  0.112018D-01
      6  0.301151D-02  0.301152D-02 -0.238135D-02 -0.548046D-02  0.495360D-03
      7  0.396028D-02 -0.213178D-02  0.435480D-02 -0.930540D-02  0.841082D-03
      8 -0.584471D-02  0.471051D-03 -0.127691D-03  0.827907D-02 -0.748318D-03
      9  0.277155D-02  0.106546D-02  0.166420D-02 -0.827898D-02  0.748318D-03
     10 -0.213180D-02  0.396030D-02  0.435480D-02 -0.930535D-02  0.841073D-03
     11  0.471108D-03 -0.579238D-02 -0.179950D-03  0.827892D-02 -0.748299D-03
     12  0.106547D-02  0.282388D-02  0.161194D-02 -0.827897D-02  0.748299D-03
     13  0.117043D-04 -0.406145D-04 -0.670299D-02  0.101310D-01 -0.915701D-03
     14  0.152488D-02  0.147260D-02  0.373449D-02 -0.101310D-01  0.915701D-03
     15 -0.307316D-02  0.153651D-02  0.153651D-02  0.000000D+00  0.000000D+00
     16  0.000000D+00  0.265640D-02 -0.265640D-02  0.000000D+00  0.000000D+00
     17 -0.547719D-02 -0.547722D-02 -0.371820D-02  0.220811D-01 -0.199583D-02
     18  0.686886D-03  0.714535D-03 -0.295291D-02  0.233484D-02 -0.211036D-03
     19 -0.149947D-02 -0.147181D-02  0.452273D-02 -0.233482D-02  0.211036D-03
     20 -0.155561D-02  0.227018D-02 -0.149027D-02  0.116741D-02 -0.105519D-03
     21  0.236819D-02 -0.383999D-02  0.224754D-02 -0.116743D-02  0.105519D-03
     22 -0.224250D-02  0.155564D-02  0.146264D-02 -0.116743D-02  0.105518D-03
     23  0.386766D-02 -0.236819D-02 -0.227519D-02  0.116739D-02 -0.105518D-03
                6             7             8             9            10 
      6  0.905066D-02
      7 -0.290764D-02  0.142099D-01
      8 -0.655796D-02 -0.958937D-02  0.459103D-01
      9  0.395546D-02  0.683983D-02 -0.153258D-01  0.133902D-01
     10 -0.290764D-02 -0.765678D-03  0.929660D-02 -0.322634D-02  0.142099D-01
     11 -0.646934D-02  0.918999D-02 -0.204562D-01  0.473055D-02 -0.959587D-02
     12  0.404409D-02 -0.333295D-02  0.475025D-02 -0.334905D-02  0.683334D-02
     13  0.944304D-02 -0.112734D-01 -0.178646D-01  0.221011D-02 -0.113735D-01
     14 -0.441529D-02  0.816587D-02  0.298607D-02 -0.165608D-02  0.806575D-02
     15 -0.260250D-02 -0.274954D-02  0.305845D-01 -0.193553D-02  0.607026D-02
     16  0.449909D-02 -0.541153D-02  0.499510D-03 -0.499510D-03 -0.329120D-03
     17 -0.749611D-02 -0.676697D-02  0.900338D-02 -0.815453D-02 -0.676697D-02
     18  0.371547D-02 -0.361808D-02  0.577679D-02 -0.968419D-03 -0.356513D-02
     19 -0.637427D-02  0.526140D-02  0.209134D-02  0.675434D-03  0.531434D-02
     20  0.188117D-02 -0.561696D-02 -0.359542D-02 -0.107832D-02  0.199545D-02
     21 -0.316370D-02  0.871431D-02 -0.471030D-02  0.180889D-02 -0.345634D-02
     22 -0.183430D-02 -0.199888D-02 -0.937221D-02 -0.109903D-03  0.556058D-02
     23  0.321057D-02  0.345291D-02 -0.680164D-02  0.113346D-02 -0.877068D-02
               11            12            13            14            15 
     11  0.448897D-01
     12 -0.158025D-01  0.134574D-01
     13 -0.168169D-01  0.269425D-02  0.493090D-01
     14  0.345536D-02 -0.175036D-02 -0.195319D-01  0.164969D-01
     15 -0.157257D-01  0.140119D-02 -0.156545D-01  0.132999D-02  0.286490D-01
     16 -0.256246D-01  0.198542D-02  0.265005D-01 -0.286135D-02  0.000000D+00
     17  0.897450D-02 -0.818343D-02  0.531986D-02 -0.695979D-02  0.848852D-03
     18  0.534091D-02 -0.110626D-02 -0.727603D-02 -0.176699D-02  0.480837D-02
     19  0.172499D-02  0.607109D-03 -0.847084D-02  0.337197D-02  0.276677D-02
     20  0.894306D-02 -0.316187D-04 -0.341964D-02 -0.818064D-03 -0.467374D-02
     21  0.643897D-02 -0.120852D-02 -0.404875D-02  0.171971D-02 -0.290141D-02
     22  0.360215D-02  0.107464D-02  0.385639D-02  0.948923D-03 -0.948211D-02
     23  0.471398D-02 -0.181563D-02  0.442209D-02 -0.165226D-02 -0.566818D-02
               16            17            18            19            20 
     16  0.285401D-01
     17 -0.146750D-02  0.207532D-01
     18 -0.801521D-02  0.723974D-03  0.102327D-01
     19 -0.448578D-02  0.143259D-03 -0.545055D-02  0.814696D-02
     20 -0.793762D-02  0.354349D-03  0.503213D-02 -0.279113D-02  0.102911D-01
     21 -0.456337D-02  0.639900D-04 -0.279274D-02  0.402440D-02 -0.557852D-02
     22  0.775854D-04 -0.369625D-03 -0.520060D-02  0.265943D-02  0.525899D-02
     23 -0.775858D-04 -0.792690D-04  0.265781D-02 -0.412256D-02 -0.278740D-02
               21            22            23 
     21  0.834451D-02
     22 -0.278578D-02  0.104596D-01
     23  0.432012D-02 -0.544521D-02  0.844268D-02
 Leave Link  716 at Mon Oct 14 23:37:01 2019, MaxMem=   280000000 cpu:               2.4 elap:               0.1
 (Enter /home/soft/g16/l103.exe)

 GradGradGradGradGradGradGradGradGradGradGradGradGradGradGradGradGradGrad
 Berny optimization.
 Red2BG is reusing G-inverse.
 Internal  Forces:  Max     0.000019860 RMS     0.000004354
 Step   1 in ReCalcFC= 3 IGetFC= 4 recover analytic Hessian.
 Search for a local minimum.
 Step number   1 out of a maximum of    2
 All quantities printed in internal units (Hartrees-Bohrs-Radians)
 Second derivative matrix not updated -- analytic derivatives used.
 ITU=  0
     Eigenvalues ---    0.00923   0.01573   0.01605   0.02997   0.03441
     Eigenvalues ---    0.04010   0.10174   0.10406   0.14424   0.37023
     Eigenvalues ---    0.37025   0.37387
 Angle between quadratic step and forces=  39.47 degrees.
 Linear search not attempted -- first point.
 Iteration  1 RMS(Cart)=  0.00004638 RMS(Int)=  0.00000000
 Iteration  2 RMS(Cart)=  0.00000000 RMS(Int)=  0.00000000
 ITry= 1 IFail=0 DXMaxC= 1.63D-04 DCOld= 1.00D+10 DXMaxT= 3.00D-01 DXLimC= 3.00D+00 Rises=F
 ClnCor:  largest displacement from symmetrization is 1.26D-08 for atom     5.
 Variable       Old X    -DE/DX   Delta X   Delta X   Delta X     New X
                                 (Linear)    (Quad)   (Total)
    R1        2.04842   0.00000   0.00000   0.00001   0.00001   2.04843
    R2        2.04842   0.00000   0.00000   0.00001   0.00001   2.04843
    R3        2.04842   0.00000   0.00000   0.00001   0.00001   2.04843
    R4        3.81988   0.00002   0.00000   0.00017   0.00017   3.82005
    R5        5.80858   0.00000   0.00000   0.00013   0.00013   5.80871
    A1        1.95206   0.00000   0.00000   0.00003   0.00003   1.95209
    A2        1.95206   0.00000   0.00000   0.00003   0.00003   1.95209
    A3        1.86712  -0.00000   0.00000  -0.00003  -0.00003   1.86710
    A4        1.27447   0.00000   0.00000   0.00003   0.00003   1.27450
    A5        1.95206   0.00000   0.00000   0.00003   0.00003   1.95209
    A6        1.86712  -0.00000   0.00000  -0.00003  -0.00003   1.86710
    A7        1.27447   0.00000   0.00000   0.00003   0.00003   1.27450
    A8        1.86712  -0.00000   0.00000  -0.00003  -0.00003   1.86710
    A9        1.27447   0.00000   0.00000   0.00003   0.00003   1.27450
   A10        3.14159   0.00000   0.00000  -0.00000   0.00000   3.14159
   A11        3.14159  -0.00000   0.00000  -0.00000  -0.00000   3.14159
    D1       -2.20508  -0.00000   0.00000  -0.00008  -0.00008  -2.20515
    D2        2.09440  -0.00000   0.00000  -0.00000   0.00000   2.09440
    D3       -2.09440   0.00000   0.00000  -0.00000  -0.00000  -2.09440
    D4       -2.09440  -0.00000   0.00000   0.00000   0.00000  -2.09440
    D5        2.09440   0.00000   0.00000   0.00000  -0.00000   2.09440
    D6        2.09440   0.00000   0.00000   0.00000  -0.00000   2.09440
    D7       -2.09440  -0.00000   0.00000   0.00000   0.00000  -2.09440
         Item               Value     Threshold  Converged?
 Maximum Force            0.000020     0.000450     YES
 RMS     Force            0.000004     0.000300     YES
 Maximum Displacement     0.000163     0.001800     YES
 RMS     Displacement     0.000046     0.001200     YES
 Predicted change in Energy=-1.954965D-09
 Optimization completed.
    -- Stationary point found.
                           ----------------------------
                           !   Optimized Parameters   !
                           ! (Angstroms and Degrees)  !
 --------------------------                            --------------------------
 ! Name  Definition              Value          Derivative Info.                !
 --------------------------------------------------------------------------------
 ! R1    R(1,2)                  1.084          -DE/DX =    0.0                 !
 ! R2    R(1,3)                  1.084          -DE/DX =    0.0                 !
 ! R3    R(1,4)                  1.084          -DE/DX =    0.0                 !
 ! R4    R(1,5)                  2.0214         -DE/DX =    0.0                 !
 ! R5    R(1,6)                  3.0738         -DE/DX =    0.0                 !
 ! A1    A(2,1,3)              111.8449         -DE/DX =    0.0                 !
 ! A2    A(2,1,4)              111.8449         -DE/DX =    0.0                 !
 ! A3    A(2,1,5)              106.9783         -DE/DX =    0.0                 !
 ! A4    A(2,1,6)               73.0217         -DE/DX =    0.0                 !
 ! A5    A(3,1,4)              111.8449         -DE/DX =    0.0                 !
 ! A6    A(3,1,5)              106.9783         -DE/DX =    0.0                 !
 ! A7    A(3,1,6)               73.0217         -DE/DX =    0.0                 !
 ! A8    A(4,1,5)              106.9783         -DE/DX =    0.0                 !
 ! A9    A(4,1,6)               73.0217         -DE/DX =    0.0                 !
 ! A10   L(5,1,6,2,-1)         180.0            -DE/DX =    0.0                 !
 ! A11   L(5,1,6,2,-2)         180.0            -DE/DX =    0.0                 !
 ! D1    D(2,1,4,3)           -126.3416         -DE/DX =    0.0                 !
 ! D2    D(2,1,5,3)            120.0            -DE/DX =    0.0                 !
 ! D3    D(2,1,6,3)           -120.0            -DE/DX =    0.0                 !
 ! D4    D(2,1,5,4)           -120.0            -DE/DX =    0.0                 !
 ! D5    D(2,1,6,4)            120.0            -DE/DX =    0.0                 !
 ! D6    D(3,1,5,4)            120.0            -DE/DX =    0.0                 !
 ! D7    D(3,1,6,4)           -120.0            -DE/DX =    0.0                 !
 --------------------------------------------------------------------------------
 Step   1 in ReCalcFC= 3 IGetFC= 0 compute gradient.
 GradGradGradGradGradGradGradGradGradGradGradGradGradGradGradGradGradGrad

 Leave Link  103 at Mon Oct 14 23:37:01 2019, MaxMem=   280000000 cpu:               1.1 elap:               0.1
 (Enter /home/soft/g16/l9999.exe)

 ----------------------------------------------------------------------

 Electric dipole moment (input orientation):
 (Debye = 10**-18 statcoulomb cm , SI units = C m)
                  (au)            (Debye)         (10**-30 SI)
   Tot        0.447742D+01      0.113805D+02      0.379612D+02
   x         -0.447742D+01     -0.113805D+02     -0.379612D+02
   y          0.551834D-04      0.140262D-03      0.467865D-03
   z          0.000000D+00      0.000000D+00      0.000000D+00

 Dipole polarizability, Alpha (input orientation).
 (esu units = cm**3 , SI units = C**2 m**2 J**-1)
 Alpha(0;0):
               (au)            (10**-24 esu)      (10**-40 SI)
   iso        0.650360D+02      0.963734D+01      0.107230D+02
   aniso      0.625396D+02      0.926742D+01      0.103114D+02
   xx         0.106729D+03      0.158156D+02      0.175972D+02
   yx        -0.126590D-02     -0.187586D-03     -0.208718D-03
   yy         0.441899D+02      0.654827D+01      0.728593D+01
   zx         0.000000D+00      0.000000D+00      0.000000D+00
   zy         0.000000D+00      0.000000D+00      0.000000D+00
   zz         0.441890D+02      0.654813D+01      0.728577D+01

 ----------------------------------------------------------------------

 Dipole orientation:
     6         -0.00002528         -2.05089083          2.31860465
     1         -0.00004953         -4.01003027          1.72044583
     1          1.69665138         -1.07134211          1.72044583
     1         -1.69667768         -1.07130010          1.72044583
    35         -0.00002528         -2.05089083          6.13848263
    17         -0.00002528         -2.05089083         -3.48997439

 Electric dipole moment (dipole orientation):
 (Debye = 10**-18 statcoulomb cm , SI units = C m)
                  (au)            (Debye)         (10**-30 SI)
   Tot        0.447742D+01      0.113805D+02      0.379612D+02
   x          0.000000D+00      0.000000D+00      0.000000D+00
   y          0.000000D+00      0.000000D+00      0.000000D+00
   z          0.447742D+01      0.113805D+02      0.379612D+02

 Dipole polarizability, Alpha (dipole orientation).
 (esu units = cm**3 , SI units = C**2 m**2 J**-1)
 Alpha(0;0):
               (au)            (10**-24 esu)      (10**-40 SI)
   iso        0.650360D+02      0.963734D+01      0.107230D+02
   aniso      0.625396D+02      0.926742D+01      0.103114D+02
   xx         0.441890D+02      0.654813D+01      0.728577D+01
   yx         0.000000D+00      0.000000D+00      0.000000D+00
   yy         0.441899D+02      0.654827D+01      0.728593D+01
   zx         0.000000D+00      0.000000D+00      0.000000D+00
   zy         0.495112D-03      0.733680D-04      0.816329D-04
   zz         0.106729D+03      0.158156D+02      0.175972D+02

 ----------------------------------------------------------------------
 1\1\GINC-NODE12\Freq\RB3LYP\6-31+G(d)\C1H3Br1Cl1(1-)\ROOT\14-Oct-2019\
 0\\#P Geom=AllCheck Guess=TCheck SCRF=Check GenChk RB3LYP/6-31+G(d) Fr
 eq\\Title Card Required\\-1,1\C,-1.2269661192,-1.0852695659,0.\H,-0.91
 04468806,-2.1220054142,-0.0000000579\H,-0.9104277143,-0.5669075437,0.8
 978362321\H,-0.9104277143,-0.5669074435,-0.8978361742\Br,-3.2483584938
 ,-1.0852446526,0.\Cl,1.8468015385,-1.0853074496,0.\\Version=ES64L-G16R
 evA.03\State=1-A1\HF=-3071.9273073\RMSD=8.456e-10\RMSF=5.898e-06\ZeroP
 oint=0.0379616\Thermal=0.0432078\Dipole=-4.4774235,0.0000552,0.\Dipole
 Deriv=1.8118105,-0.0000254,0.,-0.0000118,0.0009796,0.,0.,0.,0.00098,-0
 .0566173,0.0078831,0.,-0.0101471,0.0265181,0.,0.,0.,0.0881945,-0.05661
 79,-0.0039405,-0.0068284,0.0050739,0.0727755,-0.0267069,0.0087812,-0.0
 267067,0.0419363,-0.0566179,-0.0039405,0.0068284,0.0050739,0.0727755,0
 .0267069,-0.0087812,0.0267067,0.0419363,-1.3315384,0.0000215,0.,0.0000
 095,-0.2860076,0.,0.,0.,-0.2860037,-1.3104177,0.0000041,0.,0.0000051,-
 0.8870414,0.,0.,0.,-0.8870416\Polar=106.7290491,-0.0012659,44.189898,0
 .,0.,44.1889572\Quadrupole=-27.7741863,13.8870931,13.8870931,0.0005135
 ,0.,0.\PG=C03V [C3(Cl1C1Br1),3SGV(H1)]\NImag=0\\0.21450615,0.00000444,
 0.61308367,0.,0.,0.61308407,-0.05348594,0.08607150,0.,0.06674014,0.081
 54067,-0.33385506,-0.00000002,-0.08455767,0.34765419,0.,-0.00000002,-0
 .05110110,0.,0.00000002,0.04669645,-0.05348906,-0.04303823,-0.07454465
 ,0.00492442,0.00419678,0.00775733,0.06674327,-0.04077281,-0.12178798,-
 0.12243423,-0.00881700,-0.01079043,-0.02547199,0.04228124,0.12193431,-
 0.07062055,-0.12243418,-0.26316504,0.00024417,0.00230764,0.00258340,0.
 07323369,0.13031671,0.27241321,-0.05348906,-0.04303823,0.07454464,0.00
 492442,0.00419678,-0.00775733,0.00492459,0.00461989,-0.00751368,0.0667
 4327,-0.04077282,-0.12178801,0.12243424,-0.00881700,-0.01079043,0.0254
 7199,0.00461989,0.00927024,-0.01388967,0.04228125,0.12193434,0.0706205
 4,0.12243420,-0.26316502,-0.00024417,-0.00230764,0.00258341,0.00751368
 ,0.01388968,-0.01747743,-0.07323369,-0.13031673,0.27241318,-0.05939953
 ,0.00000047,0.,-0.02074280,-0.00638872,0.,-0.02074293,0.00319479,0.005
 53305,-0.02074293,0.00319479,-0.00553305,0.13110667,0.00000050,-0.0311
 0683,0.,0.01595582,0.00689112,0.,-0.00797748,0.00174217,0.00297276,-0.
 00797748,0.00174218,-0.00297276,-0.00000147,0.01801629,0.,0.,-0.031106
 99,0.,0.,0.00002573,-0.01381782,0.00297303,0.00517489,0.01381782,-0.00
 297303,0.00517489,0.,0.,0.01801638,0.00535747,-0.00000012,0.,-0.002360
 23,0.00101225,0.,-0.00236023,-0.00050608,-0.00087659,-0.00236023,-0.00
 050608,0.00087659,-0.00947859,0.00000015,0.,0.01120178,-0.00000015,-0.
 00454588,0.,0.00016442,0.00089059,0.,-0.00008216,-0.00036825,0.0007268
 1,-0.00008216,-0.00036825,-0.00072681,0.00000016,0.00271506,0.,-0.0000
 0011,0.00167674,0.,0.,-0.00454590,0.,0.,-0.00078788,-0.00014234,0.0007
 2681,0.00047099,0.00014234,-0.00072681,0.00047099,0.,0.,0.00271505,0.,
 0.,0.00167673\\-0.00001379,0.,0.,-0.00000090,0.00000304,0.,-0.00000090
 ,-0.00000152,-0.00000263,-0.00000090,-0.00000152,0.00000263,0.00001986
 ,0.,0.,-0.00000338,0.,0.\\\@


 VIRTUE IS LEARNED AT YOUR MOTHER'S KNEE,
 VICES ARE PICKED UP AT SOME OTHER JOINT.
 Job cpu time:       0 days  0 hours  1 minutes 51.2 seconds.
 Elapsed time:       0 days  0 hours  0 minutes  5.2 seconds.
 File lengths (MBytes):  RWF=     72 Int=      0 D2E=      0 Chk=      8 Scr=      8
 Normal termination of Gaussian 16 at Mon Oct 14 23:37:01 2019.
