 Entering Gaussian System, Link 0=g16
 Input=R_6-31+gs.gjf
 Output=R_6-31+gs.log
 Initial command:
 /home/soft/g16/l1.exe "/tmp/gaussian/Gau-227847.inp" -scrdir="/tmp/gaussian/"
 Entering Link 1 = /home/soft/g16/l1.exe PID=    227849.
  
 Copyright (c) 1988,1990,1992,1993,1995,1998,2003,2009,2016,
            Gaussian, Inc.  All Rights Reserved.
  
 This is part of the Gaussian(R) 16 program.  It is based on
 the Gaussian(R) 09 system (copyright 2009, Gaussian, Inc.),
 the Gaussian(R) 03 system (copyright 2003, Gaussian, Inc.),
 the Gaussian(R) 98 system (copyright 1998, Gaussian, Inc.),
 the Gaussian(R) 94 system (copyright 1995, Gaussian, Inc.),
 the Gaussian 92(TM) system (copyright 1992, Gaussian, Inc.),
 the Gaussian 90(TM) system (copyright 1990, Gaussian, Inc.),
 the Gaussian 88(TM) system (copyright 1988, Gaussian, Inc.),
 the Gaussian 86(TM) system (copyright 1986, Carnegie Mellon
 University), and the Gaussian 82(TM) system (copyright 1983,
 Carnegie Mellon University). Gaussian is a federally registered
 trademark of Gaussian, Inc.
  
 This software contains proprietary and confidential information,
 including trade secrets, belonging to Gaussian, Inc.
  
 This software is provided under written license and may be
 used, copied, transmitted, or stored only in accord with that
 written license.
  
 The following legend is applicable only to US Government
 contracts under FAR:
  
                    RESTRICTED RIGHTS LEGEND
  
 Use, reproduction and disclosure by the US Government is
 subject to restrictions as set forth in subparagraphs (a)
 and (c) of the Commercial Computer Software - Restricted
 Rights clause in FAR 52.227-19.
  
 Gaussian, Inc.
 340 Quinnipiac St., Bldg. 40, Wallingford CT 06492
  
  
 ---------------------------------------------------------------
 Warning -- This program may not be used in any manner that
 competes with the business of Gaussian, Inc. or will provide
 assistance to any competitor of Gaussian, Inc.  The licensee
 of this program is prohibited from giving any competitor of
 Gaussian, Inc. access to this program.  By using this program,
 the user acknowledges that Gaussian, Inc. is engaged in the
 business of creating and licensing software in the field of
 computational chemistry and represents and warrants to the
 licensee that it is not a competitor of Gaussian, Inc. and that
 it will not use this program in any manner prohibited above.
 ---------------------------------------------------------------
  

 Cite this work as:
 Gaussian 16, Revision A.03,
 M. J. Frisch, G. W. Trucks, H. B. Schlegel, G. E. Scuseria, 
 M. A. Robb, J. R. Cheeseman, G. Scalmani, V. Barone, 
 G. A. Petersson, H. Nakatsuji, X. Li, M. Caricato, A. V. Marenich, 
 J. Bloino, B. G. Janesko, R. Gomperts, B. Mennucci, H. P. Hratchian, 
 J. V. Ortiz, A. F. Izmaylov, J. L. Sonnenberg, D. Williams-Young, 
 F. Ding, F. Lipparini, F. Egidi, J. Goings, B. Peng, A. Petrone, 
 T. Henderson, D. Ranasinghe, V. G. Zakrzewski, J. Gao, N. Rega, 
 G. Zheng, W. Liang, M. Hada, M. Ehara, K. Toyota, R. Fukuda, 
 J. Hasegawa, M. Ishida, T. Nakajima, Y. Honda, O. Kitao, H. Nakai, 
 T. Vreven, K. Throssell, J. A. Montgomery, Jr., J. E. Peralta, 
 F. Ogliaro, M. J. Bearpark, J. J. Heyd, E. N. Brothers, K. N. Kudin, 
 V. N. Staroverov, T. A. Keith, R. Kobayashi, J. Normand, 
 K. Raghavachari, A. P. Rendell, J. C. Burant, S. S. Iyengar, 
 J. Tomasi, M. Cossi, J. M. Millam, M. Klene, C. Adamo, R. Cammi, 
 J. W. Ochterski, R. L. Martin, K. Morokuma, O. Farkas, 
 J. B. Foresman, and D. J. Fox, Gaussian, Inc., Wallingford CT, 2016.
 
 ******************************************
 Gaussian 16:  ES64L-G16RevA.03 25-Dec-2016
                14-Oct-2019 
 ******************************************
 %chk=R_6-31+gs.chk
 %nproc=24
 Will use up to   24 processors via shared memory.
 -------------------------------------------
 #p b3lyp/6-31+g* opt=(calcfc,recalc=3) freq
 -------------------------------------------
 1/10=4,18=20,19=15,26=3,38=1,71=3/1,3;
 2/9=110,12=2,17=6,18=5,40=1/2;
 3/5=1,6=6,7=11,11=2,25=1,30=1,71=2,74=-5,140=1/1,2,3;
 4//1;
 5/5=2,38=5/2;
 8/6=4,10=90,11=11/1;
 11/6=1,8=1,9=11,15=111,16=1/1,2,10;
 10/6=1,13=1/2;
 6/7=2,8=2,9=2,10=2,28=1/1;
 7/10=1,18=20,25=1/1,2,3,16;
 1/10=4,18=20,19=15,26=3,71=3/3(2);
 2/9=110/2;
 99//99;
 2/9=110/2;
 3/5=1,6=6,7=11,11=2,25=1,30=1,71=1,74=-5/1,2,3;
 4/5=5,16=3,69=1/1;
 5/5=2,38=5/2;
 7//1,2,3,16;
 1/18=20,19=15,26=3,71=3/3(-5);
 2/9=110/2;
 6/7=2,8=2,9=2,10=2,19=2,28=1/1;
 99/9=1/99;
 Leave Link    1 at Mon Oct 14 23:37:02 2019, MaxMem=           0 cpu:               1.5 elap:               0.1
 (Enter /home/soft/g16/l101.exe)
 -------------------
 Title Card Required
 -------------------
 Symbolic Z-matrix:
 Charge = -1 Multiplicity = 1
 C                    -0.98191  -0.83979   0. 
 H                    -0.62526  -1.8486    0. 
 H                    -0.62524  -0.3354    0.87365 
 H                    -0.62524  -0.3354   -0.87365 
 Cl                   -2.74191  -0.83977   0. 
 Br                    0.84094  -0.83982   0. 
 
 ITRead=  0  0  0  0  0  0
 MicOpt= -1 -1 -1 -1 -1 -1
 NAtoms=      6 NQM=        6 NQMF=       0 NMMI=      0 NMMIF=      0
                NMic=       0 NMicF=      0.
                    Isotopes and Nuclear Properties:
 (Nuclear quadrupole moments (NQMom) in fm**2, nuclear magnetic moments (NMagM)
  in nuclear magnetons)

  Atom         1           2           3           4           5           6
 IAtWgt=          12           1           1           1          35          79
 AtmWgt=  12.0000000   1.0078250   1.0078250   1.0078250  34.9688527  78.9183361
 NucSpn=           0           1           1           1           3           3
 AtZEff=  -0.0000000  -0.0000000  -0.0000000  -0.0000000  -0.0000000  -0.0000000
 NQMom=    0.0000000   0.0000000   0.0000000   0.0000000  -8.1650000  31.3000000
 NMagM=    0.0000000   2.7928460   2.7928460   2.7928460   0.8218740   2.1063990
 AtZNuc=   6.0000000   1.0000000   1.0000000   1.0000000  17.0000000  35.0000000
 Leave Link  101 at Mon Oct 14 23:37:02 2019, MaxMem=   280000000 cpu:               3.2 elap:               0.2
 (Enter /home/soft/g16/l103.exe)

 GradGradGradGradGradGradGradGradGradGradGradGradGradGradGradGradGradGrad
 Berny optimization.
 Initialization pass.
                           ----------------------------
                           !    Initial Parameters    !
                           ! (Angstroms and Degrees)  !
 --------------------------                            --------------------------
 ! Name  Definition              Value          Derivative Info.                !
 --------------------------------------------------------------------------------
 ! R1    R(1,2)                  1.07           calculate D2E/DX2 analytically  !
 ! R2    R(1,3)                  1.07           calculate D2E/DX2 analytically  !
 ! R3    R(1,4)                  1.07           calculate D2E/DX2 analytically  !
 ! R4    R(1,5)                  1.76           calculate D2E/DX2 analytically  !
 ! R5    R(1,6)                  1.8229         calculate D2E/DX2 analytically  !
 ! A1    A(2,1,3)              109.4712         calculate D2E/DX2 analytically  !
 ! A2    A(2,1,4)              109.4712         calculate D2E/DX2 analytically  !
 ! A3    A(2,1,5)              109.4712         calculate D2E/DX2 analytically  !
 ! A4    A(2,1,6)               70.5288         calculate D2E/DX2 analytically  !
 ! A5    A(3,1,4)              109.4713         calculate D2E/DX2 analytically  !
 ! A6    A(3,1,5)              109.4712         calculate D2E/DX2 analytically  !
 ! A7    A(3,1,6)               70.5288         calculate D2E/DX2 analytically  !
 ! A8    A(4,1,5)              109.4712         calculate D2E/DX2 analytically  !
 ! A9    A(4,1,6)               70.5288         calculate D2E/DX2 analytically  !
 ! A10   L(5,1,6,2,-1)         180.0            calculate D2E/DX2 analytically  !
 ! A11   L(5,1,6,2,-2)         180.0            calculate D2E/DX2 analytically  !
 ! D1    D(2,1,4,3)           -120.0            calculate D2E/DX2 analytically  !
 ! D2    D(2,1,5,3)            120.0            calculate D2E/DX2 analytically  !
 ! D3    D(2,1,6,3)           -120.0            calculate D2E/DX2 analytically  !
 ! D4    D(2,1,5,4)           -120.0            calculate D2E/DX2 analytically  !
 ! D5    D(2,1,6,4)            120.0            calculate D2E/DX2 analytically  !
 ! D6    D(3,1,5,4)            120.0            calculate D2E/DX2 analytically  !
 ! D7    D(3,1,6,4)           -120.0            calculate D2E/DX2 analytically  !
 --------------------------------------------------------------------------------
 Trust Radius=3.00D-01 FncErr=1.00D-07 GrdErr=1.00D-06 EigMax=2.50D+02 EigMin=1.00D-04
 Number of steps in this run=     33 maximum allowed number of steps=    100.
 Step   0 in ReCalcFC= 3 IGetFC= 4 compute analytic Hessian.
 GradGradGradGradGradGradGradGradGradGradGradGradGradGradGradGradGradGrad

 Leave Link  103 at Mon Oct 14 23:37:02 2019, MaxMem=   280000000 cpu:               0.4 elap:               0.0
 (Enter /home/soft/g16/l202.exe)
                          Input orientation:                          
 ---------------------------------------------------------------------
 Center     Atomic      Atomic             Coordinates (Angstroms)
 Number     Number       Type             X           Y           Z
 ---------------------------------------------------------------------
      1          6           0       -0.981912   -0.839793    0.000000
      2          1           0       -0.625258   -1.848603    0.000000
      3          1           0       -0.625239   -0.335395    0.873652
      4          1           0       -0.625239   -0.335395   -0.873652
      5         17           0       -2.741912   -0.839772    0.000000
      6         35           0        0.840938   -0.839816    0.000000
 ---------------------------------------------------------------------
                    Distance matrix (angstroms):
                    1          2          3          4          5
     1  C    0.000000
     2  H    1.070000   0.000000
     3  H    1.070000   1.747302   0.000000
     4  H    1.070000   1.747302   1.747303   0.000000
     5  Cl   1.760000   2.344774   2.344774   2.344774   0.000000
     6  Br   1.822850   1.779714   1.779714   1.779714   3.582850
                    6
     6  Br   0.000000
 Stoichiometry    CH3BrCl(1-)
 Framework group  C3V[C3(ClCBr),3SGV(H)]
 Deg. of freedom     4
 Full point group                 C3V     NOp   6
 Largest Abelian subgroup         CS      NOp   2
 Largest concise Abelian subgroup CS      NOp   2
                         Standard orientation:                         
 ---------------------------------------------------------------------
 Center     Atomic      Atomic             Coordinates (Angstroms)
 Number     Number       Type             X           Y           Z
 ---------------------------------------------------------------------
      1          6           0        0.000000   -0.000000   -0.572947
      2          1           0       -0.000000    1.008806   -0.216280
      3          1           0        0.873651   -0.504403   -0.216280
      4          1           0       -0.873651   -0.504403   -0.216280
      5         17           0        0.000000   -0.000000   -2.332947
      6         35           0       -0.000000    0.000000    1.249903
 ---------------------------------------------------------------------
 Rotational constants (GHZ):         164.2463900           1.5866064           1.5866064
 Leave Link  202 at Mon Oct 14 23:37:02 2019, MaxMem=   280000000 cpu:               0.2 elap:               0.0
 (Enter /home/soft/g16/l301.exe)
 Standard basis: 6-31+G(d) (6D, 7F)
 Ernie: Thresh=  0.10000D-02 Tol=  0.10000D-05 Strict=F.
 There are    60 symmetry adapted cartesian basis functions of A'  symmetry.
 There are    22 symmetry adapted cartesian basis functions of A"  symmetry.
 There are    60 symmetry adapted basis functions of A'  symmetry.
 There are    22 symmetry adapted basis functions of A"  symmetry.
    82 basis functions,   187 primitive gaussians,    82 cartesian basis functions
    31 alpha electrons       31 beta electrons
       nuclear repulsion energy       232.0525268776 Hartrees.
 IExCor=  402 DFT=T Ex+Corr=B3LYP ExCW=0 ScaHFX=  0.200000
 ScaDFX=  0.800000  0.720000  1.000000  0.810000 ScalE2=  1.000000  1.000000
 IRadAn=      5 IRanWt=     -1 IRanGd=            0 ICorTp=0 IEmpDi=  4
 NAtoms=    6 NActive=    6 NUniq=    4 SFac= 2.25D+00 NAtFMM=   60 NAOKFM=F Big=F
 Integral buffers will be    131072 words long.
 Raffenetti 2 integral format.
 Two-electron integral symmetry is turned on.
 Leave Link  301 at Mon Oct 14 23:37:02 2019, MaxMem=   280000000 cpu:               1.4 elap:               0.1
 (Enter /home/soft/g16/l302.exe)
 NPDir=0 NMtPBC=     1 NCelOv=     1 NCel=       1 NClECP=     1 NCelD=      1
         NCelK=      1 NCelE2=     1 NClLst=     1 CellRange=     0.0.
 One-electron integrals computed using PRISM.
 One-electron integral symmetry used in STVInt
 NBasis=    82 RedAO= T EigKep=  4.92D-04  NBF=    60    22
 NBsUse=    82 1.00D-06 EigRej= -1.00D+00 NBFU=    60    22
 Precomputing XC quadrature grid using
 IXCGrd= 4 IRadAn=           5 IRanWt=          -1 IRanGd=           0 AccXCQ= 0.00D+00.
 Generated NRdTot=       0 NPtTot=           0 NUsed=           0 NTot=          32
 NSgBfM=    82    82    82    82    82 MxSgAt=     6 MxSgA2=     6.
 Leave Link  302 at Mon Oct 14 23:37:02 2019, MaxMem=   280000000 cpu:               3.6 elap:               0.2
 (Enter /home/soft/g16/l303.exe)
 DipDrv:  MaxL=1.
 Leave Link  303 at Mon Oct 14 23:37:02 2019, MaxMem=   280000000 cpu:               1.1 elap:               0.1
 (Enter /home/soft/g16/l401.exe)
 ExpMin= 3.50D-02 ExpMax= 5.74D+05 ExpMxC= 5.74D+03 IAcc=3 IRadAn=         5 AccDes= 0.00D+00
 Harris functional with IExCor=  402 and IRadAn=       5 diagonalized for initial guess.
 HarFok:  IExCor=  402 AccDes= 0.00D+00 IRadAn=         5 IDoV= 1 UseB2=F ITyADJ=14
 ICtDFT=  3500011 ScaDFX=  1.000000  1.000000  1.000000  1.000000
 FoFCou: FMM=F IPFlag=           0 FMFlag=      100000 FMFlg1=           0
         NFxFlg=           0 DoJE=T BraDBF=F KetDBF=T FulRan=T
         wScrn=  0.000000 ICntrl=       500 IOpCl=  0 I1Cent=   200000004 NGrid=           0
         NMat0=    1 NMatS0=      1 NMatT0=    0 NMatD0=    1 NMtDS0=    0 NMtDT0=    0
 Petite list used in FoFCou.
 Harris En= -3071.84401102745    
 JPrj=0 DoOrth=F DoCkMO=F.
 Initial guess orbital symmetries:
       Occupied  (A1) (A1) (A1) (A1) (E) (E) (A1) (A1) (A1) (A1)
                 (E) (E) (A1) (E) (E) (A1) (E) (E) (E) (E) (A1)
                 (A1) (A1) (E) (E) (A1) (E) (E) (E) (E) (A1)
       Virtual   (A1) (A1) (E) (E) (A1) (A1) (E) (E) (E) (E) (A1)
                 (E) (E) (A1) (A1) (A1) (E) (E) (E) (E) (A1) (A1)
                 (A1) (E) (E) (E) (E) (E) (E) (A1) (E) (E) (A1)
                 (E) (E) (A1) (E) (E) (A1) (A1) (A1) (E) (E) (A1)
                 (E) (E) (A1) (A1) (A1) (A1) (A1)
 The electronic state of the initial guess is 1-A1.
 Leave Link  401 at Mon Oct 14 23:37:03 2019, MaxMem=   280000000 cpu:               4.1 elap:               0.2
 (Enter /home/soft/g16/l502.exe)
 Keep R1 ints in memory in symmetry-blocked form, NReq=27510814.
 FoFCou: FMM=F IPFlag=           0 FMFlag=           0 FMFlg1=           0
         NFxFlg=           0 DoJE=F BraDBF=F KetDBF=F FulRan=T
         wScrn=  0.000000 ICntrl=       600 IOpCl=  0 I1Cent=           0 NGrid=           0
         NMat0=    1 NMatS0=   3403 NMatT0=    0 NMatD0=    1 NMtDS0=    0 NMtDT0=    0
 Petite list used in FoFCou.
 Closed shell SCF:
 Using DIIS extrapolation, IDIIS=  1040.
 NGot=   280000000 LenX=   276933098 LenY=   276925933
 Requested convergence on RMS density matrix=1.00D-08 within 128 cycles.
 Requested convergence on MAX density matrix=1.00D-06.
 Requested convergence on             energy=1.00D-06.
 No special actions if energy rises.

 Cycle   1  Pass 1  IDiag  1:
 E= -3071.50753599718    
 DIIS: error= 1.20D-01 at cycle   1 NSaved=   1.
 NSaved= 1 IEnMin= 1 EnMin= -3071.50753599718     IErMin= 1 ErrMin= 1.20D-01
 ErrMax= 1.20D-01  0.00D+00 EMaxC= 1.00D-01 BMatC= 4.55D-01 BMatP= 4.55D-01
 IDIUse=3 WtCom= 0.00D+00 WtEn= 1.00D+00
 Coeff-Com:  0.100D+01
 Coeff-En:   0.100D+01
 Coeff:      0.100D+01
 Gap=     0.127 Goal=   None    Shift=    0.000
 GapD=    0.127 DampG=1.000 DampE=0.250 DampFc=0.2500 IDamp=-1.
 Damping current iteration by 2.50D-01
 RMSDP=2.45D-01 MaxDP=8.27D+00              OVMax= 5.23D-01

 Cycle   2  Pass 1  IDiag  1:
 E= -3071.55147702935     Delta-E=       -0.043941032164 Rises=F Damp=T
 DIIS: error= 8.96D-02 at cycle   2 NSaved=   2.
 NSaved= 2 IEnMin= 2 EnMin= -3071.55147702935     IErMin= 2 ErrMin= 8.96D-02
 ErrMax= 8.96D-02  0.00D+00 EMaxC= 1.00D-01 BMatC= 2.22D-01 BMatP= 4.55D-01
 IDIUse=3 WtCom= 1.04D-01 WtEn= 8.96D-01
 Coeff-Com: -0.154D+01 0.254D+01
 Coeff-En:   0.000D+00 0.100D+01
 Coeff:     -0.161D+00 0.116D+01
 Gap=     0.093 Goal=   None    Shift=    0.000
 RMSDP=2.82D-02 MaxDP=8.99D-01 DE=-4.39D-02 OVMax= 2.94D-01

 Cycle   3  Pass 1  IDiag  1:
 E= -3071.63235958992     Delta-E=       -0.080882560570 Rises=F Damp=F
 DIIS: error= 1.07D-02 at cycle   3 NSaved=   3.
 NSaved= 3 IEnMin= 3 EnMin= -3071.63235958992     IErMin= 3 ErrMin= 1.07D-02
 ErrMax= 1.07D-02  0.00D+00 EMaxC= 1.00D-01 BMatC= 8.89D-03 BMatP= 2.22D-01
 IDIUse=3 WtCom= 8.93D-01 WtEn= 1.07D-01
 Coeff-Com:  0.542D+00-0.660D+00 0.112D+01
 Coeff-En:   0.000D+00 0.000D+00 0.100D+01
 Coeff:      0.484D+00-0.589D+00 0.111D+01
 Gap=     0.118 Goal=   None    Shift=    0.000
 RMSDP=1.29D-02 MaxDP=3.93D-01 DE=-8.09D-02 OVMax= 3.87D-02

 Cycle   4  Pass 1  IDiag  1:
 E= -3071.63994901638     Delta-E=       -0.007589426461 Rises=F Damp=F
 DIIS: error= 3.80D-03 at cycle   4 NSaved=   4.
 NSaved= 4 IEnMin= 4 EnMin= -3071.63994901638     IErMin= 4 ErrMin= 3.80D-03
 ErrMax= 3.80D-03  0.00D+00 EMaxC= 1.00D-01 BMatC= 1.26D-03 BMatP= 8.89D-03
 IDIUse=3 WtCom= 9.62D-01 WtEn= 3.80D-02
 Coeff-Com:  0.222D+00-0.282D+00 0.480D+00 0.580D+00
 Coeff-En:   0.000D+00 0.000D+00 0.000D+00 0.100D+01
 Coeff:      0.213D+00-0.271D+00 0.462D+00 0.596D+00
 Gap=     0.122 Goal=   None    Shift=    0.000
 RMSDP=3.84D-03 MaxDP=1.07D-01 DE=-7.59D-03 OVMax= 1.28D-02

 Cycle   5  Pass 1  IDiag  1:
 E= -3071.64114747108     Delta-E=       -0.001198454700 Rises=F Damp=F
 DIIS: error= 7.95D-04 at cycle   5 NSaved=   5.
 NSaved= 5 IEnMin= 5 EnMin= -3071.64114747108     IErMin= 5 ErrMin= 7.95D-04
 ErrMax= 7.95D-04  0.00D+00 EMaxC= 1.00D-01 BMatC= 6.12D-05 BMatP= 1.26D-03
 IDIUse=3 WtCom= 9.92D-01 WtEn= 7.95D-03
 Coeff-Com:  0.634D-01-0.823D-01 0.110D+00 0.219D+00 0.690D+00
 Coeff-En:   0.000D+00 0.000D+00 0.000D+00 0.000D+00 0.100D+01
 Coeff:      0.629D-01-0.816D-01 0.110D+00 0.217D+00 0.692D+00
 Gap=     0.120 Goal=   None    Shift=    0.000
 RMSDP=7.12D-04 MaxDP=1.79D-02 DE=-1.20D-03 OVMax= 4.16D-03

 Cycle   6  Pass 1  IDiag  1:
 E= -3071.64120690332     Delta-E=       -0.000059432237 Rises=F Damp=F
 DIIS: error= 1.76D-04 at cycle   6 NSaved=   6.
 NSaved= 6 IEnMin= 6 EnMin= -3071.64120690332     IErMin= 6 ErrMin= 1.76D-04
 ErrMax= 1.76D-04  0.00D+00 EMaxC= 1.00D-01 BMatC= 5.18D-06 BMatP= 6.12D-05
 IDIUse=3 WtCom= 9.98D-01 WtEn= 1.76D-03
 Coeff-Com:  0.189D-01-0.250D-01 0.244D-01 0.574D-01 0.316D+00 0.609D+00
 Coeff-En:   0.000D+00 0.000D+00 0.000D+00 0.000D+00 0.000D+00 0.100D+01
 Coeff:      0.188D-01-0.249D-01 0.244D-01 0.573D-01 0.315D+00 0.609D+00
 Gap=     0.121 Goal=   None    Shift=    0.000
 RMSDP=1.49D-04 MaxDP=4.57D-03 DE=-5.94D-05 OVMax= 1.24D-03

 Cycle   7  Pass 1  IDiag  1:
 E= -3071.64121259475     Delta-E=       -0.000005691432 Rises=F Damp=F
 DIIS: error= 5.75D-05 at cycle   7 NSaved=   7.
 NSaved= 7 IEnMin= 7 EnMin= -3071.64121259475     IErMin= 7 ErrMin= 5.75D-05
 ErrMax= 5.75D-05  0.00D+00 EMaxC= 1.00D-01 BMatC= 6.54D-07 BMatP= 5.18D-06
 IDIUse=1 WtCom= 1.00D+00 WtEn= 0.00D+00
 Coeff-Com:  0.561D-02-0.755D-02 0.254D-02 0.100D-01 0.122D+00 0.313D+00
 Coeff-Com:  0.554D+00
 Coeff:      0.561D-02-0.755D-02 0.254D-02 0.100D-01 0.122D+00 0.313D+00
 Coeff:      0.554D+00
 Gap=     0.121 Goal=   None    Shift=    0.000
 RMSDP=3.57D-05 MaxDP=7.07D-04 DE=-5.69D-06 OVMax= 3.93D-04

 Cycle   8  Pass 1  IDiag  1:
 E= -3071.64121331099     Delta-E=       -0.000000716243 Rises=F Damp=F
 DIIS: error= 1.65D-05 at cycle   8 NSaved=   8.
 NSaved= 8 IEnMin= 8 EnMin= -3071.64121331099     IErMin= 8 ErrMin= 1.65D-05
 ErrMax= 1.65D-05  0.00D+00 EMaxC= 1.00D-01 BMatC= 5.21D-08 BMatP= 6.54D-07
 IDIUse=1 WtCom= 1.00D+00 WtEn= 0.00D+00
 Coeff-Com:  0.545D-03-0.749D-03-0.172D-02-0.473D-02 0.420D-02 0.121D-01
 Coeff-Com:  0.195D+00 0.795D+00
 Coeff:      0.545D-03-0.749D-03-0.172D-02-0.473D-02 0.420D-02 0.121D-01
 Coeff:      0.195D+00 0.795D+00
 Gap=     0.121 Goal=   None    Shift=    0.000
 RMSDP=3.55D-05 MaxDP=8.88D-04 DE=-7.16D-07 OVMax= 1.84D-04

 Cycle   9  Pass 1  IDiag  1:
 E= -3071.64121338869     Delta-E=       -0.000000077699 Rises=F Damp=F
 DIIS: error= 3.30D-06 at cycle   9 NSaved=   9.
 NSaved= 9 IEnMin= 9 EnMin= -3071.64121338869     IErMin= 9 ErrMin= 3.30D-06
 ErrMax= 3.30D-06  0.00D+00 EMaxC= 1.00D-01 BMatC= 1.52D-09 BMatP= 5.21D-08
 IDIUse=1 WtCom= 1.00D+00 WtEn= 0.00D+00
 Coeff-Com:  0.673D-04-0.888D-04-0.905D-04-0.813D-03-0.409D-02-0.162D-01
 Coeff-Com: -0.168D-01 0.693D-01 0.969D+00
 Coeff:      0.673D-04-0.888D-04-0.905D-04-0.813D-03-0.409D-02-0.162D-01
 Coeff:     -0.168D-01 0.693D-01 0.969D+00
 Gap=     0.121 Goal=   None    Shift=    0.000
 RMSDP=1.28D-05 MaxDP=3.60D-04 DE=-7.77D-08 OVMax= 3.96D-05

 Cycle  10  Pass 1  IDiag  1:
 E= -3071.64121339118     Delta-E=       -0.000000002485 Rises=F Damp=F
 DIIS: error= 7.80D-07 at cycle  10 NSaved=  10.
 NSaved=10 IEnMin=10 EnMin= -3071.64121339118     IErMin=10 ErrMin= 7.80D-07
 ErrMax= 7.80D-07  0.00D+00 EMaxC= 1.00D-01 BMatC= 6.38D-11 BMatP= 1.52D-09
 IDIUse=1 WtCom= 1.00D+00 WtEn= 0.00D+00
 Coeff-Com:  0.268D-04-0.339D-04 0.104D-03 0.962D-04-0.121D-02-0.585D-02
 Coeff-Com: -0.190D-01-0.252D-01 0.315D+00 0.736D+00
 Coeff:      0.268D-04-0.339D-04 0.104D-03 0.962D-04-0.121D-02-0.585D-02
 Coeff:     -0.190D-01-0.252D-01 0.315D+00 0.736D+00
 Gap=     0.121 Goal=   None    Shift=    0.000
 RMSDP=2.56D-06 MaxDP=7.11D-05 DE=-2.48D-09 OVMax= 1.05D-05

 Cycle  11  Pass 1  IDiag  1:
 E= -3071.64121339126     Delta-E=       -0.000000000082 Rises=F Damp=F
 DIIS: error= 9.59D-08 at cycle  11 NSaved=  11.
 NSaved=11 IEnMin=11 EnMin= -3071.64121339126     IErMin=11 ErrMin= 9.59D-08
 ErrMax= 9.59D-08  0.00D+00 EMaxC= 1.00D-01 BMatC= 1.35D-12 BMatP= 6.38D-11
 IDIUse=1 WtCom= 1.00D+00 WtEn= 0.00D+00
 Coeff-Com: -0.286D-05 0.389D-05 0.840D-05 0.507D-04 0.123D-03 0.129D-03
 Coeff-Com: -0.906D-03-0.606D-02-0.262D-01 0.837D-01 0.949D+00
 Coeff:     -0.286D-05 0.389D-05 0.840D-05 0.507D-04 0.123D-03 0.129D-03
 Coeff:     -0.906D-03-0.606D-02-0.262D-01 0.837D-01 0.949D+00
 Gap=     0.121 Goal=   None    Shift=    0.000
 RMSDP=6.19D-07 MaxDP=1.75D-05 DE=-8.19D-11 OVMax= 2.38D-06

 Cycle  12  Pass 1  IDiag  1:
 E= -3071.64121339128     Delta-E=       -0.000000000019 Rises=F Damp=F
 DIIS: error= 2.07D-08 at cycle  12 NSaved=  12.
 NSaved=12 IEnMin=12 EnMin= -3071.64121339128     IErMin=12 ErrMin= 2.07D-08
 ErrMax= 2.07D-08  0.00D+00 EMaxC= 1.00D-01 BMatC= 3.45D-14 BMatP= 1.35D-12
 IDIUse=1 WtCom= 1.00D+00 WtEn= 0.00D+00
 Coeff-Com: -0.638D-06 0.841D-06-0.883D-06 0.245D-05 0.332D-04 0.891D-04
 Coeff-Com:  0.263D-03 0.775D-03-0.790D-02-0.141D-01 0.724D-01 0.948D+00
 Coeff:     -0.638D-06 0.841D-06-0.883D-06 0.245D-05 0.332D-04 0.891D-04
 Coeff:      0.263D-03 0.775D-03-0.790D-02-0.141D-01 0.724D-01 0.948D+00
 Gap=     0.121 Goal=   None    Shift=    0.000
 RMSDP=3.77D-08 MaxDP=9.68D-07 DE=-1.91D-11 OVMax= 2.77D-07

 Cycle  13  Pass 1  IDiag  1:
 E= -3071.64121339128     Delta-E=        0.000000000001 Rises=F Damp=F
 DIIS: error= 1.57D-09 at cycle  13 NSaved=  13.
 NSaved=13 IEnMin=12 EnMin= -3071.64121339128     IErMin=13 ErrMin= 1.57D-09
 ErrMax= 1.57D-09  0.00D+00 EMaxC= 1.00D-01 BMatC= 2.10D-16 BMatP= 3.45D-14
 IDIUse=1 WtCom= 1.00D+00 WtEn= 0.00D+00
 Coeff-Com: -0.570D-07 0.710D-07-0.250D-06-0.532D-06-0.323D-05-0.782D-05
 Coeff-Com:  0.306D-05 0.490D-04 0.329D-03-0.231D-03-0.109D-01-0.391D-01
 Coeff-Com:  0.105D+01
 Coeff:     -0.570D-07 0.710D-07-0.250D-06-0.532D-06-0.323D-05-0.782D-05
 Coeff:      0.306D-05 0.490D-04 0.329D-03-0.231D-03-0.109D-01-0.391D-01
 Coeff:      0.105D+01
 Gap=     0.121 Goal=   None    Shift=    0.000
 RMSDP=1.70D-09 MaxDP=3.33D-08 DE= 9.09D-13 OVMax= 2.83D-08

 SCF Done:  E(RB3LYP) =  -3071.64121339     A.U. after   13 cycles
            NFock= 13  Conv=0.17D-08     -V/T= 2.0052
 KE= 3.055629890329D+03 PE=-7.797380592175D+03 EE= 1.438056961577D+03
 Leave Link  502 at Mon Oct 14 23:37:03 2019, MaxMem=   280000000 cpu:              16.5 elap:               0.8
 (Enter /home/soft/g16/l801.exe)
 DoSCS=F DFT=T ScalE2(SS,OS)=  1.000000  1.000000
 Range of M.O.s used for correlation:     1    82
 NBasis=    82 NAE=    31 NBE=    31 NFC=     0 NFV=     0
 NROrb=     82 NOA=    31 NOB=    31 NVA=    51 NVB=    51

 **** Warning!!: The largest alpha MO coefficient is  0.20222037D+02

 Leave Link  801 at Mon Oct 14 23:37:04 2019, MaxMem=   280000000 cpu:               0.8 elap:               0.1
 (Enter /home/soft/g16/l1101.exe)
 Using compressed storage, NAtomX=     6.
 Will process      7 centers per pass.
 Leave Link 1101 at Mon Oct 14 23:37:04 2019, MaxMem=   280000000 cpu:               3.2 elap:               0.2
 (Enter /home/soft/g16/l1102.exe)
 Symmetrizing basis deriv contribution to polar:
 IMax=3 JMax=2 DiffMx= 0.00D+00
 Leave Link 1102 at Mon Oct 14 23:37:04 2019, MaxMem=   280000000 cpu:               1.4 elap:               0.1
 (Enter /home/soft/g16/l1110.exe)
 Forming Gx(P) for the SCF density, NAtomX=     6.
 Integral derivatives from FoFJK, PRISM(SPDF).
 Do as many integral derivatives as possible in FoFJK.
 G2DrvN: MDV=     279999420.
 G2DrvN: will do     7 centers at a time, making    1 passes.
 Calling FoFCou, ICntrl=  3107 FMM=F I1Cent=   0 AccDes= 0.00D+00.
 FoFJK:  IHMeth= 1 ICntrl=    3107 DoSepK=F KAlg= 0 I1Cent=           0 FoldK=F
 IRaf=         0 NMat=       1 IRICut=       1 DoRegI=T DoRafI=F ISym2E= 1 IDoP0=0 IntGTp=1.
 FoFCou: FMM=F IPFlag=           0 FMFlag=      100000 FMFlg1=           0
         NFxFlg=           0 DoJE=F BraDBF=F KetDBF=F FulRan=T
         wScrn=  0.000000 ICntrl=      3107 IOpCl=  0 I1Cent=           0 NGrid=           0
         NMat0=    1 NMatS0=      1 NMatT0=    0 NMatD0=    1 NMtDS0=    0 NMtDT0=    0
 Petite list used in FoFCou.
 End of G2Drv F.D. properties file   721 does not exist.
 End of G2Drv F.D. properties file   722 does not exist.
 End of G2Drv F.D. properties file   788 does not exist.
 Leave Link 1110 at Mon Oct 14 23:37:05 2019, MaxMem=   280000000 cpu:              20.5 elap:               0.9
 (Enter /home/soft/g16/l1002.exe)
 Minotr:  Closed shell wavefunction.
          IDoAtm=111111
          Direct CPHF calculation.
          Differentiating once with respect to nuclear coordinates.
          Using symmetry in CPHF.
          Requested convergence is 1.0D-08 RMS, and 1.0D-07 maximum.
          Secondary convergence is 1.0D-12 RMS, and 1.0D-12 maximum.
          NewPWx=T KeepS1=F KeepF1=F KeepIn=T MapXYZ=F SortEE=F KeepMc=T.
         1803 words used for storage of precomputed grid.
 Keep R1 ints in memory in symmetry-blocked form, NReq=27432247.
 FoFCou: FMM=F IPFlag=           0 FMFlag=           0 FMFlg1=           0
         NFxFlg=           0 DoJE=F BraDBF=F KetDBF=F FulRan=T
         wScrn=  0.000000 ICntrl=       600 IOpCl=  0 I1Cent=           0 NGrid=           0
         NMat0=    1 NMatS0=   3403 NMatT0=    0 NMatD0=    1 NMtDS0=    0 NMtDT0=    0
 Petite list used in FoFCou.
          MDV=     280000000 using IRadAn=       1.
          Solving linear equations simultaneously, MaxMat=       0.
          There are    15 degrees of freedom in the 1st order CPHF.  IDoFFX=4 NUNeed=    15.
     12 vectors produced by pass  0 Test12= 1.05D-14 6.67D-09 XBig12= 4.24D-01 2.66D-01.
 AX will form    12 AO Fock derivatives at one time.
     12 vectors produced by pass  1 Test12= 1.05D-14 6.67D-09 XBig12= 8.11D-02 9.96D-02.
     12 vectors produced by pass  2 Test12= 1.05D-14 6.67D-09 XBig12= 7.80D-03 2.92D-02.
     12 vectors produced by pass  3 Test12= 1.05D-14 6.67D-09 XBig12= 3.83D-04 6.91D-03.
     12 vectors produced by pass  4 Test12= 1.05D-14 6.67D-09 XBig12= 2.18D-06 4.99D-04.
     12 vectors produced by pass  5 Test12= 1.05D-14 6.67D-09 XBig12= 8.31D-09 2.77D-05.
     10 vectors produced by pass  6 Test12= 1.05D-14 6.67D-09 XBig12= 3.10D-11 1.39D-06.
      2 vectors produced by pass  7 Test12= 1.05D-14 6.67D-09 XBig12= 5.51D-14 4.11D-08.
 InvSVY:  IOpt=1 It=  1 EMax= 1.11D-15
 Solved reduced A of dimension    84 with    12 vectors.
 FullF1:  Do perturbations      4 to      15.
 End of Minotr F.D. properties file   721 does not exist.
 End of Minotr F.D. properties file   722 does not exist.
 End of Minotr F.D. properties file   788 does not exist.
 Leave Link 1002 at Mon Oct 14 23:37:06 2019, MaxMem=   280000000 cpu:              27.9 elap:               1.2
 (Enter /home/soft/g16/l601.exe)
 Copying SCF densities to generalized density rwf, IOpCl= 0 IROHF=0.

 **********************************************************************

            Population analysis using the SCF density.

 **********************************************************************

 Orbital symmetries:
       Occupied  (A1) (A1) (A1) (A1) (E) (E) (A1) (A1) (A1) (A1)
                 (E) (E) (A1) (E) (E) (A1) (E) (E) (E) (E) (A1)
                 (A1) (A1) (E) (E) (A1) (E) (E) (E) (E) (A1)
       Virtual   (A1) (A1) (E) (E) (A1) (E) (E) (A1) (E) (E) (A1)
                 (E) (E) (A1) (A1) (A1) (E) (E) (A1) (E) (E) (A1)
                 (A1) (E) (E) (E) (E) (E) (E) (A1) (E) (E) (A1)
                 (E) (E) (A1) (E) (E) (A1) (A1) (A1) (E) (E) (A1)
                 (E) (E) (A1) (A1) (A1) (A1) (A1)
 The electronic state is 1-A1.
 Alpha  occ. eigenvalues -- -482.68918-101.32525 -61.65419 -56.16927 -56.16694
 Alpha  occ. eigenvalues --  -56.16694 -10.04920  -9.24572  -8.36765  -7.00671
 Alpha  occ. eigenvalues --   -7.00078  -7.00078  -6.31716  -6.30864  -6.30864
 Alpha  occ. eigenvalues --   -2.43400  -2.43130  -2.43130  -2.42443  -2.42443
 Alpha  occ. eigenvalues --   -0.73043  -0.63129  -0.43567  -0.33309  -0.33309
 Alpha  occ. eigenvalues --   -0.25980  -0.13363  -0.13363  -0.05747  -0.05747
 Alpha  occ. eigenvalues --    0.00324
 Alpha virt. eigenvalues --    0.12380   0.15704   0.16966   0.16966   0.17453
 Alpha virt. eigenvalues --    0.21493   0.21493   0.24117   0.25055   0.25055
 Alpha virt. eigenvalues --    0.25129   0.31369   0.31369   0.32838   0.33823
 Alpha virt. eigenvalues --    0.47325   0.64999   0.64999   0.65724   0.70018
 Alpha virt. eigenvalues --    0.70018   0.72083   0.74569   0.77207   0.77207
 Alpha virt. eigenvalues --    0.80933   0.80933   0.81643   0.81643   0.91032
 Alpha virt. eigenvalues --    1.04673   1.04673   1.08986   1.09950   1.09950
 Alpha virt. eigenvalues --    1.13008   1.18089   1.18089   1.31331   1.44786
 Alpha virt. eigenvalues --    1.62581   1.93395   1.93395   1.98016   2.45999
 Alpha virt. eigenvalues --    2.45999   2.50745   4.32283   4.59186   9.10759
 Alpha virt. eigenvalues --   79.10503
          Condensed to atoms (all electrons):
               1          2          3          4          5          6
     1  C    9.125229   0.693319   0.693319   0.693319  -3.236426  -0.899178
     2  H    0.693319   0.587183   0.000775   0.000775  -0.345100  -0.199644
     3  H    0.693319   0.000775   0.587183   0.000775  -0.345100  -0.199644
     4  H    0.693319   0.000775   0.000775   0.587183  -0.345100  -0.199644
     5  Cl  -3.236426  -0.345100  -0.345100  -0.345100  20.755654   0.368343
     6  Br  -0.899178  -0.199644  -0.199644  -0.199644   0.368343  36.995990
 Mulliken charges:
               1
     1  C   -1.069582
     2  H    0.262692
     3  H    0.262692
     4  H    0.262692
     5  Cl   0.147730
     6  Br  -0.866224
 Sum of Mulliken charges =  -1.00000
 Mulliken charges with hydrogens summed into heavy atoms:
               1
     1  C   -0.281506
     5  Cl   0.147730
     6  Br  -0.866224
 APT charges:
               1
     1  C   -1.411922
     2  H    0.382893
     3  H    0.382893
     4  H    0.382893
     5  Cl   0.254235
     6  Br  -0.990994
 Sum of APT charges =  -1.00000
 APT charges with hydrogens summed into heavy atoms:
               1
     1  C   -0.263242
     5  Cl   0.254235
     6  Br  -0.990994
 Electronic spatial extent (au):  <R**2>=            666.5076
 Charge=             -1.0000 electrons
 Dipole moment (field-independent basis, Debye):
    X=              0.0000    Y=              0.0000    Z=              0.7656  Tot=              0.7656
 Quadrupole moment (field-independent basis, Debye-Ang):
   XX=            -44.9286   YY=            -44.9286   ZZ=            -74.7688
   XY=              0.0000   XZ=             -0.0000   YZ=              0.0000
 Traceless Quadrupole moment (field-independent basis, Debye-Ang):
   XX=              9.9467   YY=              9.9467   ZZ=            -19.8935
   XY=              0.0000   XZ=             -0.0000   YZ=              0.0000
 Octapole moment (field-independent basis, Debye-Ang**2):
  XXX=              0.0000  YYY=              0.6852  ZZZ=             56.4757  XYY=              0.0000
  XXY=             -0.6852  XXZ=              8.6684  XZZ=             -0.0000  YZZ=              0.0000
  YYZ=              8.6684  XYZ=             -0.0000
 Hexadecapole moment (field-independent basis, Debye-Ang**3):
 XXXX=            -86.3283 YYYY=            -86.3283 ZZZZ=           -991.7884 XXXY=              0.0000
 XXXZ=             -0.0000 YYYX=              0.0000 YYYZ=              0.0438 ZZZX=              0.0000
 ZZZY=              0.0000 XXYY=            -28.7761 XXZZ=           -162.4079 YYZZ=           -162.4079
 XXYZ=             -0.0438 YYXZ=             -0.0000 ZZXY=              0.0000
 N-N= 2.320525268776D+02 E-N=-7.797380592138D+03  KE= 3.055629890329D+03
 Symmetry A'   KE= 2.631166215220D+03
 Symmetry A"   KE= 4.244636751090D+02
  Exact polarizability:   0.000   0.000   0.000   0.000   0.000   0.000
 Approx polarizability:  80.364  -0.000  80.364   0.000   0.000 232.445
 No NMR shielding tensors so no spin-rotation constants.
 Leave Link  601 at Mon Oct 14 23:37:06 2019, MaxMem=   280000000 cpu:               6.4 elap:               0.4
 (Enter /home/soft/g16/l701.exe)
 ... and contract with generalized density number  0.
 Compute integral second derivatives.
 Leave Link  701 at Mon Oct 14 23:37:07 2019, MaxMem=   280000000 cpu:               3.7 elap:               0.2
 (Enter /home/soft/g16/l702.exe)
 L702 exits ... SP integral derivatives will be done elsewhere.
 Leave Link  702 at Mon Oct 14 23:37:07 2019, MaxMem=   280000000 cpu:               0.7 elap:               0.1
 (Enter /home/soft/g16/l703.exe)
 Integral derivatives from FoFJK, PRISM(SPDF).
 Compute integral second derivatives, UseDBF=F ICtDFT=           0.
 Calling FoFJK, ICntrl=    100147 FMM=F ISym2X=1 I1Cent= 0 IOpClX= 0 NMat=1 NMatS=1 NMatT=0.
 FoFJK:  IHMeth= 1 ICntrl=  100147 DoSepK=F KAlg= 0 I1Cent=           0 FoldK=F
 IRaf=         0 NMat=       1 IRICut=       1 DoRegI=T DoRafI=F ISym2E= 1 IDoP0=0 IntGTp=1.
 FoFCou: FMM=F IPFlag=           0 FMFlag=      100000 FMFlg1=         800
         NFxFlg=           0 DoJE=F BraDBF=F KetDBF=F FulRan=T
         wScrn=  0.000000 ICntrl=    100147 IOpCl=  0 I1Cent=           0 NGrid=           0
         NMat0=    1 NMatS0=      1 NMatT0=    0 NMatD0=    1 NMtDS0=    0 NMtDT0=    0
 Petite list used in FoFCou.
 Leave Link  703 at Mon Oct 14 23:37:08 2019, MaxMem=   280000000 cpu:              32.2 elap:               1.4
 (Enter /home/soft/g16/l716.exe)
 Dipole        = 3.83213489D-16 1.77427245D-16 3.01217775D-01
 Polarizability= 0.00000000D+00 0.00000000D+00 0.00000000D+00
                 0.00000000D+00 0.00000000D+00 0.00000000D+00
 ***** Axes restored to original set *****
 -------------------------------------------------------------------
 Center     Atomic                   Forces (Hartrees/Bohr)
 Number     Number              X              Y              Z
 -------------------------------------------------------------------
      1        6          -0.054488819    0.000000671   -0.000000000
      2        1          -0.071486555   -0.031362425   -0.000000002
      3        1          -0.071485975    0.015682532    0.027161420
      4        1          -0.071485975    0.015682536   -0.027161418
      5       17          -0.135207364    0.000001666    0.000000000
      6       35           0.404154687   -0.000004981   -0.000000000
 -------------------------------------------------------------------
 Cartesian Forces:  Max     0.404154687 RMS     0.106163621
 Force constants in Cartesian coordinates: 
                1             2             3             4             5 
      1  0.176054D+00
      2  0.336542D-05  0.570646D+00
      3  0.000000D+00  0.000000D+00  0.570650D+00
      4 -0.820041D-03  0.958495D-01  0.000000D+00  0.116449D+00
      5  0.110045D+00 -0.334508D+00  0.000000D+00 -0.564816D-01  0.345121D+00
      6  0.000000D+00  0.000000D+00 -0.595740D-01  0.000000D+00  0.000000D+00
      7 -0.823402D-03 -0.479277D-01 -0.830132D-01 -0.123545D-03 -0.105715D-02
      8 -0.550261D-01 -0.128305D+00 -0.119048D+00  0.129806D-02 -0.262249D-02
      9 -0.953070D-01 -0.119047D+00 -0.265773D+00  0.471237D-03  0.265375D-02
     10 -0.823402D-03 -0.479277D-01  0.830132D-01 -0.123545D-03 -0.105715D-02
     11 -0.550261D-01 -0.128305D+00  0.119048D+00  0.129806D-02 -0.262249D-02
     12  0.953070D-01  0.119047D+00 -0.265773D+00 -0.471237D-03 -0.265376D-02
     13 -0.602479D-01  0.218909D-05  0.000000D+00 -0.242578D-01  0.641757D-02
     14  0.180455D-05 -0.159964D-01  0.000000D+00  0.107320D-01  0.492719D-02
     15  0.000000D+00  0.000000D+00 -0.159990D-01  0.000000D+00  0.000000D+00
     16 -0.113340D+00  0.000000D+00  0.000000D+00 -0.911244D-01 -0.578666D-01
     17  0.183971D-05  0.364689D-01  0.000000D+00 -0.526960D-01 -0.102950D-01
     18  0.000000D+00  0.000000D+00  0.364693D-01  0.000000D+00  0.000000D+00
                6             7             8             9            10 
      6  0.248039D-01
      7 -0.888820D-03  0.116451D+00
      8 -0.196620D-01  0.282421D-01  0.104882D+00
      9  0.719721D-02  0.489186D-01  0.138700D+00  0.265040D+00
     10  0.888820D-03 -0.123554D-03 -0.240820D-03  0.135964D-02  0.116451D+00
     11  0.196620D-01 -0.240820D-03  0.121071D-01 -0.111579D-01  0.282421D-01
     12  0.719721D-02 -0.135964D-02  0.111579D-01 -0.753234D-02 -0.489186D-01
     13  0.000000D+00 -0.242586D-01 -0.320828D-02 -0.555730D-02 -0.242586D-01
     14  0.000000D+00 -0.536584D-02  0.433629D-02  0.341163D-03 -0.536584D-02
     15  0.413924D-02 -0.929380D-02  0.341514D-03  0.473053D-02  0.929380D-02
     16  0.000000D+00 -0.911216D-01  0.289353D-01  0.501150D-01 -0.911216D-01
     17  0.000000D+00  0.263497D-01  0.960269D-02 -0.114896D-01  0.263497D-01
     18  0.162366D-01  0.456367D-01 -0.114897D-01 -0.366310D-02 -0.456367D-01
               11            12            13            14            15 
     11  0.104882D+00
     12 -0.138700D+00  0.265040D+00
     13 -0.320828D-02  0.555730D-02  0.212865D+00
     14  0.433629D-02 -0.341163D-03 -0.412206D-05 -0.128565D-01
     15 -0.341514D-03  0.473053D-02  0.000000D+00  0.000000D+00 -0.128546D-01
     16  0.289353D-01 -0.501150D-01 -0.798414D-01  0.269285D-05  0.000000D+00
     17  0.960269D-02  0.114896D-01  0.000000D+00  0.152533D-01  0.000000D+00
     18  0.114897D-01 -0.366310D-02  0.000000D+00  0.000000D+00  0.152530D-01
               16            17            18 
     16  0.466547D+00
     17 -0.631362D-05 -0.606327D-01
     18  0.000000D+00  0.000000D+00 -0.606327D-01
 FormGI is forming the generalized inverse of G from B-inverse, IUseBI=4.
 Force constants in internal coordinates: 
                1             2             3             4             5 
      1  0.355215D+00
      2 -0.227156D-03  0.355215D+00
      3 -0.227156D-03 -0.227267D-03  0.355215D+00
      4  0.141363D-01  0.141364D-01  0.141364D-01  0.212865D+00
      5  0.241838D-01  0.241844D-01  0.241844D-01  0.798414D-01  0.466548D+00
      6 -0.163281D-02 -0.163277D-02 -0.500121D-03 -0.611933D-02  0.310513D-01
      7 -0.243675D-02 -0.111886D-02 -0.253287D-02 -0.989389D-02  0.502044D-01
      8  0.398536D-02  0.382040D-03  0.524070D-03  0.795009D-02 -0.403369D-01
      9 -0.115221D-01  0.338608D-02  0.324405D-02 -0.794880D-02  0.403383D-01
     10 -0.111890D-02 -0.243671D-02 -0.253290D-02 -0.989401D-02  0.502044D-01
     11  0.382300D-03  0.414915D-02  0.360681D-03  0.794914D-02 -0.403380D-01
     12  0.338609D-02 -0.113583D-01  0.308033D-02 -0.794979D-02  0.403373D-01
     13  0.820812D-03  0.657151D-03  0.468113D-02  0.100080D-01 -0.507852D-01
     14  0.294757D-02  0.278386D-02 -0.118903D-01 -0.100086D-01  0.507845D-01
     15 -0.753677D-02  0.376812D-02  0.376812D-02  0.129170D-05  0.137727D-05
     16  0.000000D+00  0.652185D-02 -0.652185D-02  0.000000D+00  0.000000D+00
     17  0.417716D-02  0.417706D-02  0.371465D-02  0.196122D-01 -0.995174D-01
     18  0.674852D-03  0.775048D-03 -0.707225D-04  0.224163D-02 -0.113732D-01
     19 -0.298251D-02 -0.288223D-02  0.448540D-02 -0.224124D-02  0.113736D-01
     20  0.412335D-04  0.733943D-03 -0.854043D-04  0.112045D-02 -0.568697D-02
     21  0.226642D-02 -0.514862D-02  0.219258D-02 -0.112085D-02  0.568654D-02
     22 -0.633618D-03 -0.411047D-04 -0.146817D-04 -0.112118D-02  0.568620D-02
     23  0.524893D-02 -0.226639D-02 -0.229281D-02  0.112039D-02 -0.568705D-02
                6             7             8             9            10 
      6  0.125924D-01
      7 -0.277667D-02  0.245275D-01
      8 -0.924062D-02 -0.156753D-01  0.570735D-01
      9  0.167857D-01  0.238132D-01 -0.457466D-01  0.117980D+00
     10 -0.277667D-02  0.699661D-02  0.100438D-01 -0.282413D-01  0.245275D-01
     11 -0.956876D-02  0.104532D-01 -0.260486D-01  0.211606D-01 -0.156476D-01
     12  0.164576D-01 -0.278319D-01  0.210785D-01 -0.592578D-01  0.238410D-01
     13  0.117703D-01 -0.235254D-01 -0.161527D-01  0.122284D-01 -0.231436D-01
     14 -0.262042D-01  0.327661D-01  0.979592D-02 -0.463646D-01  0.331478D-01
     15  0.754504D-02  0.813791D-02  0.113269D-01  0.722333D-01 -0.181976D-01
     16 -0.130574D-01  0.163010D-01 -0.849125D-03  0.242559D-02  0.110884D-02
     17 -0.120217D-01 -0.159038D-01  0.147660D-01 -0.178465D-01 -0.159038D-01
     18  0.390409D-02 -0.659858D-02  0.768137D-02  0.550238D-02 -0.683232D-02
     19  0.493481D-02  0.939781D-03 -0.378865D-02  0.154017D-01  0.706048D-03
     20  0.185157D-02 -0.603455D-02 -0.586053D-02 -0.863954D-02 -0.547050D-03
     21  0.236694D-02 -0.460769D-02  0.281694D-02 -0.146901D-01  0.556448D-02
     22 -0.205252D-02  0.564030D-03 -0.135419D-01 -0.141419D-01  0.628527D-02
     23 -0.256786D-02 -0.554747D-02  0.660559D-02 -0.300918D-01  0.485843D-02
               11            12            13            14            15 
     11  0.566117D-01
     12 -0.474917D-01  0.114952D+00
     13 -0.157999D-01  0.139466D-01  0.668513D-01
     14  0.115680D-01 -0.432272D-01 -0.610736D-01  0.129302D+00
     15 -0.488805D-02 -0.381793D-01 -0.392426D-02 -0.365687D-01  0.835603D-01
     16 -0.817637D-02 -0.592413D-01  0.467302D-02  0.611682D-01  0.157647D-02
     17  0.149002D-01 -0.177124D-01  0.141631D-01 -0.827039D-02 -0.308049D-02
     18  0.699669D-02  0.398159D-02 -0.515125D-02 -0.190108D-01  0.131838D-01
     19 -0.440516D-02  0.139491D-01  0.161318D-02 -0.227702D-01  0.116130D-01
     20  0.128244D-01  0.126386D-01 -0.223387D-02 -0.872908D-02 -0.145001D-01
     21 -0.723958D-02  0.286720D-01  0.109891D-02 -0.106582D-01 -0.118732D-01
     22  0.582773D-02  0.865701D-02  0.291738D-02  0.102817D-01 -0.276838D-01
     23 -0.283442D-02  0.147229D-01 -0.514271D-03  0.121120D-01 -0.234862D-01
               16            17            18            19            20 
     16  0.816040D-01
     17  0.533067D-02  0.342016D-01
     18 -0.215190D-01  0.344320D-02  0.137700D-01
     19 -0.188004D-01 -0.705174D-02  0.102621D-02  0.119297D-01
     20 -0.223063D-01  0.176269D-02  0.653220D-02  0.181208D-03  0.123476D-01
     21 -0.189785D-01 -0.348482D-02  0.190595D-03  0.566324D-02  0.324528D-02
     22 -0.787302D-03 -0.168051D-02 -0.723775D-02 -0.845003D-03  0.581537D-02
     23 -0.178083D-03  0.356692D-02 -0.835616D-03 -0.626651D-02  0.306408D-02
               21            22            23 
     21  0.987937D-02
     22  0.305469D-02  0.130531D-01
     23  0.421613D-02  0.389969D-02  0.104826D-01
 Leave Link  716 at Mon Oct 14 23:37:08 2019, MaxMem=   280000000 cpu:               0.8 elap:               0.1
 (Enter /home/soft/g16/l103.exe)

 GradGradGradGradGradGradGradGradGradGradGradGradGradGradGradGradGradGrad
 Berny optimization.
 Red2BG is reusing G-inverse.
 Internal  Forces:  Max     0.404154687 RMS     0.092556770
 Step   1 in ReCalcFC= 3 IGetFC= 4 recover analytic Hessian.
 Search for a local minimum.
 Step number   1 out of a maximum of   33
 All quantities printed in internal units (Hartrees-Bohrs-Radians)
 RMS Force = .92557D-01 SwitMx=.10000D-02 MixMth= 1
 Mixed Optimization -- RFO/linear search
 Second derivative matrix not updated -- analytic derivatives used.
 ITU=  0
     Eigenvalues ---    0.00622   0.00683   0.02455   0.09882   0.11030
     Eigenvalues ---    0.21399   0.26252   0.27349   0.35241   0.35919
     Eigenvalues ---    0.35974   0.55224
 RFO step:  Lambda=-2.51037626D-01 EMin= 6.22006628D-03
 Linear search not attempted -- first point.
 Maximum step size (   0.300) exceeded in Quadratic search.
    -- Step size scaled by   0.532
 Iteration  1 RMS(Cart)=  0.04973541 RMS(Int)=  0.01503519
 Iteration  2 RMS(Cart)=  0.01371299 RMS(Int)=  0.00019102
 Iteration  3 RMS(Cart)=  0.00000008 RMS(Int)=  0.00019102
 ITry= 1 IFail=0 DXMaxC= 2.64D-01 DCOld= 1.00D+10 DXMaxT= 3.00D-01 DXLimC= 3.00D+00 Rises=F
 ClnCor:  largest displacement from symmetrization is 2.94D-03 for atom     3.
 Variable       Old X    -DE/DX   Delta X   Delta X   Delta X     New X
                                 (Linear)    (Quad)   (Total)
    R1        2.02201   0.00574   0.00000  -0.00770  -0.00804   2.01397
    R2        2.02201   0.00574   0.00000  -0.00770  -0.00804   2.01397
    R3        2.02201   0.00574   0.00000  -0.00775  -0.00804   2.01397
    R4        3.32592   0.13521   0.00000   0.11380   0.11380   3.43972
    R5        3.44469   0.40415   0.00000   0.27201   0.27201   3.71670
    A1        1.91063   0.02298   0.00000   0.01451   0.01706   1.92770
    A2        1.91063   0.03715   0.00000   0.01941   0.01706   1.92770
    A3        1.91063  -0.02985   0.00000  -0.01740  -0.01739   1.89324
    A4        1.23096   0.02985   0.00000   0.01759   0.01739   1.24835
    A5        1.91063   0.03715   0.00000   0.01941   0.01706   1.92770
    A6        1.91063  -0.02985   0.00000  -0.01740  -0.01739   1.89324
    A7        1.23096   0.02985   0.00000   0.01759   0.01739   1.24835
    A8        1.91063  -0.03758   0.00000  -0.01854  -0.01739   1.89324
    A9        1.23096   0.03758   0.00000   0.01816   0.01739   1.24835
   A10        3.14159   0.00000   0.00000   0.00020   0.00000   3.14159
   A11        3.14159  -0.00000   0.00000  -0.00035   0.00000   3.14159
    D1       -2.09439  -0.07365   0.00000  -0.04155  -0.04325  -2.13764
    D2        2.09440  -0.00842   0.00000  -0.00353   0.00000   2.09440
    D3       -2.09440   0.00842   0.00000   0.00377   0.00000  -2.09440
    D4       -2.09440  -0.00421   0.00000  -0.00177   0.00000  -2.09440
    D5        2.09440   0.00421   0.00000   0.00188  -0.00000   2.09440
    D6        2.09440   0.00421   0.00000   0.00177   0.00000   2.09440
    D7       -2.09440  -0.00421   0.00000  -0.00189   0.00000  -2.09440
         Item               Value     Threshold  Converged?
 Maximum Force            0.404155     0.000450     NO 
 RMS     Force            0.092557     0.000300     NO 
 Maximum Displacement     0.263812     0.001800     NO 
 RMS     Displacement     0.062693     0.001200     NO 
 Predicted change in Energy=-1.094621D-01
 Lowest energy point so far.  Saving SCF results.
 Step   1 in ReCalcFC= 3 IGetFC= 0 compute gradient.
 GradGradGradGradGradGradGradGradGradGradGradGradGradGradGradGradGradGrad

 Leave Link  103 at Mon Oct 14 23:37:08 2019, MaxMem=   280000000 cpu:               3.8 elap:               0.2
 (Enter /home/soft/g16/l202.exe)
                          Input orientation:                          
 ---------------------------------------------------------------------
 Center     Atomic      Atomic             Coordinates (Angstroms)
 Number     Number       Type             X           Y           Z
 ---------------------------------------------------------------------
      1          6           0       -0.986251   -0.839793    0.000000
      2          1           0       -0.648540   -1.850618   -0.000000
      3          1           0       -0.648521   -0.334387    0.875396
      4          1           0       -0.648521   -0.334387   -0.875396
      5         17           0       -2.806473   -0.839771    0.000000
      6         35           0        0.980542   -0.839817    0.000000
 ---------------------------------------------------------------------
                    Distance matrix (angstroms):
                    1          2          3          4          5
     1  C    0.000000
     2  H    1.065746   0.000000
     3  H    1.065746   1.750793   0.000000
     4  H    1.065746   1.750793   1.750793   0.000000
     5  Cl   1.820222   2.382958   2.382958   2.382958   0.000000
     6  Br   1.966793   1.917192   1.917192   1.917192   3.787015
                    6
     6  Br   0.000000
 Stoichiometry    CH3BrCl(1-)
 Framework group  C3V[C3(ClCBr),3SGV(H)]
 Deg. of freedom     4
 Full point group                 C3V     NOp   6
 RotChk:  IX=0 Diff= 1.69D-15
 Largest Abelian subgroup         CS      NOp   2
 Largest concise Abelian subgroup CS      NOp   2
                         Standard orientation:                         
 ---------------------------------------------------------------------
 Center     Atomic      Atomic             Coordinates (Angstroms)
 Number     Number       Type             X           Y           Z
 ---------------------------------------------------------------------
      1          6           0        0.000000   -0.000000   -0.637822
      2          1           0        0.000000    1.010821   -0.300098
      3          1           0        0.875396   -0.505410   -0.300098
      4          1           0       -0.875396   -0.505410   -0.300098
      5         17           0        0.000000   -0.000000   -2.458044
      6         35           0       -0.000000    0.000000    1.328971
 ---------------------------------------------------------------------
 Rotational constants (GHZ):         163.5922326           1.4174965           1.4174965
 Leave Link  202 at Mon Oct 14 23:37:08 2019, MaxMem=   280000000 cpu:               0.7 elap:               0.1
 (Enter /home/soft/g16/l301.exe)
 Standard basis: 6-31+G(d) (6D, 7F)
 Ernie: Thresh=  0.10000D-02 Tol=  0.10000D-05 Strict=F.
 There are    60 symmetry adapted cartesian basis functions of A'  symmetry.
 There are    22 symmetry adapted cartesian basis functions of A"  symmetry.
 There are    60 symmetry adapted basis functions of A'  symmetry.
 There are    22 symmetry adapted basis functions of A"  symmetry.
    82 basis functions,   187 primitive gaussians,    82 cartesian basis functions
    31 alpha electrons       31 beta electrons
       nuclear repulsion energy       219.4489627304 Hartrees.
 IExCor=  402 DFT=T Ex+Corr=B3LYP ExCW=0 ScaHFX=  0.200000
 ScaDFX=  0.800000  0.720000  1.000000  0.810000 ScalE2=  1.000000  1.000000
 IRadAn=      5 IRanWt=     -1 IRanGd=            0 ICorTp=0 IEmpDi=  4
 NAtoms=    6 NActive=    6 NUniq=    4 SFac= 2.25D+00 NAtFMM=   60 NAOKFM=F Big=F
 Integral buffers will be    131072 words long.
 Raffenetti 2 integral format.
 Two-electron integral symmetry is turned on.
 Leave Link  301 at Mon Oct 14 23:37:08 2019, MaxMem=   280000000 cpu:               1.2 elap:               0.1
 (Enter /home/soft/g16/l302.exe)
 NPDir=0 NMtPBC=     1 NCelOv=     1 NCel=       1 NClECP=     1 NCelD=      1
         NCelK=      1 NCelE2=     1 NClLst=     1 CellRange=     0.0.
 One-electron integrals computed using PRISM.
 One-electron integral symmetry used in STVInt
 NBasis=    82 RedAO= T EigKep=  5.40D-04  NBF=    60    22
 NBsUse=    82 1.00D-06 EigRej= -1.00D+00 NBFU=    60    22
 Precomputing XC quadrature grid using
 IXCGrd= 4 IRadAn=           5 IRanWt=          -1 IRanGd=           0 AccXCQ= 0.00D+00.
 Generated NRdTot=       0 NPtTot=           0 NUsed=           0 NTot=          32
 NSgBfM=    82    82    82    82    82 MxSgAt=     6 MxSgA2=     6.
 Leave Link  302 at Mon Oct 14 23:37:09 2019, MaxMem=   280000000 cpu:               4.9 elap:               0.2
 (Enter /home/soft/g16/l303.exe)
 DipDrv:  MaxL=1.
 Leave Link  303 at Mon Oct 14 23:37:09 2019, MaxMem=   280000000 cpu:               1.2 elap:               0.1
 (Enter /home/soft/g16/l401.exe)
 Initial guess from the checkpoint file:  "R_6-31+gs.chk"
 B after Tr=    -0.000000    0.000000   -0.000000
         Rot=    1.000000   -0.000000   -0.000000    0.000000 Ang=   0.00 deg.
 Guess basis will be translated and rotated to current coordinates.
 JPrj=2 DoOrth=T DoCkMO=T.
 Initial guess orbital symmetries:
       Occupied  (A1) (A1) (A1) (A1) (E) (E) (A1) (A1) (A1) (A1)
                 (E) (E) (A1) (E) (E) (A1) (E) (E) (E) (E) (A1)
                 (A1) (A1) (E) (E) (A1) (E) (E) (E) (E) (A1)
       Virtual   (A1) (A1) (E) (E) (A1) (E) (E) (A1) (E) (E) (A1)
                 (E) (E) (A1) (A1) (A1) (E) (E) (A1) (E) (E) (A1)
                 (A1) (E) (E) (E) (E) (E) (E) (A1) (E) (E) (A1)
                 (E) (E) (A1) (E) (E) (A1) (A1) (A1) (E) (E) (A1)
                 (E) (E) (A1) (A1) (A1) (A1) (A1)
 The electronic state of the initial guess is 1-A1.
 Generating alternative initial guess.
 ExpMin= 3.50D-02 ExpMax= 5.74D+05 ExpMxC= 5.74D+03 IAcc=3 IRadAn=         5 AccDes= 0.00D+00
 Harris functional with IExCor=  402 and IRadAn=       5 diagonalized for initial guess.
 HarFok:  IExCor=  402 AccDes= 0.00D+00 IRadAn=         5 IDoV= 1 UseB2=F ITyADJ=14
 ICtDFT=  3500011 ScaDFX=  1.000000  1.000000  1.000000  1.000000
 FoFCou: FMM=F IPFlag=           0 FMFlag=      100000 FMFlg1=           0
         NFxFlg=           0 DoJE=T BraDBF=F KetDBF=T FulRan=T
         wScrn=  0.000000 ICntrl=       500 IOpCl=  0 I1Cent=   200000004 NGrid=           0
         NMat0=    1 NMatS0=      1 NMatT0=    0 NMatD0=    1 NMtDS0=    0 NMtDT0=    0
 Petite list used in FoFCou.
 Harris En= -3071.95554991640    
 Leave Link  401 at Mon Oct 14 23:37:09 2019, MaxMem=   280000000 cpu:               8.4 elap:               0.4
 (Enter /home/soft/g16/l502.exe)
 Keep R1 ints in memory in symmetry-blocked form, NReq=27510814.
 FoFCou: FMM=F IPFlag=           0 FMFlag=           0 FMFlg1=           0
         NFxFlg=           0 DoJE=F BraDBF=F KetDBF=F FulRan=T
         wScrn=  0.000000 ICntrl=       600 IOpCl=  0 I1Cent=           0 NGrid=           0
         NMat0=    1 NMatS0=   3403 NMatT0=    0 NMatD0=    1 NMtDS0=    0 NMtDT0=    0
 Petite list used in FoFCou.
 Closed shell SCF:
 Using DIIS extrapolation, IDIIS=  1040.
 NGot=   280000000 LenX=   276933098 LenY=   276925933
 Requested convergence on RMS density matrix=1.00D-08 within 128 cycles.
 Requested convergence on MAX density matrix=1.00D-06.
 Requested convergence on             energy=1.00D-06.
 No special actions if energy rises.

 Cycle   1  Pass 1  IDiag  1:
 E= -3071.73761305513    
 DIIS: error= 5.13D-02 at cycle   1 NSaved=   1.
 NSaved= 1 IEnMin= 1 EnMin= -3071.73761305513     IErMin= 1 ErrMin= 5.13D-02
 ErrMax= 5.13D-02  0.00D+00 EMaxC= 1.00D-01 BMatC= 1.80D-01 BMatP= 1.80D-01
 IDIUse=3 WtCom= 4.87D-01 WtEn= 5.13D-01
 Coeff-Com:  0.100D+01
 Coeff-En:   0.100D+01
 Coeff:      0.100D+01
 Recover alternate guess density for next cycle.
 RMSDP=3.21D-02 MaxDP=6.32D-01              OVMax= 0.00D+00

 Cycle   2  Pass 1  IDiag  1:
 E= -3071.62716664120     Delta-E=        0.110446413929 Rises=F Damp=F
 Switch densities from cycles 1 and 2 for lowest energy.
 DIIS: error= 9.70D-02 at cycle   2 NSaved=   2.
 NSaved= 2 IEnMin= 1 EnMin= -3071.73761305513     IErMin= 1 ErrMin= 5.13D-02
 ErrMax= 9.70D-02  0.00D+00 EMaxC= 1.00D+00 BMatC= 4.45D-01 BMatP= 1.80D-01
 IDIUse=1 WtCom= 1.00D+00 WtEn= 0.00D+00
 Coeff-Com:  0.715D+00 0.285D+00
 Coeff:      0.715D+00 0.285D+00
 Gap=     0.149 Goal=   None    Shift=    0.000
 RMSDP=6.77D-03 MaxDP=1.52D-01 DE= 1.10D-01 OVMax= 7.46D-02

 Cycle   3  Pass 1  IDiag  1:
 E= -3071.73906904898     Delta-E=       -0.111902407772 Rises=F Damp=F
 DIIS: error= 1.23D-02 at cycle   3 NSaved=   3.
 NSaved= 3 IEnMin= 3 EnMin= -3071.73906904898     IErMin= 3 ErrMin= 1.23D-02
 ErrMax= 1.23D-02  0.00D+00 EMaxC= 1.00D+00 BMatC= 1.16D-02 BMatP= 1.80D-01
 IDIUse=1 WtCom= 1.00D+00 WtEn= 0.00D+00
 Coeff-Com:  0.449D-01 0.752D-01 0.880D+00
 Coeff:      0.449D-01 0.752D-01 0.880D+00
 Gap=     0.158 Goal=   None    Shift=    0.000
 RMSDP=1.64D-02 MaxDP=3.73D-01 DE=-1.12D-01 OVMax= 7.93D-02

 Cycle   4  Pass 1  IDiag  1:
 E= -3071.73909135050     Delta-E=       -0.000022301521 Rises=F Damp=F
 DIIS: error= 1.20D-02 at cycle   4 NSaved=   4.
 NSaved= 4 IEnMin= 4 EnMin= -3071.73909135050     IErMin= 4 ErrMin= 1.20D-02
 ErrMax= 1.20D-02  0.00D+00 EMaxC= 1.00D+00 BMatC= 1.24D-02 BMatP= 1.16D-02
 IDIUse=1 WtCom= 1.00D+00 WtEn= 0.00D+00
 Coeff-Com: -0.230D-03 0.941D-02 0.514D+00 0.477D+00
 Coeff:     -0.230D-03 0.941D-02 0.514D+00 0.477D+00
 Gap=     0.145 Goal=   None    Shift=    0.000
 RMSDP=5.40D-03 MaxDP=1.13D-01 DE=-2.23D-05 OVMax= 3.70D-02

 Cycle   5  Pass 1  IDiag  1:
 E= -3071.75228604691     Delta-E=       -0.013194696410 Rises=F Damp=F
 DIIS: error= 4.09D-04 at cycle   5 NSaved=   5.
 NSaved= 5 IEnMin= 5 EnMin= -3071.75228604691     IErMin= 5 ErrMin= 4.09D-04
 ErrMax= 4.09D-04  0.00D+00 EMaxC= 1.00D+00 BMatC= 2.84D-05 BMatP= 1.16D-02
 IDIUse=1 WtCom= 1.00D+00 WtEn= 0.00D+00
 Coeff-Com: -0.206D-03 0.212D-02 0.160D+00 0.147D+00 0.691D+00
 Coeff:     -0.206D-03 0.212D-02 0.160D+00 0.147D+00 0.691D+00
 Gap=     0.143 Goal=   None    Shift=    0.000
 RMSDP=2.04D-04 MaxDP=2.65D-03 DE=-1.32D-02 OVMax= 3.42D-03

 Cycle   6  Pass 1  IDiag  1:
 E= -3071.75231641568     Delta-E=       -0.000030368769 Rises=F Damp=F
 DIIS: error= 2.67D-04 at cycle   6 NSaved=   6.
 NSaved= 6 IEnMin= 6 EnMin= -3071.75231641568     IErMin= 6 ErrMin= 2.67D-04
 ErrMax= 2.67D-04  0.00D+00 EMaxC= 1.00D+00 BMatC= 7.31D-06 BMatP= 2.84D-05
 IDIUse=1 WtCom= 1.00D+00 WtEn= 0.00D+00
 Coeff-Com: -0.949D-04 0.482D-04 0.462D-01 0.411D-01 0.331D+00 0.582D+00
 Coeff:     -0.949D-04 0.482D-04 0.462D-01 0.411D-01 0.331D+00 0.582D+00
 Gap=     0.143 Goal=   None    Shift=    0.000
 RMSDP=1.92D-04 MaxDP=3.89D-03 DE=-3.04D-05 OVMax= 1.70D-03

 Cycle   7  Pass 1  IDiag  1:
 E= -3071.75232385914     Delta-E=       -0.000007443462 Rises=F Damp=F
 DIIS: error= 5.09D-05 at cycle   7 NSaved=   7.
 NSaved= 7 IEnMin= 7 EnMin= -3071.75232385914     IErMin= 7 ErrMin= 5.09D-05
 ErrMax= 5.09D-05  0.00D+00 EMaxC= 1.00D+00 BMatC= 5.47D-07 BMatP= 7.31D-06
 IDIUse=1 WtCom= 1.00D+00 WtEn= 0.00D+00
 Coeff-Com: -0.300D-04-0.108D-03 0.605D-02 0.430D-02 0.788D-01 0.258D+00
 Coeff-Com:  0.653D+00
 Coeff:     -0.300D-04-0.108D-03 0.605D-02 0.430D-02 0.788D-01 0.258D+00
 Coeff:      0.653D+00
 Gap=     0.143 Goal=   None    Shift=    0.000
 RMSDP=6.05D-05 MaxDP=1.25D-03 DE=-7.44D-06 OVMax= 5.87D-04

 Cycle   8  Pass 1  IDiag  1:
 E= -3071.75232452178     Delta-E=       -0.000000662641 Rises=F Damp=F
 DIIS: error= 1.89D-05 at cycle   8 NSaved=   8.
 NSaved= 8 IEnMin= 8 EnMin= -3071.75232452178     IErMin= 8 ErrMin= 1.89D-05
 ErrMax= 1.89D-05  0.00D+00 EMaxC= 1.00D+00 BMatC= 6.22D-08 BMatP= 5.47D-07
 IDIUse=1 WtCom= 1.00D+00 WtEn= 0.00D+00
 Coeff-Com: -0.450D-05-0.270D-04-0.283D-02-0.310D-02-0.108D-01 0.381D-01
 Coeff-Com:  0.307D+00 0.671D+00
 Coeff:     -0.450D-05-0.270D-04-0.283D-02-0.310D-02-0.108D-01 0.381D-01
 Coeff:      0.307D+00 0.671D+00
 Gap=     0.143 Goal=   None    Shift=    0.000
 RMSDP=1.66D-05 MaxDP=3.12D-04 DE=-6.63D-07 OVMax= 1.81D-04

 Cycle   9  Pass 1  IDiag  1:
 E= -3071.75232460680     Delta-E=       -0.000000085021 Rises=F Damp=F
 DIIS: error= 3.89D-06 at cycle   9 NSaved=   9.
 NSaved= 9 IEnMin= 9 EnMin= -3071.75232460680     IErMin= 9 ErrMin= 3.89D-06
 ErrMax= 3.89D-06  0.00D+00 EMaxC= 1.00D+00 BMatC= 1.69D-09 BMatP= 6.22D-08
 IDIUse=1 WtCom= 1.00D+00 WtEn= 0.00D+00
 Coeff-Com:  0.512D-06-0.496D-05-0.131D-02-0.126D-02-0.944D-02-0.323D-02
 Coeff-Com:  0.692D-01 0.229D+00 0.717D+00
 Coeff:      0.512D-06-0.496D-05-0.131D-02-0.126D-02-0.944D-02-0.323D-02
 Coeff:      0.692D-01 0.229D+00 0.717D+00
 Gap=     0.143 Goal=   None    Shift=    0.000
 RMSDP=9.88D-06 MaxDP=2.25D-04 DE=-8.50D-08 OVMax= 4.52D-05

 Cycle  10  Pass 1  IDiag  1:
 E= -3071.75232460952     Delta-E=       -0.000000002718 Rises=F Damp=F
 DIIS: error= 5.17D-07 at cycle  10 NSaved=  10.
 NSaved=10 IEnMin=10 EnMin= -3071.75232460952     IErMin=10 ErrMin= 5.17D-07
 ErrMax= 5.17D-07  0.00D+00 EMaxC= 1.00D+00 BMatC= 3.33D-11 BMatP= 1.69D-09
 IDIUse=1 WtCom= 1.00D+00 WtEn= 0.00D+00
 Coeff-Com:  0.555D-08 0.107D-05 0.506D-04 0.542D-04-0.764D-03-0.284D-02
 Coeff-Com: -0.128D-01-0.198D-01 0.682D-01 0.968D+00
 Coeff:      0.555D-08 0.107D-05 0.506D-04 0.542D-04-0.764D-03-0.284D-02
 Coeff:     -0.128D-01-0.198D-01 0.682D-01 0.968D+00
 Gap=     0.143 Goal=   None    Shift=    0.000
 RMSDP=1.97D-06 MaxDP=3.89D-05 DE=-2.72D-09 OVMax= 1.66D-05

 Cycle  11  Pass 1  IDiag  1:
 E= -3071.75232460965     Delta-E=       -0.000000000132 Rises=F Damp=F
 DIIS: error= 1.12D-07 at cycle  11 NSaved=  11.
 NSaved=11 IEnMin=11 EnMin= -3071.75232460965     IErMin=11 ErrMin= 1.12D-07
 ErrMax= 1.12D-07  0.00D+00 EMaxC= 1.00D+00 BMatC= 1.30D-12 BMatP= 3.33D-11
 IDIUse=1 WtCom= 1.00D+00 WtEn= 0.00D+00
 Coeff-Com:  0.277D-07 0.137D-06 0.283D-04 0.243D-04 0.170D-05-0.295D-03
 Coeff-Com: -0.280D-02-0.869D-02-0.223D-02 0.154D+00 0.860D+00
 Coeff:      0.277D-07 0.137D-06 0.283D-04 0.243D-04 0.170D-05-0.295D-03
 Coeff:     -0.280D-02-0.869D-02-0.223D-02 0.154D+00 0.860D+00
 Gap=     0.143 Goal=   None    Shift=    0.000
 RMSDP=1.28D-07 MaxDP=3.33D-06 DE=-1.32D-10 OVMax= 1.06D-06

 Cycle  12  Pass 1  IDiag  1:
 E= -3071.75232460966     Delta-E=       -0.000000000012 Rises=F Damp=F
 DIIS: error= 2.09D-08 at cycle  12 NSaved=  12.
 NSaved=12 IEnMin=12 EnMin= -3071.75232460966     IErMin=12 ErrMin= 2.09D-08
 ErrMax= 2.09D-08  0.00D+00 EMaxC= 1.00D+00 BMatC= 4.74D-14 BMatP= 1.30D-12
 IDIUse=1 WtCom= 1.00D+00 WtEn= 0.00D+00
 Coeff-Com: -0.168D-08 0.169D-07 0.598D-05 0.456D-05 0.173D-04 0.641D-05
 Coeff-Com: -0.183D-03-0.149D-02-0.266D-02 0.108D-01 0.216D+00 0.777D+00
 Coeff:     -0.168D-08 0.169D-07 0.598D-05 0.456D-05 0.173D-04 0.641D-05
 Coeff:     -0.183D-03-0.149D-02-0.266D-02 0.108D-01 0.216D+00 0.777D+00
 Gap=     0.143 Goal=   None    Shift=    0.000
 RMSDP=2.87D-08 MaxDP=9.20D-07 DE=-1.18D-11 OVMax= 2.33D-07

 Cycle  13  Pass 1  IDiag  1:
 E= -3071.75232460965     Delta-E=        0.000000000010 Rises=F Damp=F
 DIIS: error= 5.78D-09 at cycle  13 NSaved=  13.
 NSaved=13 IEnMin=12 EnMin= -3071.75232460966     IErMin=13 ErrMin= 5.78D-09
 ErrMax= 5.78D-09  0.00D+00 EMaxC= 1.00D+00 BMatC= 3.61D-15 BMatP= 4.74D-14
 IDIUse=1 WtCom= 1.00D+00 WtEn= 0.00D+00
 Coeff-Com: -0.921D-09 0.299D-09-0.196D-06-0.181D-06 0.527D-05 0.150D-04
 Coeff-Com:  0.113D-03 0.242D-03-0.774D-03-0.708D-02-0.193D-01 0.201D+00
 Coeff-Com:  0.826D+00
 Coeff:     -0.921D-09 0.299D-09-0.196D-06-0.181D-06 0.527D-05 0.150D-04
 Coeff:      0.113D-03 0.242D-03-0.774D-03-0.708D-02-0.193D-01 0.201D+00
 Coeff:      0.826D+00
 Gap=     0.143 Goal=   None    Shift=    0.000
 RMSDP=7.82D-09 MaxDP=2.36D-07 DE= 1.00D-11 OVMax= 5.68D-08

 SCF Done:  E(RB3LYP) =  -3071.75232461     A.U. after   13 cycles
            NFock= 13  Conv=0.78D-08     -V/T= 2.0054
 KE= 3.055205913611D+03 PE=-7.772617487900D+03 EE= 1.426210286950D+03
 Leave Link  502 at Mon Oct 14 23:37:10 2019, MaxMem=   280000000 cpu:              14.8 elap:               0.7
 (Enter /home/soft/g16/l701.exe)
 ... and contract with generalized density number  0.
 Compute integral first derivatives.
 Leave Link  701 at Mon Oct 14 23:37:10 2019, MaxMem=   280000000 cpu:               3.5 elap:               0.2
 (Enter /home/soft/g16/l702.exe)
 L702 exits ... SP integral derivatives will be done elsewhere.
 Leave Link  702 at Mon Oct 14 23:37:10 2019, MaxMem=   280000000 cpu:               0.8 elap:               0.1
 (Enter /home/soft/g16/l703.exe)
 Integral derivatives from FoFJK, PRISM(SPDF).
 Compute integral first derivatives, UseDBF=F ICtDFT=           0.
 Calling FoFJK, ICntrl=      2127 FMM=F ISym2X=1 I1Cent= 0 IOpClX= 0 NMat=1 NMatS=1 NMatT=0.
 FoFJK:  IHMeth= 1 ICntrl=    2127 DoSepK=F KAlg= 0 I1Cent=           0 FoldK=F
 IRaf=         0 NMat=       1 IRICut=       1 DoRegI=T DoRafI=F ISym2E= 1 IDoP0=0 IntGTp=1.
 FoFCou: FMM=F IPFlag=           0 FMFlag=      100000 FMFlg1=         800
         NFxFlg=           0 DoJE=F BraDBF=F KetDBF=F FulRan=T
         wScrn=  0.000000 ICntrl=      2127 IOpCl=  0 I1Cent=           0 NGrid=           0
         NMat0=    1 NMatS0=      1 NMatT0=    0 NMatD0=    1 NMtDS0=    0 NMtDT0=    0
 Petite list used in FoFCou.
 Leave Link  703 at Mon Oct 14 23:37:11 2019, MaxMem=   280000000 cpu:              13.2 elap:               0.6
 (Enter /home/soft/g16/l716.exe)
 Dipole        =-4.44105825D-16-1.00621415D-15 1.45322002D-01
 ***** Axes restored to original set *****
 -------------------------------------------------------------------
 Center     Atomic                   Forces (Hartrees/Bohr)
 Number     Number              X              Y              Z
 -------------------------------------------------------------------
      1        6          -0.035842160    0.000000442   -0.000000000
      2        1          -0.048505843   -0.021352385   -0.000000001
      3        1          -0.048505448    0.010677088    0.018492226
      4        1          -0.048505448    0.010677090   -0.018492225
      5       17          -0.092690541    0.000001142   -0.000000000
      6       35           0.274049441   -0.000003377    0.000000000
 -------------------------------------------------------------------
 Cartesian Forces:  Max     0.274049441 RMS     0.072036070
 Leave Link  716 at Mon Oct 14 23:37:11 2019, MaxMem=   280000000 cpu:               0.6 elap:               0.0
 (Enter /home/soft/g16/l103.exe)

 GradGradGradGradGradGradGradGradGradGradGradGradGradGradGradGradGradGrad
 Berny optimization.
 Using GEDIIS/GDIIS optimizer.
 FormGI is forming the generalized inverse of G from B-inverse, IUseBI=4.
 Internal  Forces:  Max     0.274049441 RMS     0.062786968
 Step   2 in ReCalcFC= 3 IGetFC= 0 update Hessian.
 Search for a local minimum.
 Step number   2 out of a maximum of   33
 All quantities printed in internal units (Hartrees-Bohrs-Radians)
 RMS Force = .62787D-01 SwitMx=.10000D-02 MixMth= 1
 Mixed Optimization -- RFO/linear search
 Update second derivatives using D2CorX and points    1    2
 DE= -1.11D-01 DEPred=-1.09D-01 R= 1.02D+00
 TightC=F SS=  1.41D+00  RLast= 3.03D-01 DXNew= 5.0454D-01 9.0843D-01
 Trust test= 1.02D+00 RLast= 3.03D-01 DXMaxT set to 5.05D-01
 ITU=  1  0
 Use linear search instead of GDIIS.
 Linear search step of   0.599 exceeds DXMaxT=   0.505 but not scaled.
 Quartic linear search produced a step of  2.00000.
 Iteration  1 RMS(Cart)=  0.06165907 RMS(Int)=  0.07206195
 Iteration  2 RMS(Cart)=  0.03944322 RMS(Int)=  0.03013063
 Iteration  3 RMS(Cart)=  0.02748868 RMS(Int)=  0.00105681
 Iteration  4 RMS(Cart)=  0.00000001 RMS(Int)=  0.00105681
 ITry= 1 IFail=0 DXMaxC= 5.27D-01 DCOld= 1.00D+10 DXMaxT= 5.05D-01 DXLimC= 3.00D+00 Rises=F
 ClnCor:  largest displacement from symmetrization is 4.47D-04 for atom     4.
 Variable       Old X    -DE/DX   Delta X   Delta X   Delta X     New X
                                 (Linear)    (Quad)   (Total)
    R1        2.01397   0.00488  -0.01608   0.00000  -0.01611   1.99786
    R2        2.01397   0.00488  -0.01608   0.00000  -0.01611   1.99786
    R3        2.01397   0.00488  -0.01608   0.00000  -0.01611   1.99786
    R4        3.43972   0.09269   0.22761   0.00000   0.22761   3.66733
    R5        3.71670   0.27405   0.54402   0.00000   0.54402   4.26072
    A1        1.92770   0.01455   0.03413   0.00000   0.03176   1.95946
    A2        1.92770   0.02398   0.03413   0.00000   0.03176   1.95946
    A3        1.89324  -0.02002  -0.03478   0.00000  -0.03440   1.85884
    A4        1.24835   0.02002   0.03478   0.00000   0.03440   1.28275
    A5        1.92770   0.02398   0.03413   0.00000   0.03176   1.95946
    A6        1.89324  -0.02002  -0.03478   0.00000  -0.03440   1.85884
    A7        1.24835   0.02002   0.03478   0.00000   0.03440   1.28275
    A8        1.89324  -0.02493  -0.03478   0.00000  -0.03440   1.85884
    A9        1.24835   0.02493   0.03478   0.00000   0.03440   1.28275
   A10        3.14159  -0.00000   0.00000   0.00000   0.00000   3.14159
   A11        3.14159   0.00000   0.00000   0.00000  -0.00000   3.14159
    D1       -2.13764  -0.05099  -0.08650   0.00000  -0.08944  -2.22708
    D2        2.09440  -0.00566   0.00000   0.00000   0.00000   2.09440
    D3       -2.09440   0.00566   0.00000   0.00000   0.00000  -2.09440
    D4       -2.09440  -0.00283   0.00000   0.00000   0.00000  -2.09440
    D5        2.09440   0.00283  -0.00000   0.00000   0.00000   2.09440
    D6        2.09440   0.00283   0.00000   0.00000   0.00000   2.09440
    D7       -2.09440  -0.00283   0.00000   0.00000   0.00000  -2.09440
         Item               Value     Threshold  Converged?
 Maximum Force            0.274049     0.000450     NO 
 RMS     Force            0.062787     0.000300     NO 
 Maximum Displacement     0.526682     0.001800     NO 
 RMS     Displacement     0.125285     0.001200     NO 
 Predicted change in Energy=-9.523654D-02
 Lowest energy point so far.  Saving SCF results.
 Step   2 in ReCalcFC= 3 IGetFC= 0 compute gradient.
 GradGradGradGradGradGradGradGradGradGradGradGradGradGradGradGradGradGrad

 Leave Link  103 at Mon Oct 14 23:37:11 2019, MaxMem=   280000000 cpu:               2.7 elap:               0.1
 (Enter /home/soft/g16/l202.exe)
                          Input orientation:                          
 ---------------------------------------------------------------------
 Center     Atomic      Atomic             Coordinates (Angstroms)
 Number     Number       Type             X           Y           Z
 ---------------------------------------------------------------------
      1          6           0       -0.995428   -0.839793    0.000000
      2          1           0       -0.695108   -1.853462   -0.000000
      3          1           0       -0.695089   -0.332964    0.877860
      4          1           0       -0.695089   -0.332964   -0.877860
      5         17           0       -2.936094   -0.839769    0.000000
      6         35           0        1.259250   -0.839821    0.000000
 ---------------------------------------------------------------------
                    Distance matrix (angstroms):
                    1          2          3          4          5
     1  C    0.000000
     2  H    1.057221   0.000000
     3  H    1.057221   1.755720   0.000000
     4  H    1.057221   1.755720   1.755720   0.000000
     5  Cl   1.940666   2.459592   2.459592   2.459592   0.000000
     6  Br   2.254677   2.201586   2.201586   2.201586   4.195344
                    6
     6  Br   0.000000
 Stoichiometry    CH3BrCl(1-)
 Framework group  C3V[C3(ClCBr),3SGV(H)]
 Deg. of freedom     4
 Full point group                 C3V     NOp   6
 RotChk:  IX=0 Diff= 1.64D-15
 Largest Abelian subgroup         CS      NOp   2
 Largest concise Abelian subgroup CS      NOp   2
                         Standard orientation:                         
 ---------------------------------------------------------------------
 Center     Atomic      Atomic             Coordinates (Angstroms)
 Number     Number       Type             X           Y           Z
 ---------------------------------------------------------------------
      1          6           0        0.000000   -0.000000   -0.767596
      2          1           0       -0.000000    1.013665   -0.467264
      3          1           0        0.877860   -0.506833   -0.467264
      4          1           0       -0.877860   -0.506833   -0.467264
      5         17           0        0.000000   -0.000000   -2.708263
      6         35           0       -0.000000    0.000000    1.487081
 ---------------------------------------------------------------------
 Rotational constants (GHZ):         162.6752706           1.1507652           1.1507652
 Leave Link  202 at Mon Oct 14 23:37:11 2019, MaxMem=   280000000 cpu:               0.9 elap:               0.1
 (Enter /home/soft/g16/l301.exe)
 Standard basis: 6-31+G(d) (6D, 7F)
 Ernie: Thresh=  0.10000D-02 Tol=  0.10000D-05 Strict=F.
 There are    60 symmetry adapted cartesian basis functions of A'  symmetry.
 There are    22 symmetry adapted cartesian basis functions of A"  symmetry.
 There are    60 symmetry adapted basis functions of A'  symmetry.
 There are    22 symmetry adapted basis functions of A"  symmetry.
    82 basis functions,   187 primitive gaussians,    82 cartesian basis functions
    31 alpha electrons       31 beta electrons
       nuclear repulsion energy       198.2749641759 Hartrees.
 IExCor=  402 DFT=T Ex+Corr=B3LYP ExCW=0 ScaHFX=  0.200000
 ScaDFX=  0.800000  0.720000  1.000000  0.810000 ScalE2=  1.000000  1.000000
 IRadAn=      5 IRanWt=     -1 IRanGd=            0 ICorTp=0 IEmpDi=  4
 NAtoms=    6 NActive=    6 NUniq=    4 SFac= 2.25D+00 NAtFMM=   60 NAOKFM=F Big=F
 Integral buffers will be    131072 words long.
 Raffenetti 2 integral format.
 Two-electron integral symmetry is turned on.
 Leave Link  301 at Mon Oct 14 23:37:11 2019, MaxMem=   280000000 cpu:               1.6 elap:               0.1
 (Enter /home/soft/g16/l302.exe)
 NPDir=0 NMtPBC=     1 NCelOv=     1 NCel=       1 NClECP=     1 NCelD=      1
         NCelK=      1 NCelE2=     1 NClLst=     1 CellRange=     0.0.
 One-electron integrals computed using PRISM.
 One-electron integral symmetry used in STVInt
 NBasis=    82 RedAO= T EigKep=  6.04D-04  NBF=    60    22
 NBsUse=    82 1.00D-06 EigRej= -1.00D+00 NBFU=    60    22
 Precomputing XC quadrature grid using
 IXCGrd= 4 IRadAn=           5 IRanWt=          -1 IRanGd=           0 AccXCQ= 0.00D+00.
 Generated NRdTot=       0 NPtTot=           0 NUsed=           0 NTot=          32
 NSgBfM=    82    82    82    82    82 MxSgAt=     6 MxSgA2=     6.
 Leave Link  302 at Mon Oct 14 23:37:11 2019, MaxMem=   280000000 cpu:               3.1 elap:               0.2
 (Enter /home/soft/g16/l303.exe)
 DipDrv:  MaxL=1.
 Leave Link  303 at Mon Oct 14 23:37:11 2019, MaxMem=   280000000 cpu:               1.4 elap:               0.1
 (Enter /home/soft/g16/l401.exe)
 Initial guess from the checkpoint file:  "R_6-31+gs.chk"
 B after Tr=    -0.000000    0.000000    0.000000
         Rot=    1.000000    0.000000   -0.000000   -0.000000 Ang=   0.00 deg.
 Guess basis will be translated and rotated to current coordinates.
 JPrj=2 DoOrth=T DoCkMO=T.
 Initial guess orbital symmetries:
       Occupied  (A1) (A1) (A1) (A1) (E) (E) (A1) (A1) (A1) (A1)
                 (E) (E) (A1) (E) (E) (A1) (E) (E) (E) (E) (A1)
                 (A1) (A1) (E) (E) (A1) (E) (E) (E) (E) (A1)
       Virtual   (A1) (A1) (E) (E) (A1) (E) (E) (A1) (E) (E) (A1)
                 (A1) (E) (E) (A1) (A1) (A1) (E) (E) (E) (E) (A1)
                 (A1) (E) (E) (E) (E) (E) (E) (A1) (E) (E) (A1)
                 (E) (E) (A1) (E) (E) (A1) (A1) (A1) (E) (E) (A1)
                 (A1) (E) (E) (A1) (A1) (A1) (A1)
 The electronic state of the initial guess is 1-A1.
 Generating alternative initial guess.
 ExpMin= 3.50D-02 ExpMax= 5.74D+05 ExpMxC= 5.74D+03 IAcc=3 IRadAn=         5 AccDes= 0.00D+00
 Harris functional with IExCor=  402 and IRadAn=       5 diagonalized for initial guess.
 HarFok:  IExCor=  402 AccDes= 0.00D+00 IRadAn=         5 IDoV= 1 UseB2=F ITyADJ=14
 ICtDFT=  3500011 ScaDFX=  1.000000  1.000000  1.000000  1.000000
 FoFCou: FMM=F IPFlag=           0 FMFlag=      100000 FMFlg1=           0
         NFxFlg=           0 DoJE=T BraDBF=F KetDBF=T FulRan=T
         wScrn=  0.000000 ICntrl=       500 IOpCl=  0 I1Cent=   200000004 NGrid=           0
         NMat0=    1 NMatS0=      1 NMatT0=    0 NMatD0=    1 NMtDS0=    0 NMtDT0=    0
 Petite list used in FoFCou.
 Harris En= -3072.07487200802    
 Leave Link  401 at Mon Oct 14 23:37:12 2019, MaxMem=   280000000 cpu:               5.1 elap:               0.3
 (Enter /home/soft/g16/l502.exe)
 Keep R1 ints in memory in symmetry-blocked form, NReq=27510814.
 FoFCou: FMM=F IPFlag=           0 FMFlag=           0 FMFlg1=           0
         NFxFlg=           0 DoJE=F BraDBF=F KetDBF=F FulRan=T
         wScrn=  0.000000 ICntrl=       600 IOpCl=  0 I1Cent=           0 NGrid=           0
         NMat0=    1 NMatS0=   3403 NMatT0=    0 NMatD0=    1 NMtDS0=    0 NMtDT0=    0
 Petite list used in FoFCou.
 Closed shell SCF:
 Using DIIS extrapolation, IDIIS=  1040.
 NGot=   280000000 LenX=   276933098 LenY=   276925933
 Requested convergence on RMS density matrix=1.00D-08 within 128 cycles.
 Requested convergence on MAX density matrix=1.00D-06.
 Requested convergence on             energy=1.00D-06.
 No special actions if energy rises.

 Cycle   1  Pass 1  IDiag  1:
 E= -3071.83986078398    
 DIIS: error= 9.81D-02 at cycle   1 NSaved=   1.
 NSaved= 1 IEnMin= 1 EnMin= -3071.83986078398     IErMin= 1 ErrMin= 9.81D-02
 ErrMax= 9.81D-02  0.00D+00 EMaxC= 1.00D-01 BMatC= 4.93D-01 BMatP= 4.93D-01
 IDIUse=3 WtCom= 1.90D-02 WtEn= 9.81D-01
 Coeff-Com:  0.100D+01
 Coeff-En:   0.100D+01
 Coeff:      0.100D+01
 Recover alternate guess density for next cycle.
 RMSDP=1.75D-02 MaxDP=2.46D-01              OVMax= 0.00D+00

 Cycle   2  Pass 1  IDiag  1:
 E= -3071.75235776388     Delta-E=        0.087503020099 Rises=F Damp=F
 Switch densities from cycles 1 and 2 for lowest energy.
 DIIS: error= 1.03D-01 at cycle   2 NSaved=   2.
 NSaved= 2 IEnMin= 1 EnMin= -3071.83986078398     IErMin= 1 ErrMin= 9.81D-02
 ErrMax= 1.03D-01  0.00D+00 EMaxC= 1.00D+00 BMatC= 4.34D-01 BMatP= 4.93D-01
 IDIUse=1 WtCom= 1.00D+00 WtEn= 0.00D+00
 Coeff-Com:  0.468D+00 0.532D+00
 Coeff:      0.468D+00 0.532D+00
 Gap=     0.207 Goal=   None    Shift=    0.000
 RMSDP=6.11D-03 MaxDP=6.27D-02 DE= 8.75D-02 OVMax= 8.91D-02

 Cycle   3  Pass 1  IDiag  1:
 E= -3071.82737131332     Delta-E=       -0.075013549438 Rises=F Damp=F
 DIIS: error= 2.20D-02 at cycle   3 NSaved=   3.
 NSaved= 3 IEnMin= 1 EnMin= -3071.83986078398     IErMin= 3 ErrMin= 2.20D-02
 ErrMax= 2.20D-02  0.00D+00 EMaxC= 1.00D+00 BMatC= 3.57D-02 BMatP= 4.34D-01
 IDIUse=1 WtCom= 1.00D+00 WtEn= 0.00D+00
 Coeff-Com:  0.457D-01 0.141D+00 0.814D+00
 Coeff:      0.457D-01 0.141D+00 0.814D+00
 Gap=     0.216 Goal=   None    Shift=    0.000
 RMSDP=1.36D-02 MaxDP=2.24D-01 DE=-7.50D-02 OVMax= 1.41D-01

 Cycle   4  Pass 1  IDiag  1:
 E= -3071.83346063507     Delta-E=       -0.006089321745 Rises=F Damp=F
 DIIS: error= 1.91D-02 at cycle   4 NSaved=   4.
[...]
      4 -0.588740D-01  0.849643D-01  0.000000D+00  0.740163D-01
      5  0.831602D-01 -0.326917D+00  0.000000D+00 -0.866785D-01  0.340657D+00
      6  0.000000D+00  0.000000D+00 -0.514103D-01  0.000000D+00  0.000000D+00
      7 -0.588772D-01 -0.424845D-01 -0.735855D-01  0.515616D-02  0.418780D-02
      8 -0.415825D-01 -0.120285D+00 -0.119296D+00 -0.900557D-02 -0.112833D-01
      9 -0.720232D-01 -0.119296D+00 -0.258038D+00  0.363390D-03  0.203806D-02
     10 -0.588772D-01 -0.424845D-01  0.735855D-01  0.515616D-02  0.418780D-02
     11 -0.415825D-01 -0.120285D+00  0.119296D+00 -0.900557D-02 -0.112833D-01
     12  0.720232D-01  0.119296D+00 -0.258038D+00 -0.363391D-03 -0.203806D-02
     13 -0.788915D-01  0.000000D+00  0.000000D+00 -0.238915D-01 -0.581744D-02
     14  0.000000D+00 -0.362408D-01  0.000000D+00  0.196367D-01  0.806608D-02
     15  0.000000D+00  0.000000D+00 -0.362404D-01  0.000000D+00  0.000000D+00
     16  0.417928D-02  0.000000D+00  0.000000D+00 -0.156311D-02  0.960190D-03
     17  0.000000D+00 -0.279204D-02  0.000000D+00  0.886602D-04  0.759964D-03
     18  0.000000D+00  0.000000D+00 -0.279212D-02  0.000000D+00  0.000000D+00
                6             7             8             9            10 
      6  0.468222D-01
      7  0.798024D-02  0.740195D-01
      8 -0.256732D-01  0.433415D-01  0.120279D+00
      9  0.236231D-02  0.750702D-01  0.127233D+00  0.267197D+00
     10 -0.798024D-02  0.515634D-02  0.481742D-02 -0.761736D-02  0.740195D-01
     11  0.256732D-01  0.481742D-02  0.918504D-02 -0.138555D-01  0.433415D-01
     12  0.236231D-02  0.761736D-02  0.138555D-01 -0.181062D-01 -0.750702D-01
     13  0.000000D+00 -0.238917D-01  0.290928D-02  0.503847D-02 -0.238917D-01
     14  0.000000D+00 -0.981782D-02  0.237849D-02  0.328389D-02 -0.981782D-02
     15  0.482413D-03 -0.170055D-01  0.328408D-02  0.617025D-02  0.170055D-01
     16  0.000000D+00 -0.156314D-02 -0.480071D-03 -0.831519D-03 -0.156314D-02
     17  0.000000D+00 -0.443063D-04 -0.274266D-03  0.597118D-03 -0.443063D-04
     18 -0.619016D-03 -0.767515D-04  0.597125D-03  0.415234D-03  0.767515D-04
               11            12            13            14            15 
     11  0.120279D+00
     12 -0.127233D+00  0.267197D+00
     13  0.290928D-02 -0.503847D-02  0.158983D+00
     14  0.237849D-02 -0.328389D-02 -0.186184D-05  0.217245D-01
     15 -0.328408D-02  0.617025D-02  0.000000D+00  0.000000D+00  0.217244D-01
     16 -0.480071D-03  0.831519D-03 -0.841687D-02  0.000000D+00  0.000000D+00
     17 -0.274266D-03 -0.597118D-03  0.000000D+00  0.169314D-02  0.000000D+00
     18 -0.597125D-03  0.415234D-03  0.000000D+00  0.000000D+00  0.169318D-02
               16            17            18 
     16  0.892700D-02
     17  0.000000D+00  0.887485D-03
     18  0.000000D+00  0.000000D+00  0.887475D-03
 FormGI is forming the generalized inverse of G from B-inverse, IUseBI=4.
 Force constants in internal coordinates: 
                1             2             3             4             5 
      1  0.366163D+00
      2  0.154473D-02  0.366163D+00
      3  0.154473D-02  0.154476D-02  0.366163D+00
      4  0.182017D-02  0.182009D-02  0.182009D-02  0.158983D+00
      5 -0.139476D-02 -0.139477D-02 -0.139477D-02  0.841686D-02  0.892699D-02
      6  0.299482D-02  0.299482D-02 -0.222920D-02 -0.663912D-02  0.322614D-03
      7  0.394171D-02 -0.202643D-02  0.434914D-02 -0.110599D-01  0.537433D-03
      8 -0.521229D-02  0.237850D-03 -0.371384D-03  0.943835D-02 -0.458672D-03
      9  0.268319D-02  0.102676D-02  0.163599D-02 -0.943821D-02  0.458610D-03
     10 -0.202644D-02  0.394173D-02  0.434915D-02 -0.110599D-01  0.537435D-03
     11  0.237816D-03 -0.516473D-02 -0.419031D-03  0.943819D-02 -0.458612D-03
     12  0.102673D-02  0.273073D-02  0.158842D-02 -0.943826D-02  0.458643D-03
     13 -0.243219D-03 -0.290833D-03 -0.608395D-02  0.116840D-01 -0.567743D-03
     14  0.150777D-02  0.146022D-02  0.364995D-02 -0.116841D-01  0.567775D-03
     15 -0.252910D-02  0.126461D-02  0.126461D-02  0.000000D+00  0.000000D+00
     16  0.000000D+00  0.218662D-02 -0.218662D-02  0.000000D+00  0.000000D+00
     17 -0.523872D-02 -0.523874D-02 -0.337589D-02  0.244582D-01 -0.118850D-02
     18  0.779265D-03  0.805936D-03 -0.309829D-02  0.267142D-02 -0.129823D-03
     19 -0.148799D-02 -0.146133D-02  0.446245D-02 -0.267138D-02  0.129806D-03
     20 -0.163755D-02  0.244347D-02 -0.156249D-02  0.133568D-02 -0.648938D-04
     21  0.234628D-02 -0.380763D-02  0.221789D-02 -0.133573D-02  0.649113D-04
     22 -0.241681D-02  0.163753D-02  0.153580D-02 -0.133574D-02  0.649293D-04
     23  0.383427D-02 -0.234630D-02 -0.224456D-02  0.133566D-02 -0.648943D-04
                6             7             8             9            10 
      6  0.964420D-02
      7 -0.267007D-02  0.156379D-01
      8 -0.747979D-02 -0.109055D-01  0.489556D-01
      9  0.463090D-02  0.787301D-02 -0.192188D-01  0.133008D-01
     10 -0.267007D-02 -0.206401D-03  0.104072D-01 -0.367563D-02  0.156379D-01
     11 -0.737276D-02  0.102766D-01 -0.217736D-01  0.640676D-02 -0.109139D-01
     12  0.473793D-02 -0.380626D-02  0.643174D-02 -0.297434D-02  0.786465D-02
     13  0.102789D-01 -0.129319D-01 -0.187042D-01  0.343071D-02 -0.130542D-01
     14 -0.479513D-02  0.949411D-02  0.430920D-02 -0.945084D-03  0.937183D-02
     15 -0.284889D-02 -0.303251D-02  0.297368D-01 -0.591804D-02  0.673160D-02
     16  0.492653D-02 -0.601251D-02  0.574544D-03 -0.574536D-03 -0.384225D-03
     17 -0.860034D-02 -0.764596D-02  0.100046D-01 -0.898872D-02 -0.764596D-02
     18  0.316335D-02 -0.353292D-02  0.632500D-02 -0.166459D-02 -0.346438D-02
     19 -0.623676D-02  0.545969D-02  0.174285D-02  0.271490D-03  0.552822D-02
     20  0.161167D-02 -0.526699D-02 -0.396471D-02 -0.529270D-03  0.172939D-02
     21 -0.308839D-02  0.889336D-02 -0.463378D-02  0.245301D-02 -0.343835D-02
     22 -0.155168D-02 -0.173407D-02 -0.102897D-01  0.113532D-02  0.519377D-02
     23  0.314837D-02  0.343367D-02 -0.637663D-02  0.218151D-02 -0.896657D-02
               11            12            13            14            15 
     11  0.478621D-01
     12 -0.196550D-01  0.135218D-01
     13 -0.175767D-01  0.387592D-02  0.529722D-01
     14  0.473645D-02 -0.120008D-02 -0.239979D-01  0.170975D-01
     15 -0.153668D-01  0.345739D-02 -0.152735D-01  0.336412D-02  0.238188D-01
     16 -0.249085D-01  0.534555D-02  0.258963D-01 -0.633333D-02  0.000000D+00
     17  0.996644D-02 -0.902688D-02  0.541797D-02 -0.737341D-02  0.101588D-02
     18  0.583960D-02 -0.176759D-02 -0.809047D-02 -0.641959D-03  0.466041D-02
     19  0.135687D-02  0.267886D-03 -0.814850D-02  0.450941D-02  0.201434D-02
     20  0.981340D-02 -0.124324D-02 -0.380210D-02 -0.274081D-03 -0.449398D-02
     21  0.599556D-02 -0.219420D-02 -0.387666D-02  0.225607D-02 -0.218078D-02
     22  0.397379D-02  0.524352D-03  0.428836D-02  0.367878D-03 -0.915439D-02
     23  0.463869D-02 -0.246208D-02  0.427184D-02 -0.225333D-02 -0.419511D-02
               16            17            18            19            20 
     16  0.237425D-01
     17 -0.175676D-02  0.220809D-01
     18 -0.777004D-02  0.948755D-03  0.105858D-01
     19 -0.319423D-02  0.147195D-03 -0.569160D-02  0.773117D-02
     20 -0.767410D-02  0.463688D-03  0.519769D-02 -0.291315D-02  0.106267D-01
     21 -0.329017D-02  0.629027D-04 -0.291549D-02  0.382376D-02 -0.582349D-02
     22  0.959371D-04 -0.485067D-03 -0.538809D-02  0.277845D-02  0.542904D-02
     23 -0.959418D-04 -0.842921D-04  0.277612D-02 -0.390741D-02 -0.291034D-02
               21            22            23 
     21  0.795401D-02
     22 -0.290801D-02  0.108171D-01
     23  0.413025D-02 -0.568646D-02  0.803766D-02
 Leave Link  716 at Mon Oct 14 23:37:45 2019, MaxMem=   280000000 cpu:               0.8 elap:               0.1
 (Enter /home/soft/g16/l103.exe)

 GradGradGradGradGradGradGradGradGradGradGradGradGradGradGradGradGradGrad
 Berny optimization.
 Red2BG is reusing G-inverse.
 Internal  Forces:  Max     0.000003985 RMS     0.000000924
 Step   1 in ReCalcFC= 3 IGetFC= 4 recover analytic Hessian.
 Search for a local minimum.
 Step number   1 out of a maximum of    2
 All quantities printed in internal units (Hartrees-Bohrs-Radians)
 Second derivative matrix not updated -- analytic derivatives used.
 ITU=  0
     Eigenvalues ---    0.00794   0.01027   0.01057   0.03005   0.03366
     Eigenvalues ---    0.04328   0.10791   0.11022   0.17260   0.36505
     Eigenvalues ---    0.36507   0.36980
 Angle between quadratic step and forces=  25.55 degrees.
 Linear search not attempted -- first point.
 Iteration  1 RMS(Cart)=  0.00009047 RMS(Int)=  0.00000000
 Iteration  2 RMS(Cart)=  0.00000000 RMS(Int)=  0.00000000
 ITry= 1 IFail=0 DXMaxC= 3.95D-04 DCOld= 1.00D+10 DXMaxT= 3.00D-01 DXLimC= 3.00D+00 Rises=F
 ClnCor:  largest displacement from symmetrization is 4.41D-09 for atom     3.
 Variable       Old X    -DE/DX   Delta X   Delta X   Delta X     New X
                                 (Linear)    (Quad)   (Total)
    R1        2.05186  -0.00000   0.00000   0.00000   0.00000   2.05186
    R2        2.05186  -0.00000   0.00000   0.00000   0.00000   2.05186
    R3        2.05186  -0.00000   0.00000   0.00000   0.00000   2.05186
    R4        3.50680  -0.00000   0.00000  -0.00004  -0.00004   3.50676
    R5        6.22222   0.00000   0.00000   0.00049   0.00049   6.22271
    A1        1.93674   0.00000   0.00000  -0.00001  -0.00001   1.93673
    A2        1.93674   0.00000   0.00000  -0.00001  -0.00001   1.93673
    A3        1.88375  -0.00000   0.00000   0.00001   0.00001   1.88375
    A4        1.25785   0.00000   0.00000  -0.00001  -0.00001   1.25784
    A5        1.93674   0.00000   0.00000  -0.00001  -0.00001   1.93673
    A6        1.88375  -0.00000   0.00000   0.00001   0.00001   1.88375
    A7        1.25785   0.00000   0.00000  -0.00001  -0.00001   1.25784
    A8        1.88375  -0.00000   0.00000   0.00001   0.00001   1.88375
    A9        1.25785   0.00000   0.00000  -0.00001  -0.00001   1.25784
   A10        3.14159   0.00000   0.00000   0.00000   0.00000   3.14159
   A11        3.14159   0.00000   0.00000   0.00000  -0.00000   3.14159
    D1       -2.16182  -0.00000   0.00000   0.00002   0.00002  -2.16180
    D2        2.09440  -0.00000   0.00000   0.00000   0.00000   2.09440
    D3       -2.09440   0.00000   0.00000   0.00000   0.00000  -2.09440
    D4       -2.09440  -0.00000   0.00000  -0.00000   0.00000  -2.09440
    D5        2.09440   0.00000   0.00000  -0.00000   0.00000   2.09440
    D6        2.09440   0.00000   0.00000  -0.00000  -0.00000   2.09440
    D7       -2.09440  -0.00000   0.00000  -0.00000   0.00000  -2.09440
         Item               Value     Threshold  Converged?
 Maximum Force            0.000004     0.000450     YES
 RMS     Force            0.000001     0.000300     YES
 Maximum Displacement     0.000395     0.001800     YES
 RMS     Displacement     0.000090     0.001200     YES
 Predicted change in Energy=-9.922988D-10
 Optimization completed.
    -- Stationary point found.
                           ----------------------------
                           !   Optimized Parameters   !
                           ! (Angstroms and Degrees)  !
 --------------------------                            --------------------------
 ! Name  Definition              Value          Derivative Info.                !
 --------------------------------------------------------------------------------
 ! R1    R(1,2)                  1.0858         -DE/DX =    0.0                 !
 ! R2    R(1,3)                  1.0858         -DE/DX =    0.0                 !
 ! R3    R(1,4)                  1.0858         -DE/DX =    0.0                 !
 ! R4    R(1,5)                  1.8557         -DE/DX =    0.0                 !
 ! R5    R(1,6)                  3.2927         -DE/DX =    0.0                 !
 ! A1    A(2,1,3)              110.9669         -DE/DX =    0.0                 !
 ! A2    A(2,1,4)              110.9669         -DE/DX =    0.0                 !
 ! A3    A(2,1,5)              107.9307         -DE/DX =    0.0                 !
 ! A4    A(2,1,6)               72.0693         -DE/DX =    0.0                 !
 ! A5    A(3,1,4)              110.9669         -DE/DX =    0.0                 !
 ! A6    A(3,1,5)              107.9307         -DE/DX =    0.0                 !
 ! A7    A(3,1,6)               72.0693         -DE/DX =    0.0                 !
 ! A8    A(4,1,5)              107.9307         -DE/DX =    0.0                 !
 ! A9    A(4,1,6)               72.0693         -DE/DX =    0.0                 !
 ! A10   L(5,1,6,2,-1)         180.0            -DE/DX =    0.0                 !
 ! A11   L(5,1,6,2,-2)         180.0            -DE/DX =    0.0                 !
 ! D1    D(2,1,4,3)           -123.8634         -DE/DX =    0.0                 !
 ! D2    D(2,1,5,3)            120.0            -DE/DX =    0.0                 !
 ! D3    D(2,1,6,3)           -120.0            -DE/DX =    0.0                 !
 ! D4    D(2,1,5,4)           -120.0            -DE/DX =    0.0                 !
 ! D5    D(2,1,6,4)            120.0            -DE/DX =    0.0                 !
 ! D6    D(3,1,5,4)            120.0            -DE/DX =    0.0                 !
 ! D7    D(3,1,6,4)           -120.0            -DE/DX =    0.0                 !
 --------------------------------------------------------------------------------
 Step   1 in ReCalcFC= 3 IGetFC= 0 compute gradient.
 GradGradGradGradGradGradGradGradGradGradGradGradGradGradGradGradGradGrad

 Leave Link  103 at Mon Oct 14 23:37:45 2019, MaxMem=   280000000 cpu:               4.1 elap:               0.2
 (Enter /home/soft/g16/l9999.exe)

 ----------------------------------------------------------------------

 Electric dipole moment (input orientation):
 (Debye = 10**-18 statcoulomb cm , SI units = C m)
                  (au)            (Debye)         (10**-30 SI)
   Tot        0.197207D+01      0.501249D+01      0.167199D+02
   x         -0.197207D+01     -0.501249D+01     -0.167199D+02
   y          0.243026D-04      0.617711D-04      0.206046D-03
   z          0.000000D+00      0.000000D+00      0.000000D+00

 Dipole polarizability, Alpha (input orientation).
 (esu units = cm**3 , SI units = C**2 m**2 J**-1)
 Alpha(0;0):
               (au)            (10**-24 esu)      (10**-40 SI)
   iso        0.665398D+02      0.986018D+01      0.109709D+02
   aniso      0.501155D+02      0.742634D+01      0.826292D+01
   xx         0.999501D+02      0.148111D+02      0.164795D+02
   yx        -0.578937D-03     -0.857897D-04     -0.954539D-04
   yy         0.498358D+02      0.738491D+01      0.821682D+01
   zx         0.000000D+00      0.000000D+00      0.000000D+00
   zy         0.000000D+00      0.000000D+00      0.000000D+00
   zz         0.498335D+02      0.738456D+01      0.821643D+01

 ----------------------------------------------------------------------

 Dipole orientation:
     6         -0.00001956         -1.58700216          2.26625187
     1         -0.00004375         -3.53919928          1.63455536
     1          1.69064484         -0.61092455          1.63455536
     1         -1.69065976         -0.61088265          1.63455536
    17         -0.00001956         -1.58700216          5.77305572
    35         -0.00001956         -1.58700216         -3.95596361

 Electric dipole moment (dipole orientation):
 (Debye = 10**-18 statcoulomb cm , SI units = C m)
                  (au)            (Debye)         (10**-30 SI)
   Tot        0.197207D+01      0.501249D+01      0.167199D+02
   x          0.000000D+00      0.000000D+00      0.000000D+00
   y          0.000000D+00      0.000000D+00      0.000000D+00
   z          0.197207D+01      0.501249D+01      0.167199D+02

 Dipole polarizability, Alpha (dipole orientation).
 (esu units = cm**3 , SI units = C**2 m**2 J**-1)
 Alpha(0;0):
               (au)            (10**-24 esu)      (10**-40 SI)
   iso        0.665398D+02      0.986018D+01      0.109709D+02
   aniso      0.501155D+02      0.742634D+01      0.826292D+01
   xx         0.498335D+02      0.738456D+01      0.821643D+01
   yx         0.000000D+00      0.000000D+00      0.000000D+00
   yy         0.498358D+02      0.738491D+01      0.821682D+01
   zx         0.000000D+00      0.000000D+00      0.000000D+00
   zy        -0.386428D-04     -0.572627D-05     -0.637134D-05
   zz         0.999501D+02      0.148111D+02      0.164795D+02

 ----------------------------------------------------------------------
 1\1\GINC-NODE12\Freq\RB3LYP\6-31+G(d)\C1H3Br1Cl1(1-)\ROOT\14-Oct-2019\
 0\\#P Geom=AllCheck Guess=TCheck SCRF=Check GenChk RB3LYP/6-31+G(d) Fr
 eq\\Title Card Required\\-1,1\C,-1.1992591944,-0.8397905963,0.\H,-0.86
 49925286,-1.8728529423,-0.000000072\H,-0.8649734323,-0.3232656648,0.89
 46547038\H,-0.8649734323,-0.3232655402,-0.8946546318\Cl,-3.054979874,-
 0.8397677274,0.\Br,2.0933954398,-0.8398311731,0.\\Version=ES64L-G16Rev
 A.03\State=1-A1\HF=-3071.9309685\RMSD=1.642e-09\RMSF=1.272e-06\ZeroPoi
 nt=0.0384073\Thermal=0.043685\Dipole=-1.9720657,0.0000243,0.\DipoleDer
 iv=1.6267641,-0.0000147,0.,-0.0000314,0.040445,0.,0.,0.,0.0404371,-0.0
 242165,0.014466,0.,0.0294184,0.0060931,0.,0.,0.,0.0844453,-0.0242149,-
 0.0072347,-0.0125315,-0.0147063,0.0648563,-0.0339274,-0.0254745,-0.033
 9283,0.0256801,-0.0242149,-0.0072347,0.0125315,-0.0147063,0.0648562,0.
 0339274,0.0254745,0.0339283,0.0256801,-1.3717839,0.0000224,0.,0.000020
 6,-0.2667099,0.,0.,0.,-0.2667006,-1.1823389,0.0000018,0.,0.0000016,-0.
 909538,0.,0.,0.,-0.9095392\Polar=99.9501209,-0.0005789,49.8358444,0.,0
 .,49.8334938\Quadrupole=-16.1518335,8.0759167,8.0759167,0.0002986,0.,0
 .\PG=C03V [C3(Cl1C1Br1),3SGV(H1)]\NImag=0\\0.25134063,0.00000413,0.606
 52016,0.,0.,0.60651930,-0.05887404,0.08496427,0.,0.07401630,0.08316020
 ,-0.32691682,-0.00000002,-0.08667850,0.34065747,0.,-0.00000002,-0.0514
 1030,0.,0.00000002,0.04682221,-0.05887717,-0.04248450,-0.07358551,0.00
 515616,0.00418780,0.00798024,0.07401950,-0.04158249,-0.12028530,-0.119
 29591,-0.00900557,-0.01128331,-0.02567319,0.04334146,0.12027941,-0.072
 02318,-0.11929614,-0.25803845,0.00036339,0.00203806,0.00236231,0.07507
 020,0.12723254,0.26719707,-0.05887717,-0.04248451,0.07358550,0.0051561
 6,0.00418780,-0.00798024,0.00515634,0.00481742,-0.00761736,0.07401950,
 -0.04158250,-0.12028533,0.11929592,-0.00900557,-0.01128332,0.02567318,
 0.00481742,0.00918504,-0.01385548,0.04334147,0.12027944,0.07202318,0.1
 1929616,-0.25803842,-0.00036339,-0.00203806,0.00236231,0.00761736,0.01
 385548,-0.01810622,-0.07507019,-0.12723256,0.26719704,-0.07889149,0.00
 000053,0.,-0.02389146,-0.00581744,0.,-0.02389168,0.00290928,0.00503847
 ,-0.02389168,0.00290928,-0.00503847,0.15898311,0.00000072,-0.03624079,
 0.,0.01963671,0.00806608,0.,-0.00981782,0.00237849,0.00328389,-0.00981
 782,0.00237849,-0.00328389,-0.00000186,0.02172451,0.,0.,-0.03624043,0.
 ,0.,0.00048241,-0.01700554,0.00328408,0.00617025,0.01700554,-0.0032840
 8,0.00617025,0.,0.,0.02172442,0.00417928,-0.00000001,0.,-0.00156311,0.
 00096019,0.,-0.00156314,-0.00048007,-0.00083152,-0.00156314,-0.0004800
 7,0.00083152,-0.00841687,0.00000006,0.,0.00892700,-0.00000011,-0.00279
 204,0.,0.00008866,0.00075996,0.,-0.00004431,-0.00027427,0.00059712,-0.
 00004431,-0.00027427,-0.00059712,0.00000015,0.00169314,0.,-0.00000008,
 0.00088749,0.,0.,-0.00279212,0.,0.,-0.00061902,-0.00007675,0.00059712,
 0.00041523,0.00007675,-0.00059712,0.00041523,0.,0.,0.00169318,0.,0.,0.
 00088748\\0.00000307,0.,0.,0.00000065,-0.00000070,0.,0.00000065,0.0000
 0035,0.00000060,0.00000065,0.00000035,-0.00000060,-0.00000105,0.,0.,-0
 .00000398,0.,0.\\\@


 NOTHING MAKES A PERSON MORE PRODUCTIVE THAN THE LAST MINUTE.
 Job cpu time:       0 days  0 hours  1 minutes 53.4 seconds.
 Elapsed time:       0 days  0 hours  0 minutes  5.4 seconds.
 File lengths (MBytes):  RWF=     72 Int=      0 D2E=      0 Chk=      8 Scr=      8
 Normal termination of Gaussian 16 at Mon Oct 14 23:37:45 2019.
