H2O opt freq                                                            
Freq      RB3LYP                                                      6-31+G(d)           
Number of atoms                            I                3
Info1-9                                    I   N=           9
          12          11        1002           0           0         100
           6          18        -502
Full Title                                 C   N=           1
H2O opt freq
Route                                      C   N=           3
#p b3lyp/6-31+g* opt freq           
Charge                                     I                0
Multiplicity                               I                1
Number of electrons                        I               10
Number of alpha electrons                  I                5
Number of beta electrons                   I                5
Number of basis functions                  I               23
Number of independent functions            I               23
Number of point charges in /Mol/           I                0
Number of translation vectors              I                0
Atomic numbers                             I   N=           3
           8           1           1
Nuclear charges                            R   N=           3
  8.00000000E+00  1.00000000E+00  1.00000000E+00
Current cartesian coordinates              R   N=           9
 -2.46519033E-32 -1.11022302E-16  2.21645695E-01  0.00000000E+00 -1.45752260E+00
 -8.86582778E-01  1.78495039E-16  1.45752260E+00 -8.86582778E-01
Number of symbols in /Mol/                 I                0
Force Field                                I                0
Atom Types                                 C   N=           3
                                    
Int Atom Types                             I   N=           3
           0           0           0
MM charges                                 R   N=           3
  0.00000000E+00  0.00000000E+00  0.00000000E+00
Integer atomic weights                     I   N=           3
          16           1           1
Real atomic weights                        R   N=           3
  1.59949146E+01  1.00782504E+00  1.00782504E+00
Atom fragment info                         I   N=           3
           0           0           0
Atom residue num                           I   N=           3
           0           0           0
Nuclear spins                              I   N=           3
           0           1           1
Nuclear ZEff                               R   N=           3
 -5.60000000E+00 -1.00000000E+00 -1.00000000E+00
Nuclear ZNuc                               R   N=           3
  8.00000000E+00  1.00000000E+00  1.00000000E+00
Nuclear QMom                               R   N=           3
  0.00000000E+00  0.00000000E+00  0.00000000E+00
Nuclear GFac                               R   N=           3
  0.00000000E+00  2.79284600E+00  2.79284600E+00
MicOpt                                     I   N=           3
          -1          -1          -1
Number of residues                         I                0
Number of secondary structures             I                0
Redundant internal dimensions              I   N=           4
           3           2           1           0
Redundant internal coordinate indices      I   N=          12
           1           2           0           0           1           3
           0           0           2           1           3           0
Redundant internal coordinates             R   N=           3
  1.83099494E+00  1.83099494E+00  1.84140711E+00
ZRed-IntVec                                I   N=           3
           0           0           0
ZRed-FPVec                                 R   N=           3
  0.00000000E+00  0.00000000E+00  0.00000000E+00
ZRed-Constraint1                           R   N=           3
  1.83099494E+00  1.83099494E+00  1.84140711E+00
ZRed-Constraint2                           R   N=           3
  1.81413708E+00  1.81413710E+00  1.91113553E+00
SymInf integers                            I   N=          26
           2           4           1           1           1          -1
          -1           1          -1           1           1           1
          -1           1           0           0           0           0
           0           0           0           0           0           0
           0           0
RotTr to input orientation                 R   N=          12
  2.14684414E-16 -2.26704628E-16  1.00000000E+00 -8.16641550E-01  5.77145198E-01
  3.06161700E-16 -5.77145198E-01 -8.16641550E-01 -6.12323400E-17 -4.87630208E+00
  3.91832422E-01  7.27643679E-17
Number of contracted shells                I                9
Number of primitive shells                 I               20
Pure/Cartesian d shells                    I                1
Pure/Cartesian f shells                    I                0
Highest angular momentum                   I                2
Largest degree of contraction              I                6
Shell types                                I   N=           9
           0          -1          -1          -1           2           0
           0           0           0
Number of primitives per shell             I   N=           9
           6           3           1           1           1           3
           1           3           1
Shell to atom map                          I   N=           9
           1           1           1           1           1           2
           2           3           3
Primitive exponents                        R   N=          20
  5.48467166E+03  8.25234946E+02  1.88046958E+02  5.29645000E+01  1.68975704E+01
  5.79963534E+00  1.55396162E+01  3.59993359E+00  1.01376175E+00  2.70005823E-01
  8.45000000E-02  8.00000000E-01  1.87311370E+01  2.82539436E+00  6.40121692E-01
  1.61277759E-01  1.87311370E+01  2.82539436E+00  6.40121692E-01  1.61277759E-01
Contraction coefficients                   R   N=          20
  1.83107443E-03  1.39501722E-02  6.84450781E-02  2.32714336E-01  4.70192898E-01
  3.58520853E-01 -1.10777550E-01 -1.48026263E-01  1.13076702E+00  1.00000000E+00
  1.00000000E+00  1.00000000E+00  3.34946043E-02  2.34726953E-01  8.13757326E-01
  1.00000000E+00  3.34946043E-02  2.34726953E-01  8.13757326E-01  1.00000000E+00
P(S=P) Contraction coefficients            R   N=          20
  0.00000000E+00  0.00000000E+00  0.00000000E+00  0.00000000E+00  0.00000000E+00
  0.00000000E+00  7.08742682E-02  3.39752839E-01  7.27158577E-01  1.00000000E+00
  1.00000000E+00  0.00000000E+00  0.00000000E+00  0.00000000E+00  0.00000000E+00
  0.00000000E+00  0.00000000E+00  0.00000000E+00  0.00000000E+00  0.00000000E+00
Coordinates of each shell                  R   N=          27
 -6.16297582E-33 -1.24900090E-16  2.21645695E-01 -6.16297582E-33 -1.24900090E-16
  2.21645695E-01 -6.16297582E-33 -1.24900090E-16  2.21645695E-01 -6.16297582E-33
 -1.24900090E-16  2.21645695E-01 -6.16297582E-33 -1.24900090E-16  2.21645695E-01
  0.00000000E+00 -1.45752260E+00 -8.86582778E-01  0.00000000E+00 -1.45752260E+00
 -8.86582778E-01  1.78495039E-16  1.45752260E+00 -8.86582778E-01  1.78495039E-16
  1.45752260E+00 -8.86582778E-01
Num ILSW                                   I              100
ILSW                                       I   N=         100
           0           1           0           0           2           0
           0           0           0           0         402          -1
           5           0           0           0           2           0
           0           0           0           0           1           0
           1           0           0           0           0           0
           0           0      100000           0          -1           0
           0           0           0           0           0           0
           0           0           0           1           0           0
           0 -2000000000           1           0           0           0
           0           0           4          52           0           0
           0           0           5           0           0           0
           0           0           0           3           0           1
           0           0           0           0           0           0
           0           0           0           0           0           0
           0           0           0           0           0           0
           0           0           0           0           0           0
           0           0           0           0
Num RLSW                                   I               52
RLSW                                       R   N=          52
  8.00000000E-01  7.20000000E-01  1.00000000E+00  8.10000000E-01  2.00000000E-01
  0.00000000E+00  0.00000000E+00  1.00000000E+00  0.00000000E+00  0.00000000E+00
  0.00000000E+00  0.00000000E+00  1.00000000E+00  0.00000000E+00  0.00000000E+00
  0.00000000E+00  0.00000000E+00  1.00000000E+00  0.00000000E+00  0.00000000E+00
  0.00000000E+00  0.00000000E+00  1.00000000E+00  0.00000000E+00  0.00000000E+00
  0.00000000E+00  0.00000000E+00  1.00000000E+00  0.00000000E+00  0.00000000E+00
  0.00000000E+00  0.00000000E+00  1.00000000E+00  0.00000000E+00  0.00000000E+00
  0.00000000E+00  0.00000000E+00  0.00000000E+00  1.00000000E+00  1.00000000E+00
  0.00000000E+00  1.00000000E+00  0.00000000E+00  0.00000000E+00  0.00000000E+00
  0.00000000E+00  0.00000000E+00  0.00000000E+00  0.00000000E+00  0.00000000E+00
  0.00000000E+00  0.00000000E+00
MxBond                                     I                2
NBond                                      I   N=           3
           2           1           1
IBond                                      I   N=           6
           2           3           1           0           1           0
RBond                                      R   N=           6
  1.00000000E+00  1.00000000E+00  1.00000000E+00  0.00000000E+00  1.00000000E+00
  0.00000000E+00
Virial Ratio                               R      2.009224341095708E+00
SCF Energy                                 R     -7.642257342054583E+01
Total Energy                               R     -7.642257342054583E+01
RMS Force                                  R      1.540191514459460E-05
NImag                                      I                0
Job Status                                 I                1
Nuclear derivative order                   I                2
External E-field                           R   N=          35
  0.00000000E+00  0.00000000E+00  0.00000000E+00  0.00000000E+00  0.00000000E+00
  0.00000000E+00  0.00000000E+00  0.00000000E+00  0.00000000E+00  0.00000000E+00
  0.00000000E+00  0.00000000E+00  0.00000000E+00  0.00000000E+00  0.00000000E+00
  0.00000000E+00  0.00000000E+00  0.00000000E+00  0.00000000E+00  0.00000000E+00
  0.00000000E+00  0.00000000E+00  0.00000000E+00  0.00000000E+00  0.00000000E+00
  0.00000000E+00  0.00000000E+00  0.00000000E+00  0.00000000E+00  0.00000000E+00
  0.00000000E+00  0.00000000E+00  0.00000000E+00  0.00000000E+00  0.00000000E+00
IOpCl                                      I                0
IROHF                                      I                0
Alpha Orbital Energies                     R   N=          23
 -1.91689475E+01 -1.02227470E+00 -5.43550111E-01 -3.94898574E-01 -3.19258314E-01
  2.48925572E-02  1.13434617E-01  1.55470109E-01  1.55572317E-01  2.03670346E-01
  2.39425804E-01  9.47050342E-01  1.03185062E+00  1.11169730E+00  1.11382008E+00
  1.14373184E+00  1.24352659E+00  1.71234270E+00  1.72084205E+00  1.75827915E+00
  2.27094636E+00  2.63641670E+00  3.67480520E+00
Alpha MO coefficients                      R   N=         529
  9.92745601E-01  2.59223828E-02  0.00000000E+00  0.00000000E+00 -1.20698228E-03
  1.17817163E-02  0.00000000E+00  0.00000000E+00  6.27245660E-04 -1.08003166E-03
  0.00000000E+00  0.00000000E+00 -7.02334361E-04 -8.07404445E-03 -8.15159659E-03
 -8.11560403E-03  0.00000000E+00  0.00000000E+00  0.00000000E+00  3.96505181E-04
 -9.01029097E-04  3.96505181E-04 -9.01029097E-04 -2.10167155E-01  4.75132297E-01
  0.00000000E+00  0.00000000E+00 -1.24718197E-01  4.40821855E-01  0.00000000E+00
  0.00000000E+00 -6.72826890E-02  5.59705790E-02  0.00000000E+00  0.00000000E+00
 -1.81013498E-02 -1.00879700E-02  2.10204039E-02  1.62209756E-02  0.00000000E+00
  0.00000000E+00  0.00000000E+00  1.40374765E-01 -3.19508101E-02  1.40374765E-01
 -3.19508101E-02  0.00000000E+00  0.00000000E+00  0.00000000E+00  5.23979524E-01
  0.00000000E+00  0.00000000E+00  0.00000000E+00  2.69374207E-01  0.00000000E+00
  0.00000000E+00  0.00000000E+00  1.91041292E-02  0.00000000E+00  0.00000000E+00
  0.00000000E+00  0.00000000E+00  0.00000000E+00  0.00000000E+00 -4.09888532E-02
 -2.39147792E-01 -1.13692992E-01  2.39147792E-01  1.13692992E-01 -8.09760836E-02
  1.85396626E-01  0.00000000E+00  0.00000000E+00  5.61006282E-01  3.15129457E-01
  0.00000000E+00  0.00000000E+00  3.39422994E-01  3.27948680E-02  0.00000000E+00
  0.00000000E+00  7.99731532E-02  9.90080445E-03  1.08928827E-02 -4.12306609E-02
  0.00000000E+00  0.00000000E+00  0.00000000E+00 -1.43313262E-01 -8.74166884E-02
 -1.43313262E-01 -8.74166884E-02  0.00000000E+00  0.00000000E+00  6.44065105E-01
  0.00000000E+00  0.00000000E+00  0.00000000E+00  4.34948042E-01  0.00000000E+00
  0.00000000E+00  0.00000000E+00  1.23354476E-01  0.00000000E+00  0.00000000E+00
  0.00000000E+00  0.00000000E+00  0.00000000E+00  0.00000000E+00 -3.40707405E-02
  0.00000000E+00  0.00000000E+00  0.00000000E+00  0.00000000E+00  0.00000000E+00
  9.44677411E-02 -1.13970930E-01  0.00000000E+00  0.00000000E+00  2.31368438E-01
 -1.06112318E+00  0.00000000E+00  0.00000000E+00  2.58461899E-01  1.27358365E+00
  0.00000000E+00  0.00000000E+00 -4.25793822E-01  5.61315836E-02  4.43218190E-02
  3.45870888E-02  0.00000000E+00  0.00000000E+00  0.00000000E+00  9.07130749E-02
  8.73203116E-02  9.07130749E-02  8.73203116E-02  0.00000000E+00  0.00000000E+00
  0.00000000E+00 -3.44965670E-01  0.00000000E+00  0.00000000E+00  0.00000000E+00
 -5.94770881E-01  0.00000000E+00  0.00000000E+00  0.00000000E+00  9.12714013E-01
  0.00000000E+00  0.00000000E+00  0.00000000E+00  0.00000000E+00  0.00000000E+00
  0.00000000E+00  2.66563378E-02 -6.92747144E-02 -3.58847764E-01  6.92747144E-02
  3.58847764E-01  0.00000000E+00  0.00000000E+00 -2.70978977E-01  0.00000000E+00
  0.00000000E+00  0.00000000E+00 -4.61846462E-01  0.00000000E+00  0.00000000E+00
  0.00000000E+00  1.20000107E+00  0.00000000E+00  0.00000000E+00  0.00000000E+00
  0.00000000E+00  0.00000000E+00  0.00000000E+00  8.47288281E-03  0.00000000E+00
  0.00000000E+00  0.00000000E+00  0.00000000E+00  0.00000000E+00  5.86960734E-02
 -5.21988456E-02  0.00000000E+00  0.00000000E+00 -1.85067857E-01 -7.08769558E-01
  0.00000000E+00  0.00000000E+00 -3.04008095E-01  5.52371538E-02  0.00000000E+00
  0.00000000E+00  1.32933300E+00  3.33183762E-02  4.54428216E-02  4.70823104E-02
  0.00000000E+00  0.00000000E+00  0.00000000E+00  3.00195211E-02  4.72438603E-01
  3.00195211E-02  4.72438603E-01  0.00000000E+00  0.00000000E+00  0.00000000E+00
  2.34368421E-01  0.00000000E+00  0.00000000E+00  0.00000000E+00  5.22987831E-01
  0.00000000E+00  0.00000000E+00  0.00000000E+00  1.55629773E+00  0.00000000E+00
  0.00000000E+00  0.00000000E+00  0.00000000E+00  0.00000000E+00  0.00000000E+00
  2.00240349E-02  1.65547342E-01  1.85353919E+00 -1.65547342E-01 -1.85353919E+00
 -4.54880519E-02  5.73124674E-02  0.00000000E+00  0.00000000E+00 -2.37168688E-01
  7.74188934E-01  0.00000000E+00  0.00000000E+00 -6.12505907E-01  3.30860841E+00
  0.00000000E+00  0.00000000E+00 -1.10654468E+00 -1.10829107E-03 -4.05365383E-02
  5.66301903E-03  0.00000000E+00  0.00000000E+00  0.00000000E+00 -1.69341528E-01
 -2.39606494E+00 -1.69341528E-01 -2.39606494E+00  0.00000000E+00  0.00000000E+00
  0.00000000E+00 -6.21806835E-01  0.00000000E+00  0.00000000E+00  0.00000000E+00
  4.82646660E-01  0.00000000E+00  0.00000000E+00  0.00000000E+00  8.21738062E-01
  0.00000000E+00  0.00000000E+00  0.00000000E+00  0.00000000E+00  0.00000000E+00
  0.00000000E+00 -2.14710460E-01 -7.55628690E-01  1.77431048E+00  7.55628690E-01
 -1.77431048E+00  1.65529361E-03  8.21635746E-01  0.00000000E+00  0.00000000E+00
 -6.79751372E-01 -1.98901410E+00  0.00000000E+00  0.00000000E+00  9.12138297E-01
 -1.73122685E+00  0.00000000E+00  0.00000000E+00  5.62870650E-01  2.94127618E-01
  1.09427826E-01  1.92780200E-01  0.00000000E+00  0.00000000E+00  0.00000000E+00
 -6.19469563E-01  2.05482359E+00 -6.19469563E-01  2.05482359E+00  0.00000000E+00
  0.00000000E+00  0.00000000E+00 -7.87304277E-01  0.00000000E+00  0.00000000E+00
  0.00000000E+00  1.61568875E+00  0.00000000E+00  0.00000000E+00  0.00000000E+00
 -8.08488481E-01  0.00000000E+00  0.00000000E+00  0.00000000E+00  0.00000000E+00
  0.00000000E+00  0.00000000E+00  1.84971230E-01  4.33631493E-01 -2.51163798E-01
 -4.33631493E-01  2.51163798E-01  0.00000000E+00  0.00000000E+00 -9.72666070E-01
  0.00000000E+00  0.00000000E+00  0.00000000E+00  1.45738874E+00  0.00000000E+00
  0.00000000E+00  0.00000000E+00 -7.02617577E-01  0.00000000E+00  0.00000000E+00
  0.00000000E+00  0.00000000E+00  0.00000000E+00  0.00000000E+00 -3.59610855E-02
  0.00000000E+00  0.00000000E+00  0.00000000E+00  0.00000000E+00  0.00000000E+00
  2.22736532E-02 -3.54890039E-01  0.00000000E+00  0.00000000E+00 -7.02356470E-01
  5.58047534E-01  0.00000000E+00  0.00000000E+00  1.37977298E+00  4.84855923E-01
  0.00000000E+00  0.00000000E+00 -9.00490797E-01 -2.30029559E-01  1.26189030E-01
 -1.49025038E-01  0.00000000E+00  0.00000000E+00  0.00000000E+00  5.67641356E-01
 -6.93406670E-01  5.67641356E-01 -6.93406670E-01 -8.39986335E-02 -1.52629811E+00
  0.00000000E+00  0.00000000E+00 -1.55543173E-01  3.54009106E+00  0.00000000E+00
  0.00000000E+00 -1.10996184E-01 -1.31303599E+00  0.00000000E+00  0.00000000E+00
  3.07714806E-02 -2.47083597E-01 -6.87571916E-01 -4.25705396E-01  0.00000000E+00
  0.00000000E+00  0.00000000E+00 -4.61550696E-01  1.93474761E-01 -4.61550696E-01
  1.93474761E-01  7.93642542E-03  6.32600575E-02  0.00000000E+00  0.00000000E+00
 -2.25320708E-02 -1.90142717E-01  0.00000000E+00  0.00000000E+00  1.70214455E-01
  7.17185644E-02  0.00000000E+00  0.00000000E+00 -6.98306620E-02 -3.92154016E-01
 -5.58204337E-01  1.00866988E+00  0.00000000E+00  0.00000000E+00  0.00000000E+00
  1.00583136E-01 -3.58093370E-02  1.00583136E-01 -3.58093370E-02  0.00000000E+00
  0.00000000E+00  0.00000000E+00  0.00000000E+00  0.00000000E+00  0.00000000E+00
  0.00000000E+00  0.00000000E+00  0.00000000E+00  0.00000000E+00  0.00000000E+00
  0.00000000E+00  0.00000000E+00  0.00000000E+00  0.00000000E+00  0.00000000E+00
  1.00000000E+00  0.00000000E+00  0.00000000E+00  0.00000000E+00  0.00000000E+00
  0.00000000E+00  0.00000000E+00  0.00000000E+00  0.00000000E+00 -1.07519668E-02
  0.00000000E+00  0.00000000E+00  0.00000000E+00  7.12314691E-02  0.00000000E+00
  0.00000000E+00  0.00000000E+00 -3.12710982E-02  0.00000000E+00  0.00000000E+00
  0.00000000E+00  0.00000000E+00  0.00000000E+00  0.00000000E+00  9.98736299E-01
  0.00000000E+00  0.00000000E+00  0.00000000E+00  0.00000000E+00  0.00000000E+00
 -5.50723039E-02 -4.93276887E-01  0.00000000E+00  0.00000000E+00  6.36736458E-02
  1.47870480E+00  0.00000000E+00  0.00000000E+00 -7.31417609E-01 -3.12330057E-01
  0.00000000E+00  0.00000000E+00  1.66901119E-01 -1.11171358E+00  7.52258628E-01
  1.62608206E-02  0.00000000E+00  0.00000000E+00  0.00000000E+00 -8.66479095E-01
  1.15801263E-01 -8.66479095E-01  1.15801263E-01  0.00000000E+00  0.00000000E+00
  0.00000000E+00  6.99803329E-02  0.00000000E+00  0.00000000E+00  0.00000000E+00
 -9.87439127E-01  0.00000000E+00  0.00000000E+00  0.00000000E+00  4.22984159E-01
  0.00000000E+00  0.00000000E+00  0.00000000E+00  0.00000000E+00  0.00000000E+00
  0.00000000E+00  1.25959623E+00 -1.05208650E+00  4.45752799E-01  1.05208650E+00
 -4.45752799E-01 -4.91831602E-01  1.43204086E-01  0.00000000E+00  0.00000000E+00
  3.28375968E-02  4.20359770E+00  0.00000000E+00  0.00000000E+00 -9.00780292E-02
 -2.20377944E-01  0.00000000E+00  0.00000000E+00 -2.67352179E-01 -1.65565711E+00
 -1.63036356E+00 -1.64093754E+00  0.00000000E+00  0.00000000E+00  0.00000000E+00
  1.45339804E-01 -5.92907773E-01  1.45339804E-01 -5.92907773E-01
Orthonormal basis                          R   N=         529
  2.56963840E-02  1.31532724E-01  0.00000000E+00  0.00000000E+00 -2.07706287E-02
  1.78453237E-01  0.00000000E+00  0.00000000E+00 -4.48890528E-02  1.55140511E-01
  0.00000000E+00  0.00000000E+00 -3.96330950E-02  1.16820587E-01  1.30261842E-01
  1.24591425E-01  0.00000000E+00  0.00000000E+00  0.00000000E+00  1.00602055E-01
  1.47583215E-01  1.00602055E-01  1.47583215E-01  3.83470033E-02  1.34168240E-01
  0.00000000E+00  0.00000000E+00  2.58073660E-01  1.20409803E-01  0.00000000E+00
  0.00000000E+00  4.01870911E-01  6.27701559E-02  0.00000000E+00  0.00000000E+00
  3.40557563E-01  1.16517243E-01  7.37901630E-02  9.18152939E-02  0.00000000E+00
  0.00000000E+00  0.00000000E+00 -1.20807261E-01 -7.89975867E-02 -1.20807261E-01
 -7.89975867E-02  8.27839614E-01  3.27855117E-01  0.00000000E+00  0.00000000E+00
 -2.26807902E-01  4.54253139E-02  0.00000000E+00  0.00000000E+00 -1.04701029E-01
 -2.07187908E-01  0.00000000E+00  0.00000000E+00 -8.28280574E-03  4.92224599E-02
 -4.38344685E-02 -4.57685251E-03  0.00000000E+00  0.00000000E+00  0.00000000E+00
 -4.94319446E-02 -1.34237672E-01 -4.94319446E-02 -1.34237672E-01  4.08826442E-01
 -2.13886746E-01  0.00000000E+00  0.00000000E+00  6.99431397E-01 -6.29118401E-02
  0.00000000E+00  0.00000000E+00  6.75731938E-02  2.15702809E-01  0.00000000E+00
  0.00000000E+00 -3.72946791E-01 -1.68863646E-01 -1.63266093E-01 -1.65627514E-01
  0.00000000E+00  0.00000000E+00  0.00000000E+00 -3.99054972E-02  2.29799926E-01
 -3.99054972E-02  2.29799926E-01 -2.38549194E-01  2.59977644E-01  0.00000000E+00
  0.00000000E+00  1.33404115E-01  5.63615810E-02  0.00000000E+00  0.00000000E+00
 -1.35990870E-01 -1.45063903E-01  0.00000000E+00  0.00000000E+00 -4.15761587E-01
  7.13590058E-01 -4.16875882E-01  6.00300139E-02  0.00000000E+00  0.00000000E+00
  0.00000000E+00 -3.13489515E-01 -3.01277541E-02 -3.13489515E-01 -3.01277541E-02
  1.83847216E-01 -3.88090859E-01  0.00000000E+00  0.00000000E+00 -4.87009767E-01
  2.38402129E-03  0.00000000E+00  0.00000000E+00  1.04036723E-01  5.42259035E-01
  0.00000000E+00  0.00000000E+00  3.52699816E-01  2.30846252E-01 -5.06747248E-01
 -1.95581138E-01  0.00000000E+00  0.00000000E+00  0.00000000E+00 -1.56473117E-01
  2.20881682E-01 -1.56473117E-01  2.20881682E-01 -6.77250851E-16  7.30695377E-17
  0.00000000E+00  0.00000000E+00 -1.58418740E-15  3.28455157E-16  0.00000000E+00
  0.00000000E+00  4.49308924E-16  4.12226307E-16  0.00000000E+00  0.00000000E+00
 -9.99978659E-16 -4.20160130E-01 -5.75794670E-01  9.95954800E-01  0.00000000E+00
  0.00000000E+00  0.00000000E+00 -2.13743861E-15  5.50499688E-16 -2.13743861E-15
  5.50499688E-16  1.56379181E-01 -4.62363340E-01  0.00000000E+00  0.00000000E+00
  5.03835144E-01 -3.48802969E-03  0.00000000E+00  0.00000000E+00 -4.36484371E-01
 -3.05119882E-01  0.00000000E+00  0.00000000E+00  5.84808024E-01  6.74771209E-01
 -3.81176638E-01  6.42925581E-02  0.00000000E+00  0.00000000E+00  0.00000000E+00
  6.78605761E-01 -1.86054961E-01  6.78605761E-01 -1.86054961E-01 -3.32792863E-01
  1.25602922E+00  0.00000000E+00  0.00000000E+00  3.54816896E-01 -1.80454955E-01
  0.00000000E+00  0.00000000E+00 -6.56441720E-01  3.63044066E-01  0.00000000E+00
  0.00000000E+00  6.54777207E-01 -5.52629801E-01 -6.65674841E-01 -6.17984907E-01
  0.00000000E+00  0.00000000E+00  0.00000000E+00  7.34564823E-02  1.23871034E-01
  7.34564823E-02  1.23871034E-01 -1.39598845E-01  5.70286235E-01  0.00000000E+00
  0.00000000E+00 -4.40383728E-01 -9.68133592E-02  0.00000000E+00  0.00000000E+00
  1.62250236E+00 -2.43398595E-01  0.00000000E+00  0.00000000E+00 -7.32899677E-01
  2.04986093E-02 -8.66938303E-01 -4.92558253E-01  0.00000000E+00  0.00000000E+00
  0.00000000E+00  9.29123761E-01  1.08797032E-02  9.29123761E-01  1.08797032E-02
  2.28283031E-01  5.05811337E-01  0.00000000E+00  0.00000000E+00  8.32607928E-02
 -2.56482580E+00  0.00000000E+00  0.00000000E+00 -2.07865007E-01  3.82519964E+00
  0.00000000E+00  0.00000000E+00 -1.11137507E+00  8.08999198E-01  7.09533967E-01
  7.51495032E-01  0.00000000E+00  0.00000000E+00  0.00000000E+00  5.39259704E-01
 -2.19825656E+00  5.39259704E-01 -2.19825656E+00 -3.88790833E-01 -9.48177601E-01
  0.00000000E+00  0.00000000E+00  1.27457294E-01  5.70424762E+00  0.00000000E+00
  0.00000000E+00 -6.84656079E-01  1.52802970E+00  0.00000000E+00  0.00000000E+00
 -1.14693588E+00 -1.45708002E+00 -1.17727486E+00 -1.29531533E+00  0.00000000E+00
  0.00000000E+00  0.00000000E+00  8.70699598E-02 -2.46098241E+00  8.70699598E-02
 -2.46098241E+00  0.00000000E+00  0.00000000E+00  0.00000000E+00  0.00000000E+00
  0.00000000E+00  0.00000000E+00  0.00000000E+00  0.00000000E+00  0.00000000E+00
  0.00000000E+00  0.00000000E+00  0.00000000E+00  0.00000000E+00  0.00000000E+00
  0.00000000E+00  0.00000000E+00  1.00000000E+00  0.00000000E+00  0.00000000E+00
  0.00000000E+00  0.00000000E+00  0.00000000E+00  0.00000000E+00  0.00000000E+00
  0.00000000E+00  3.38496871E-01  0.00000000E+00  0.00000000E+00  0.00000000E+00
  4.84301624E-01  0.00000000E+00  0.00000000E+00  0.00000000E+00  4.13451438E-01
  0.00000000E+00  0.00000000E+00  0.00000000E+00  0.00000000E+00  0.00000000E+00
  0.00000000E+00  0.00000000E+00  0.00000000E+00  0.00000000E+00  0.00000000E+00
  0.00000000E+00  0.00000000E+00  0.00000000E+00  0.00000000E+00  0.00000000E+00
  0.00000000E+00  0.00000000E+00  0.00000000E+00  0.00000000E+00  0.00000000E+00
  0.00000000E+00  0.00000000E+00  0.00000000E+00  0.00000000E+00  0.00000000E+00
  0.00000000E+00  0.00000000E+00  0.00000000E+00  0.00000000E+00  1.00000000E+00
  0.00000000E+00  0.00000000E+00  0.00000000E+00  0.00000000E+00  0.00000000E+00
  0.00000000E+00  0.00000000E+00  8.79966812E-01  0.00000000E+00  0.00000000E+00
  0.00000000E+00 -6.66489147E-02  0.00000000E+00  0.00000000E+00  0.00000000E+00
 -6.42367665E-01  0.00000000E+00  0.00000000E+00  0.00000000E+00  0.00000000E+00
  0.00000000E+00  0.00000000E+00  0.00000000E+00  0.00000000E+00  0.00000000E+00
  0.00000000E+00  0.00000000E+00  0.00000000E+00  0.00000000E+00  0.00000000E+00
 -7.38595040E-01  0.00000000E+00  0.00000000E+00  0.00000000E+00  1.51411613E+00
  0.00000000E+00  0.00000000E+00  0.00000000E+00 -1.16888405E+00  0.00000000E+00
  0.00000000E+00  0.00000000E+00  0.00000000E+00  0.00000000E+00  0.00000000E+00
  0.00000000E+00  0.00000000E+00  0.00000000E+00  0.00000000E+00  0.00000000E+00
  0.00000000E+00  0.00000000E+00  0.00000000E+00  0.00000000E+00  1.89568873E-01
  0.00000000E+00  0.00000000E+00  0.00000000E+00  3.29356869E-01  0.00000000E+00
  0.00000000E+00  0.00000000E+00  2.78247388E-01  0.00000000E+00  0.00000000E+00
  0.00000000E+00  0.00000000E+00  0.00000000E+00  0.00000000E+00 -8.27724811E-02
 -2.00413437E-01 -1.57807558E-01  2.00413437E-01  1.57807558E-01  0.00000000E+00
  0.00000000E+00  0.00000000E+00  1.44432028E-01  0.00000000E+00  0.00000000E+00
  0.00000000E+00  1.75077886E-01  0.00000000E+00  0.00000000E+00  0.00000000E+00
  2.29649577E-01  0.00000000E+00  0.00000000E+00  0.00000000E+00  0.00000000E+00
  0.00000000E+00  0.00000000E+00  7.83540781E-01  2.41934648E-01 -4.08320327E-02
 -2.41934648E-01  4.08320327E-02  0.00000000E+00  0.00000000E+00  0.00000000E+00
  8.80435127E-01  0.00000000E+00  0.00000000E+00  0.00000000E+00  5.65282524E-02
  0.00000000E+00  0.00000000E+00  0.00000000E+00 -5.05624793E-01  0.00000000E+00
  0.00000000E+00  0.00000000E+00  0.00000000E+00  0.00000000E+00  0.00000000E+00
  1.51173558E-02 -3.66111374E-02  1.84578334E-01  3.66111374E-02 -1.84578334E-01
  0.00000000E+00  0.00000000E+00  0.00000000E+00  6.12961578E-01  0.00000000E+00
  0.00000000E+00  0.00000000E+00 -4.85061988E-01  0.00000000E+00  0.00000000E+00
  0.00000000E+00  8.48121895E-01  0.00000000E+00  0.00000000E+00  0.00000000E+00
  0.00000000E+00  0.00000000E+00  0.00000000E+00 -6.74202432E-01  6.70742399E-01
 -6.53280862E-02 -6.70742399E-01  6.53280862E-02  0.00000000E+00  0.00000000E+00
  0.00000000E+00 -4.91572799E-01  0.00000000E+00  0.00000000E+00  0.00000000E+00
  2.02979454E+00  0.00000000E+00  0.00000000E+00  0.00000000E+00 -4.96614894E-01
  0.00000000E+00  0.00000000E+00  0.00000000E+00  0.00000000E+00  0.00000000E+00
  0.00000000E+00 -7.52241602E-01  9.33163519E-01  3.97274901E-01 -9.33163519E-01
 -3.97274901E-01  0.00000000E+00  0.00000000E+00  0.00000000E+00 -1.02687530E-01
  0.00000000E+00  0.00000000E+00  0.00000000E+00  1.43493780E-01  0.00000000E+00
  0.00000000E+00  0.00000000E+00  1.84703629E+00  0.00000000E+00  0.00000000E+00
  0.00000000E+00  0.00000000E+00  0.00000000E+00  0.00000000E+00  1.68097885E-01
 -7.31140042E-01  2.60087044E+00  7.31140042E-01 -2.60087044E+00
Total SCF Density                          R   N=         276
  2.07254238E+00 -1.78271128E-01  5.21589157E-01  0.00000000E+00  0.00000000E+00
  8.29639720E-01  1.13324068E-18 -2.48244429E-18  1.12474309E-31  5.49109083E-01
 -4.08292986E-02  8.94394814E-02 -8.54923916E-32 -3.09361385E-18  6.60568268E-01
 -2.12935954E-01  5.36356097E-01 -3.15265109E-32 -6.76108490E-18  2.43593756E-01
  5.87538582E-01  0.00000000E+00  0.00000000E+00  5.60269713E-01  6.62519901E-32
 -4.66145374E-32  0.00000000E+00  3.78359598E-01  7.06203877E-19 -1.71951115E-18
  6.62519901E-32  2.82293138E-01 -3.20091074E-18 -4.29156122E-18  3.85185989E-32
  1.45124927E-01 -2.54436761E-02  6.19519183E-02 -5.14607256E-32 -3.20091074E-18
  3.97618101E-01  1.54619788E-01 -3.09928877E-32 -2.61861971E-18  2.39470645E-01
 -3.09819480E-02  6.52909813E-02 -2.95572004E-33 -6.33875221E-19  2.28377617E-02
  6.99899176E-02 -1.90634252E-33 -4.08828737E-19  1.47296076E-02  8.41875111E-03
  0.00000000E+00  0.00000000E+00  1.58896627E-01  1.61778115E-32 -1.32202269E-32