 Entering Gaussian System, Link 0=g16
 Input=w1.gjf
 Output=w1.log
 Initial command:
 /home/soft/g16/l1.exe "/tmp/gaussian/Gau-144589.inp" -scrdir="/tmp/gaussian/"
 Entering Link 1 = /home/soft/g16/l1.exe PID=    144590.
  
 Copyright (c) 1988,1990,1992,1993,1995,1998,2003,2009,2016,
            Gaussian, Inc.  All Rights Reserved.
  
 This is part of the Gaussian(R) 16 program.  It is based on
 the Gaussian(R) 09 system (copyright 2009, Gaussian, Inc.),
 the Gaussian(R) 03 system (copyright 2003, Gaussian, Inc.),
 the Gaussian(R) 98 system (copyright 1998, Gaussian, Inc.),
 the Gaussian(R) 94 system (copyright 1995, Gaussian, Inc.),
 the Gaussian 92(TM) system (copyright 1992, Gaussian, Inc.),
 the Gaussian 90(TM) system (copyright 1990, Gaussian, Inc.),
 the Gaussian 88(TM) system (copyright 1988, Gaussian, Inc.),
 the Gaussian 86(TM) system (copyright 1986, Carnegie Mellon
 University), and the Gaussian 82(TM) system (copyright 1983,
 Carnegie Mellon University). Gaussian is a federally registered
 trademark of Gaussian, Inc.
  
 This software contains proprietary and confidential information,
 including trade secrets, belonging to Gaussian, Inc.
  
 This software is provided under written license and may be
 used, copied, transmitted, or stored only in accord with that
 written license.
  
 The following legend is applicable only to US Government
 contracts under FAR:
  
                    RESTRICTED RIGHTS LEGEND
  
 Use, reproduction and disclosure by the US Government is
 subject to restrictions as set forth in subparagraphs (a)
 and (c) of the Commercial Computer Software - Restricted
 Rights clause in FAR 52.227-19.
  
 Gaussian, Inc.
 340 Quinnipiac St., Bldg. 40, Wallingford CT 06492
  
  
 ---------------------------------------------------------------
 Warning -- This program may not be used in any manner that
 competes with the business of Gaussian, Inc. or will provide
 assistance to any competitor of Gaussian, Inc.  The licensee
 of this program is prohibited from giving any competitor of
 Gaussian, Inc. access to this program.  By using this program,
 the user acknowledges that Gaussian, Inc. is engaged in the
 business of creating and licensing software in the field of
 computational chemistry and represents and warrants to the
 licensee that it is not a competitor of Gaussian, Inc. and that
 it will not use this program in any manner prohibited above.
 ---------------------------------------------------------------
  

 Cite this work as:
 Gaussian 16, Revision A.03,
 M. J. Frisch, G. W. Trucks, H. B. Schlegel, G. E. Scuseria, 
 M. A. Robb, J. R. Cheeseman, G. Scalmani, V. Barone, 
 G. A. Petersson, H. Nakatsuji, X. Li, M. Caricato, A. V. Marenich, 
 J. Bloino, B. G. Janesko, R. Gomperts, B. Mennucci, H. P. Hratchian, 
 J. V. Ortiz, A. F. Izmaylov, J. L. Sonnenberg, D. Williams-Young, 
 F. Ding, F. Lipparini, F. Egidi, J. Goings, B. Peng, A. Petrone, 
 T. Henderson, D. Ranasinghe, V. G. Zakrzewski, J. Gao, N. Rega, 
 G. Zheng, W. Liang, M. Hada, M. Ehara, K. Toyota, R. Fukuda, 
 J. Hasegawa, M. Ishida, T. Nakajima, Y. Honda, O. Kitao, H. Nakai, 
 T. Vreven, K. Throssell, J. A. Montgomery, Jr., J. E. Peralta, 
 F. Ogliaro, M. J. Bearpark, J. J. Heyd, E. N. Brothers, K. N. Kudin, 
 V. N. Staroverov, T. A. Keith, R. Kobayashi, J. Normand, 
 K. Raghavachari, A. P. Rendell, J. C. Burant, S. S. Iyengar, 
 J. Tomasi, M. Cossi, J. M. Millam, M. Klene, C. Adamo, R. Cammi, 
 J. W. Ochterski, R. L. Martin, K. Morokuma, O. Farkas, 
 J. B. Foresman, and D. J. Fox, Gaussian, Inc., Wallingford CT, 2016.
 
 ******************************************
 Gaussian 16:  ES64L-G16RevA.03 25-Dec-2016
                11-Oct-2019 
 ******************************************
 %chk=w1.chk
 %nproc=24
 Will use up to   24 processors via shared memory.
 -------------------------
 #p b3lyp/6-31+g* opt freq
 -------------------------
 1/18=20,19=15,26=3,38=1/1,3;
 2/9=110,12=2,17=6,18=5,40=1/2;
 3/5=1,6=6,7=11,11=2,25=1,30=1,71=1,74=-5/1,2,3;
 4//1;
 5/5=2,38=5/2;
 6/7=2,8=2,9=2,10=2,28=1/1;
 7//1,2,3,16;
 1/18=20,19=15,26=3/3(2);
 2/9=110/2;
 99//99;
 2/9=110/2;
 3/5=1,6=6,7=11,11=2,25=1,30=1,71=1,74=-5/1,2,3;
 4/5=5,16=3,69=1/1;
 5/5=2,38=5/2;
 7//1,2,3,16;
 1/18=20,19=15,26=3/3(-5);
 2/9=110/2;
 6/7=2,8=2,9=2,10=2,19=2,28=1/1;
 99/9=1/99;
 Leave Link    1 at Fri Oct 11 18:51:45 2019, MaxMem=           0 cpu:               1.8 elap:               0.1
 (Enter /home/soft/g16/l101.exe)
 ------------
 H2O opt freq
 ------------
 Symbolic Z-matrix:
 Charge =  0 Multiplicity = 1
 O                    -2.63566   0.1292    0. 
 H                    -1.67566   0.1292    0. 
 H                    -2.95611   1.03413   0. 
 
 ITRead=  0  0  0
 MicOpt= -1 -1 -1
 NAtoms=      3 NQM=        3 NQMF=       0 NMMI=      0 NMMIF=      0
                NMic=       0 NMicF=      0.
                    Isotopes and Nuclear Properties:
 (Nuclear quadrupole moments (NQMom) in fm**2, nuclear magnetic moments (NMagM)
  in nuclear magnetons)

  Atom         1           2           3
 IAtWgt=          16           1           1
 AtmWgt=  15.9949146   1.0078250   1.0078250
 NucSpn=           0           1           1
 AtZEff=  -0.0000000  -0.0000000  -0.0000000
 NQMom=    0.0000000   0.0000000   0.0000000
 NMagM=    0.0000000   2.7928460   2.7928460
 AtZNuc=   8.0000000   1.0000000   1.0000000
 Leave Link  101 at Fri Oct 11 18:51:45 2019, MaxMem=   280000000 cpu:               4.3 elap:               0.2
 (Enter /home/soft/g16/l103.exe)

 GradGradGradGradGradGradGradGradGradGradGradGradGradGradGradGradGradGrad
 Berny optimization.
 Initialization pass.
                           ----------------------------
                           !    Initial Parameters    !
                           ! (Angstroms and Degrees)  !
 --------------------------                            --------------------------
 ! Name  Definition              Value          Derivative Info.                !
 --------------------------------------------------------------------------------
 ! R1    R(1,2)                  0.96           estimate D2E/DX2                !
 ! R2    R(1,3)                  0.96           estimate D2E/DX2                !
 ! A1    A(2,1,3)              109.5            estimate D2E/DX2                !
 --------------------------------------------------------------------------------
 Trust Radius=3.00D-01 FncErr=1.00D-07 GrdErr=1.00D-06 EigMax=2.50D+02 EigMin=1.00D-04
 Number of steps in this run=     20 maximum allowed number of steps=    100.
 GradGradGradGradGradGradGradGradGradGradGradGradGradGradGradGradGradGrad

 Leave Link  103 at Fri Oct 11 18:51:45 2019, MaxMem=   280000000 cpu:               0.6 elap:               0.1
 (Enter /home/soft/g16/l202.exe)
                          Input orientation:                          
 ---------------------------------------------------------------------
 Center     Atomic      Atomic             Coordinates (Angstroms)
 Number     Number       Type             X           Y           Z
 ---------------------------------------------------------------------
      1          8           0       -2.635659    0.129199    0.000000
      2          1           0       -1.675659    0.129199    0.000000
      3          1           0       -2.956113    1.034135    0.000000
 ---------------------------------------------------------------------
                    Distance matrix (angstroms):
                    1          2          3
     1  O    0.000000
     2  H    0.960000   0.000000
     3  H    0.960000   1.567952   0.000000
 Stoichiometry    H2O
 Framework group  C2V[C2(O),SGV(H2)]
 Deg. of freedom     2
 Full point group                 C2V     NOp   4
 Largest Abelian subgroup         C2V     NOp   4
 Largest concise Abelian subgroup C2      NOp   2
                         Standard orientation:                         
 ---------------------------------------------------------------------
 Center     Atomic      Atomic             Coordinates (Angstroms)
 Number     Number       Type             X           Y           Z
 ---------------------------------------------------------------------
      1          8           0        0.000000    0.000000    0.110812
      2          1           0       -0.000000   -0.783976   -0.443248
      3          1           0        0.000000    0.783976   -0.443248
 ---------------------------------------------------------------------
 Rotational constants (GHZ):         919.6759403         407.9403345         282.5913766
 Leave Link  202 at Fri Oct 11 18:51:45 2019, MaxMem=   280000000 cpu:               1.0 elap:               0.1
 (Enter /home/soft/g16/l301.exe)
 Standard basis: 6-31+G(d) (6D, 7F)
 Ernie: Thresh=  0.10000D-02 Tol=  0.10000D-05 Strict=F.
 There are    12 symmetry adapted cartesian basis functions of A1  symmetry.
 There are     1 symmetry adapted cartesian basis functions of A2  symmetry.
 There are     4 symmetry adapted cartesian basis functions of B1  symmetry.
 There are     6 symmetry adapted cartesian basis functions of B2  symmetry.
 There are    12 symmetry adapted basis functions of A1  symmetry.
 There are     1 symmetry adapted basis functions of A2  symmetry.
 There are     4 symmetry adapted basis functions of B1  symmetry.
 There are     6 symmetry adapted basis functions of B2  symmetry.
    23 basis functions,    40 primitive gaussians,    23 cartesian basis functions
     5 alpha electrons        5 beta electrons
       nuclear repulsion energy         9.1571160122 Hartrees.
 IExCor=  402 DFT=T Ex+Corr=B3LYP ExCW=0 ScaHFX=  0.200000
 ScaDFX=  0.800000  0.720000  1.000000  0.810000 ScalE2=  1.000000  1.000000
 IRadAn=      5 IRanWt=     -1 IRanGd=            0 ICorTp=0 IEmpDi=  4
 NAtoms=    3 NActive=    3 NUniq=    2 SFac= 2.25D+00 NAtFMM=   60 NAOKFM=F Big=F
 Integral buffers will be    131072 words long.
 Raffenetti 2 integral format.
 Two-electron integral symmetry is turned on.
 Leave Link  301 at Fri Oct 11 18:51:45 2019, MaxMem=   280000000 cpu:               1.9 elap:               0.1
 (Enter /home/soft/g16/l302.exe)
 NPDir=0 NMtPBC=     1 NCelOv=     1 NCel=       1 NClECP=     1 NCelD=      1
         NCelK=      1 NCelE2=     1 NClLst=     1 CellRange=     0.0.
 One-electron integrals computed using PRISM.
 One-electron integral symmetry used in STVInt
 NBasis=    23 RedAO= T EigKep=  1.84D-02  NBF=    12     1     4     6
 NBsUse=    23 1.00D-06 EigRej= -1.00D+00 NBFU=    12     1     4     6
 Precomputing XC quadrature grid using
 IXCGrd= 4 IRadAn=           5 IRanWt=          -1 IRanGd=           0 AccXCQ= 0.00D+00.
 Generated NRdTot=       0 NPtTot=           0 NUsed=           0 NTot=          32
 NSgBfM=    23    23    23    23    23 MxSgAt=     3 MxSgA2=     3.
 Leave Link  302 at Fri Oct 11 18:51:46 2019, MaxMem=   280000000 cpu:               3.7 elap:               0.2
 (Enter /home/soft/g16/l303.exe)
 DipDrv:  MaxL=1.
 Leave Link  303 at Fri Oct 11 18:51:46 2019, MaxMem=   280000000 cpu:               1.0 elap:               0.1
 (Enter /home/soft/g16/l401.exe)
 ExpMin= 8.45D-02 ExpMax= 5.48D+03 ExpMxC= 8.25D+02 IAcc=3 IRadAn=         5 AccDes= 0.00D+00
 Harris functional with IExCor=  402 and IRadAn=       5 diagonalized for initial guess.
 HarFok:  IExCor=  402 AccDes= 0.00D+00 IRadAn=         5 IDoV= 1 UseB2=F ITyADJ=14
 ICtDFT=  3500011 ScaDFX=  1.000000  1.000000  1.000000  1.000000
 FoFCou: FMM=F IPFlag=           0 FMFlag=      100000 FMFlg1=           0
         NFxFlg=           0 DoJE=T BraDBF=F KetDBF=T FulRan=T
         wScrn=  0.000000 ICntrl=       500 IOpCl=  0 I1Cent=   200000004 NGrid=           0
         NMat0=    1 NMatS0=      1 NMatT0=    0 NMatD0=    1 NMtDS0=    0 NMtDT0=    0
 Petite list used in FoFCou.
 Harris En= -76.4529518747421    
 JPrj=0 DoOrth=F DoCkMO=F.
 Initial guess orbital symmetries:
       Occupied  (A1) (A1) (B2) (A1) (B1)
       Virtual   (A1) (B2) (A1) (B1) (B2) (A1) (B2) (A1) (B1) (B2)
                 (A1) (A1) (A2) (A1) (B1) (A1) (B2) (A1)
 The electronic state of the initial guess is 1-A1.
 Leave Link  401 at Fri Oct 11 18:51:46 2019, MaxMem=   280000000 cpu:               3.8 elap:               0.2
 (Enter /home/soft/g16/l502.exe)
 Keep R1 ints in memory in symmetry-blocked form, NReq=20725411.
 FoFCou: FMM=F IPFlag=           0 FMFlag=           0 FMFlg1=           0
         NFxFlg=           0 DoJE=F BraDBF=F KetDBF=F FulRan=T
         wScrn=  0.000000 ICntrl=       600 IOpCl=  0 I1Cent=           0 NGrid=           0
         NMat0=    1 NMatS0=    276 NMatT0=    0 NMatD0=    1 NMtDS0=    0 NMtDT0=    0
 Petite list used in FoFCou.
 Closed shell SCF:
 Using DIIS extrapolation, IDIIS=  1040.
 NGot=   280000000 LenX=   279985315 LenY=   279984345
 Requested convergence on RMS density matrix=1.00D-08 within 128 cycles.
 Requested convergence on MAX density matrix=1.00D-06.
 Requested convergence on             energy=1.00D-06.
 No special actions if energy rises.
 Integral accuracy reduced to 1.0D-05 until final iterations.

 Cycle   1  Pass 0  IDiag  1:
 E= -76.3472378845286    
 DIIS: error= 7.01D-02 at cycle   1 NSaved=   1.
 NSaved= 1 IEnMin= 1 EnMin= -76.3472378845286     IErMin= 1 ErrMin= 7.01D-02
 ErrMax= 7.01D-02  0.00D+00 EMaxC= 1.00D-01 BMatC= 9.84D-02 BMatP= 9.84D-02
 IDIUse=3 WtCom= 2.99D-01 WtEn= 7.01D-01
 Coeff-Com:  0.100D+01
 Coeff-En:   0.100D+01
 Coeff:      0.100D+01
 Gap=     0.199 Goal=   None    Shift=    0.000
 GapD=    0.199 DampG=1.000 DampE=0.500 DampFc=0.5000 IDamp=-1.
 Damping current iteration by 5.00D-01
 RMSDP=2.11D-02 MaxDP=1.81D-01              OVMax= 2.22D-01

 Cycle   2  Pass 0  IDiag  1:
 E= -76.3604330584380     Delta-E=       -0.013195173909 Rises=F Damp=T
 DIIS: error= 2.66D-02 at cycle   2 NSaved=   2.
 NSaved= 2 IEnMin= 2 EnMin= -76.3604330584380     IErMin= 2 ErrMin= 2.66D-02
 ErrMax= 2.66D-02  0.00D+00 EMaxC= 1.00D-01 BMatC= 1.33D-02 BMatP= 9.84D-02
 IDIUse=3 WtCom= 7.34D-01 WtEn= 2.66D-01
 Coeff-Com:  0.259D+00 0.741D+00
 Coeff-En:   0.422D+00 0.578D+00
 Coeff:      0.302D+00 0.698D+00
 Gap=     0.329 Goal=   None    Shift=    0.000
 RMSDP=2.87D-03 MaxDP=2.03D-02 DE=-1.32D-02 OVMax= 1.44D-01

 Cycle   3  Pass 0  IDiag  1:
 E= -76.4217764920432     Delta-E=       -0.061343433605 Rises=F Damp=F
 DIIS: error= 4.10D-03 at cycle   3 NSaved=   3.
 NSaved= 3 IEnMin= 3 EnMin= -76.4217764920432     IErMin= 3 ErrMin= 4.10D-03
 ErrMax= 4.10D-03  0.00D+00 EMaxC= 1.00D-01 BMatC= 4.61D-04 BMatP= 1.33D-02
 IDIUse=3 WtCom= 9.59D-01 WtEn= 4.10D-02
 Coeff-Com:  0.604D-01-0.525D-02 0.945D+00
 Coeff-En:   0.000D+00 0.000D+00 0.100D+01
 Coeff:      0.579D-01-0.504D-02 0.947D+00
 Gap=     0.346 Goal=   None    Shift=    0.000
 RMSDP=4.57D-04 MaxDP=4.17D-03 DE=-6.13D-02 OVMax= 4.72D-03

 Cycle   4  Pass 0  IDiag  1:
 E= -76.4220877241369     Delta-E=       -0.000311232094 Rises=F Damp=F
 DIIS: error= 4.05D-04 at cycle   4 NSaved=   4.
 NSaved= 4 IEnMin= 4 EnMin= -76.4220877241369     IErMin= 4 ErrMin= 4.05D-04
 ErrMax= 4.05D-04  0.00D+00 EMaxC= 1.00D-01 BMatC= 3.49D-06 BMatP= 4.61D-04
 IDIUse=3 WtCom= 9.96D-01 WtEn= 4.05D-03
 Coeff-Com:  0.770D-02-0.188D-01 0.185D+00 0.826D+00
 Coeff-En:   0.000D+00 0.000D+00 0.000D+00 0.100D+01
 Coeff:      0.767D-02-0.187D-01 0.184D+00 0.827D+00
 Gap=     0.346 Goal=   None    Shift=    0.000
 RMSDP=3.96D-05 MaxDP=2.03D-04 DE=-3.11D-04 OVMax= 3.77D-04

 Cycle   5  Pass 0  IDiag  1:
 E= -76.4220900585408     Delta-E=       -0.000002334404 Rises=F Damp=F
 DIIS: error= 1.33D-04 at cycle   5 NSaved=   5.
 NSaved= 5 IEnMin= 5 EnMin= -76.4220900585408     IErMin= 5 ErrMin= 1.33D-04
 ErrMax= 1.33D-04  0.00D+00 EMaxC= 1.00D-01 BMatC= 3.43D-07 BMatP= 3.49D-06
 IDIUse=3 WtCom= 9.99D-01 WtEn= 1.33D-03
 Coeff-Com:  0.175D-02-0.247D-02 0.111D-01 0.470D-01 0.943D+00
 Coeff-En:   0.000D+00 0.000D+00 0.000D+00 0.000D+00 0.100D+01
 Coeff:      0.175D-02-0.246D-02 0.111D-01 0.469D-01 0.943D+00
 Gap=     0.347 Goal=   None    Shift=    0.000
 RMSDP=1.48D-05 MaxDP=1.25D-04 DE=-2.33D-06 OVMax= 1.56D-04

 Cycle   6  Pass 0  IDiag  1:
 E= -76.4220903208865     Delta-E=       -0.000000262346 Rises=F Damp=F
 DIIS: error= 9.92D-06 at cycle   6 NSaved=   6.
 NSaved= 6 IEnMin= 6 EnMin= -76.4220903208865     IErMin= 6 ErrMin= 9.92D-06
 ErrMax= 9.92D-06  0.00D+00 EMaxC= 1.00D-01 BMatC= 1.82D-09 BMatP= 3.43D-07
 IDIUse=1 WtCom= 1.00D+00 WtEn= 0.00D+00
 Coeff-Com: -0.147D-04 0.226D-04-0.341D-03-0.349D-02-0.737D-01 0.108D+01
 Coeff:     -0.147D-04 0.226D-04-0.341D-03-0.349D-02-0.737D-01 0.108D+01
 Gap=     0.347 Goal=   None    Shift=    0.000
 RMSDP=1.15D-06 MaxDP=1.07D-05 DE=-2.62D-07 OVMax= 1.33D-05

 Initial convergence to 1.0D-05 achieved.  Increase integral accuracy.
 Cycle   7  Pass 1  IDiag  1:
 E= -76.4220916261724     Delta-E=       -0.000001305286 Rises=F Damp=F
 DIIS: error= 1.18D-06 at cycle   1 NSaved=   1.
 NSaved= 1 IEnMin= 1 EnMin= -76.4220916261724     IErMin= 1 ErrMin= 1.18D-06
 ErrMax= 1.18D-06  0.00D+00 EMaxC= 1.00D-01 BMatC= 7.61D-12 BMatP= 7.61D-12
 IDIUse=1 WtCom= 1.00D+00 WtEn= 0.00D+00
 Coeff-Com:  0.100D+01
 Coeff:      0.100D+01
 Gap=     0.347 Goal=   None    Shift=    0.000
 RMSDP=1.15D-06 MaxDP=1.07D-05 DE=-1.31D-06 OVMax= 4.85D-06

 Cycle   8  Pass 1  IDiag  1:
 E= -76.4220916261868     Delta-E=       -0.000000000014 Rises=F Damp=F
 DIIS: error= 7.78D-07 at cycle   2 NSaved=   2.
 NSaved= 2 IEnMin= 2 EnMin= -76.4220916261868     IErMin= 2 ErrMin= 7.78D-07
 ErrMax= 7.78D-07  0.00D+00 EMaxC= 1.00D-01 BMatC= 1.17D-11 BMatP= 7.61D-12
 IDIUse=1 WtCom= 1.00D+00 WtEn= 0.00D+00
 Coeff-Com:  0.574D+00 0.426D+00
 Coeff:      0.574D+00 0.426D+00
 Gap=     0.347 Goal=   None    Shift=    0.000
 RMSDP=8.95D-08 MaxDP=8.05D-07 DE=-1.44D-11 OVMax= 9.36D-07

 Cycle   9  Pass 1  IDiag  1:
 E= -76.4220916261951     Delta-E=       -0.000000000008 Rises=F Damp=F
 DIIS: error= 1.34D-07 at cycle   3 NSaved=   3.
 NSaved= 3 IEnMin= 3 EnMin= -76.4220916261951     IErMin= 3 ErrMin= 1.34D-07
 ErrMax= 1.34D-07  0.00D+00 EMaxC= 1.00D-01 BMatC= 1.60D-13 BMatP= 7.61D-12
 IDIUse=1 WtCom= 1.00D+00 WtEn= 0.00D+00
 Coeff-Com: -0.577D-01 0.758D-01 0.982D+00
 Coeff:     -0.577D-01 0.758D-01 0.982D+00
 Gap=     0.347 Goal=   None    Shift=    0.000
 RMSDP=2.37D-08 MaxDP=1.97D-07 DE=-8.34D-12 OVMax= 3.24D-07

 Cycle  10  Pass 1  IDiag  1:
 E= -76.4220916261954     Delta-E=       -0.000000000000 Rises=F Damp=F
 DIIS: error= 1.26D-08 at cycle   4 NSaved=   4.
 NSaved= 4 IEnMin= 4 EnMin= -76.4220916261954     IErMin= 4 ErrMin= 1.26D-08
 ErrMax= 1.26D-08  0.00D+00 EMaxC= 1.00D-01 BMatC= 2.91D-15 BMatP= 1.60D-13
 IDIUse=1 WtCom= 1.00D+00 WtEn= 0.00D+00
 Coeff-Com: -0.125D-01 0.188D-01 0.144D+00 0.850D+00
 Coeff:     -0.125D-01 0.188D-01 0.144D+00 0.850D+00
 Gap=     0.347 Goal=   None    Shift=    0.000
 RMSDP=1.54D-09 MaxDP=1.52D-08 DE=-2.56D-13 OVMax= 2.16D-08

 SCF Done:  E(RB3LYP) =  -76.4220916262     A.U. after   10 cycles
            NFock= 10  Conv=0.15D-08     -V/T= 2.0089
 KE= 7.574642095273D+01 PE=-1.985953430976D+02 EE= 3.726971450639D+01
 Leave Link  502 at Fri Oct 11 18:51:46 2019, MaxMem=   280000000 cpu:               5.0 elap:               0.3
 (Enter /home/soft/g16/l601.exe)
 Copying SCF densities to generalized density rwf, IOpCl= 0 IROHF=0.

 **********************************************************************

            Population analysis using the SCF density.

 **********************************************************************

 Orbital symmetries:
       Occupied  (A1) (A1) (B2) (A1) (B1)
       Virtual   (A1) (B2) (A1) (B1) (B2) (A1) (B2) (A1) (B2) (B1)
                 (A1) (A1) (A2) (A1) (B1) (A1) (B2) (A1)
 The electronic state is 1-A1.
 Alpha  occ. eigenvalues --  -19.16603  -1.02330  -0.55410  -0.38825  -0.31919
 Alpha virt. eigenvalues --    0.02737   0.11325   0.15524   0.15550   0.21184
 Alpha virt. eigenvalues --    0.23487   0.96828   1.03192   1.11160   1.11417
 Alpha virt. eigenvalues --    1.13048   1.23431   1.71513   1.72193   1.76099
 Alpha virt. eigenvalues --    2.29067   2.65070   3.67613
          Condensed to atoms (all electrons):
               1          2          3
     1  O    8.469636   0.234298   0.234298
     2  H    0.234298   0.318237  -0.021650
     3  H    0.234298  -0.021650   0.318237
 Mulliken charges:
               1
     1  O   -0.938231
     2  H    0.469115
     3  H    0.469115
 Sum of Mulliken charges =   0.00000
 Mulliken charges with hydrogens summed into heavy atoms:
               1
     1  O    0.000000
 Electronic spatial extent (au):  <R**2>=             20.1064
 Charge=              0.0000 electrons
 Dipole moment (field-independent basis, Debye):
    X=              0.0000    Y=             -0.0000    Z=             -2.1732  Tot=              2.1732
 Quadrupole moment (field-independent basis, Debye-Ang):
   XX=             -7.9326   YY=             -4.1905   ZZ=             -6.6573
   XY=              0.0000   XZ=             -0.0000   YZ=              0.0000
 Traceless Quadrupole moment (field-independent basis, Debye-Ang):
   XX=             -1.6725   YY=              2.0696   ZZ=             -0.3972
   XY=              0.0000   XZ=             -0.0000   YZ=              0.0000
 Octapole moment (field-independent basis, Debye-Ang**2):
  XXX=             -0.0000  YYY=             -0.0000  ZZZ=             -1.5764  XYY=              0.0000
  XXY=             -0.0000  XXZ=             -0.4777  XZZ=              0.0000  YZZ=             -0.0000
  YYZ=             -1.4186  XYZ=             -0.0000
 Hexadecapole moment (field-independent basis, Debye-Ang**3):
 XXXX=             -7.9777 YYYY=             -6.2144 ZZZZ=             -8.0807 XXXY=             -0.0000
 XXXZ=              0.0000 YYYX=              0.0000 YYYZ=              0.0000 ZZZX=              0.0000
 ZZZY=             -0.0000 XXYY=             -2.6633 XXZZ=             -2.7160 YYZZ=             -2.1315
 XXYZ=             -0.0000 YYXZ=             -0.0000 ZZXY=              0.0000
 N-N= 9.157116012245D+00 E-N=-1.985953428807D+02  KE= 7.574642095273D+01
 Symmetry A1   KE= 6.765595530665D+01
 Symmetry A2   KE= 6.947946935095D-35
 Symmetry B1   KE= 4.471705774097D+00
 Symmetry B2   KE= 3.618759871986D+00
 No NMR shielding tensors so no spin-rotation constants.
 Leave Link  601 at Fri Oct 11 18:51:47 2019, MaxMem=   280000000 cpu:               3.9 elap:               0.2
 (Enter /home/soft/g16/l701.exe)
 ... and contract with generalized density number  0.
 Compute integral first derivatives.
 Leave Link  701 at Fri Oct 11 18:51:47 2019, MaxMem=   280000000 cpu:               3.5 elap:               0.2
 (Enter /home/soft/g16/l702.exe)
 L702 exits ... SP integral derivatives will be done elsewhere.
 Leave Link  702 at Fri Oct 11 18:51:47 2019, MaxMem=   280000000 cpu:               0.6 elap:               0.0
 (Enter /home/soft/g16/l703.exe)
 Integral derivatives from FoFJK, PRISM(SPDF).
 Compute integral first derivatives, UseDBF=F ICtDFT=           0.
 Calling FoFJK, ICntrl=      2127 FMM=F ISym2X=1 I1Cent= 0 IOpClX= 0 NMat=1 NMatS=1 NMatT=0.
 FoFJK:  IHMeth= 1 ICntrl=    2127 DoSepK=F KAlg= 0 I1Cent=           0 FoldK=F
 IRaf=         0 NMat=       1 IRICut=       1 DoRegI=T DoRafI=F ISym2E= 1 IDoP0=0 IntGTp=1.
 FoFCou: FMM=F IPFlag=           0 FMFlag=      100000 FMFlg1=         800
         NFxFlg=           0 DoJE=F BraDBF=F KetDBF=F FulRan=T
         wScrn=  0.000000 ICntrl=      2127 IOpCl=  0 I1Cent=           0 NGrid=           0
         NMat0=    1 NMatS0=      1 NMatT0=    0 NMatD0=    1 NMtDS0=    0 NMtDT0=    0
 Petite list used in FoFCou.
 Leave Link  703 at Fri Oct 11 18:51:47 2019, MaxMem=   280000000 cpu:               4.5 elap:               0.3
 (Enter /home/soft/g16/l716.exe)
 Dipole        = 7.71511052D-17-4.44089210D-16-8.54989737D-01
 ***** Axes restored to original set *****
 -------------------------------------------------------------------
 Center     Atomic                   Forces (Hartrees/Bohr)
 Number     Number              X              Y              Z
 -------------------------------------------------------------------
      1        8          -0.009995442   -0.014143222    0.000000000
      2        1           0.006936347    0.005701525   -0.000000000
      3        1           0.003059094    0.008441697   -0.000000000
 -------------------------------------------------------------------
 Cartesian Forces:  Max     0.014143222 RMS     0.007158369
 Leave Link  716 at Fri Oct 11 18:51:47 2019, MaxMem=   280000000 cpu:               0.8 elap:               0.1
 (Enter /home/soft/g16/l103.exe)

 GradGradGradGradGradGradGradGradGradGradGradGradGradGradGradGradGradGrad
 Berny optimization.
 FormGI is forming the generalized inverse of G from B-inverse, IUseBI=4.
 Internal  Forces:  Max     0.010343349 RMS     0.008230243
 Search for a local minimum.
 Step number   1 out of a maximum of   20
 All quantities printed in internal units (Hartrees-Bohrs-Radians)
 RMS Force = .82302D-02 SwitMx=.10000D-02 MixMth= 1
 Mixed Optimization -- RFO/linear search
 Second derivative matrix not updated -- first step.
 The second derivative matrix:
                          R1        R2        A1
           R1           0.55473
           R2           0.00000   0.55473
           A1           0.00000   0.00000   0.16000
 ITU=  0
     Eigenvalues ---    0.16000   0.55473   0.55473
 RFO step:  Lambda=-8.38371319D-04 EMin= 1.60000000D-01
 Linear search not attempted -- first point.
 Iteration  1 RMS(Cart)=  0.03218112 RMS(Int)=  0.00080559
 Iteration  2 RMS(Cart)=  0.00082095 RMS(Int)=  0.00000014
 Iteration  3 RMS(Cart)=  0.00000012 RMS(Int)=  0.00000000
 ITry= 1 IFail=0 DXMaxC= 3.05D-02 DCOld= 1.00D+10 DXMaxT= 3.00D-01 DXLimC= 3.00D+00 Rises=F
 ClnCor:  largest displacement from symmetrization is 9.69D-16 for atom     1.
 Variable       Old X    -DE/DX   Delta X   Delta X   Delta X     New X
                                 (Linear)    (Quad)   (Total)
    R1        1.81414   0.00694   0.00000   0.01249   0.01249   1.82662
    R2        1.81414   0.00694   0.00000   0.01249   0.01249   1.82662
    A1        1.91114  -0.01034   0.00000  -0.06431  -0.06431   1.84683
         Item               Value     Threshold  Converged?
 Maximum Force            0.010343     0.000450     NO 
 RMS     Force            0.008230     0.000300     NO 
 Maximum Displacement     0.030489     0.001800     NO 
 RMS     Displacement     0.032588     0.001200     NO 
 Predicted change in Energy=-4.210499D-04
 Lowest energy point so far.  Saving SCF results.
 GradGradGradGradGradGradGradGradGradGradGradGradGradGradGradGradGradGrad

 Leave Link  103 at Fri Oct 11 18:51:47 2019, MaxMem=   280000000 cpu:               1.4 elap:               0.1
 (Enter /home/soft/g16/l202.exe)
                          Input orientation:                          
 ---------------------------------------------------------------------
 Center     Atomic      Atomic             Coordinates (Angstroms)
 Number     Number       Type             X           Y           Z
 ---------------------------------------------------------------------
      1          8           0       -2.646779    0.113464    0.000000
      2          1           0       -1.680672    0.144539   -0.000000
      3          1           0       -2.939979    1.034530    0.000000
 ---------------------------------------------------------------------
                    Distance matrix (angstroms):
                    1          2          3
     1  O    0.000000
     2  H    0.966607   0.000000
     3  H    0.966607   1.542056   0.000000
 Stoichiometry    H2O
 Framework group  C2V[C2(O),SGV(H2)]
 Deg. of freedom     2
 Full point group                 C2V     NOp   4
 RotChk:  IX=3 Diff= 2.91D-16
 Largest Abelian subgroup         C2V     NOp   4
 Largest concise Abelian subgroup C2      NOp   2
                         Standard orientation:                         
 ---------------------------------------------------------------------
 Center     Atomic      Atomic             Coordinates (Angstroms)
 Number     Number       Type             X           Y           Z
 ---------------------------------------------------------------------
      1          8           0       -0.000000   -0.000000    0.116592
      2          1           0        0.000000   -0.771028   -0.466369
      3          1           0        0.000000    0.771028   -0.466369
 ---------------------------------------------------------------------
 Rotational constants (GHZ):         830.7448086         421.7562200         279.7377266
 Leave Link  202 at Fri Oct 11 18:51:47 2019, MaxMem=   280000000 cpu:               0.5 elap:               0.0
 (Enter /home/soft/g16/l301.exe)
 Standard basis: 6-31+G(d) (6D, 7F)
 Ernie: Thresh=  0.10000D-02 Tol=  0.10000D-05 Strict=F.
 There are    12 symmetry adapted cartesian basis functions of A1  symmetry.
 There are     1 symmetry adapted cartesian basis functions of A2  symmetry.
 There are     4 symmetry adapted cartesian basis functions of B1  symmetry.
 There are     6 symmetry adapted cartesian basis functions of B2  symmetry.
 There are    12 symmetry adapted basis functions of A1  symmetry.
 There are     1 symmetry adapted basis functions of A2  symmetry.
 There are     4 symmetry adapted basis functions of B1  symmetry.
 There are     6 symmetry adapted basis functions of B2  symmetry.
    23 basis functions,    40 primitive gaussians,    23 cartesian basis functions
     5 alpha electrons        5 beta electrons
       nuclear repulsion energy         9.1025009728 Hartrees.
 IExCor=  402 DFT=T Ex+Corr=B3LYP ExCW=0 ScaHFX=  0.200000
 ScaDFX=  0.800000  0.720000  1.000000  0.810000 ScalE2=  1.000000  1.000000
 IRadAn=      5 IRanWt=     -1 IRanGd=            0 ICorTp=0 IEmpDi=  4
 NAtoms=    3 NActive=    3 NUniq=    2 SFac= 2.25D+00 NAtFMM=   60 NAOKFM=F Big=F
 Integral buffers will be    131072 words long.
 Raffenetti 2 integral format.
 Two-electron integral symmetry is turned on.
 Leave Link  301 at Fri Oct 11 18:51:47 2019, MaxMem=   280000000 cpu:               1.4 elap:               0.1
 (Enter /home/soft/g16/l302.exe)
 NPDir=0 NMtPBC=     1 NCelOv=     1 NCel=       1 NClECP=     1 NCelD=      1
         NCelK=      1 NCelE2=     1 NClLst=     1 CellRange=     0.0.
 One-electron integrals computed using PRISM.
 One-electron integral symmetry used in STVInt
 NBasis=    23 RedAO= T EigKep=  1.81D-02  NBF=    12     1     4     6
 NBsUse=    23 1.00D-06 EigRej= -1.00D+00 NBFU=    12     1     4     6
 Precomputing XC quadrature grid using
 IXCGrd= 4 IRadAn=           5 IRanWt=          -1 IRanGd=           0 AccXCQ= 0.00D+00.
 Generated NRdTot=       0 NPtTot=           0 NUsed=           0 NTot=          32
 NSgBfM=    23    23    23    23    23 MxSgAt=     3 MxSgA2=     3.
 Leave Link  302 at Fri Oct 11 18:51:48 2019, MaxMem=   280000000 cpu:               2.6 elap:               0.1
 (Enter /home/soft/g16/l303.exe)
 DipDrv:  MaxL=1.
 Leave Link  303 at Fri Oct 11 18:51:48 2019, MaxMem=   280000000 cpu:               0.5 elap:               0.0
 (Enter /home/soft/g16/l401.exe)
 Initial guess from the checkpoint file:  "w1.chk"
 B after Tr=    -0.000000   -0.000000    0.000000
         Rot=    1.000000   -0.000000   -0.000000   -0.000000 Ang=   0.00 deg.
 Guess basis will be translated and rotated to current coordinates.
 JPrj=2 DoOrth=T DoCkMO=T.
 Initial guess orbital symmetries:
       Occupied  (A1) (A1) (B2) (A1) (B1)
       Virtual   (A1) (B2) (A1) (B1) (B2) (A1) (B2) (A1) (B2) (B1)
                 (A1) (A1) (A2) (A1) (B1) (A1) (B2) (A1)
 The electronic state of the initial guess is 1-A1.
 Generating alternative initial guess.
 ExpMin= 8.45D-02 ExpMax= 5.48D+03 ExpMxC= 8.25D+02 IAcc=2 IRadAn=         4 AccDes= 0.00D+00
 Harris functional with IExCor=  402 and IRadAn=       4 diagonalized for initial guess.
 HarFok:  IExCor=  402 AccDes= 0.00D+00 IRadAn=         4 IDoV= 1 UseB2=F ITyADJ=14
 ICtDFT=  3500011 ScaDFX=  1.000000  1.000000  1.000000  1.000000
 FoFCou: FMM=F IPFlag=           0 FMFlag=      100000 FMFlg1=           0
         NFxFlg=           0 DoJE=T BraDBF=F KetDBF=T FulRan=T
         wScrn=  0.000000 ICntrl=       500 IOpCl=  0 I1Cent=   200000004 NGrid=           0
         NMat0=    1 NMatS0=      1 NMatT0=    0 NMatD0=    1 NMtDS0=    0 NMtDT0=    0
 Petite list used in FoFCou.
 Harris En= -76.4524760584899    
 Leave Link  401 at Fri Oct 11 18:51:48 2019, MaxMem=   280000000 cpu:               4.2 elap:               0.2
 (Enter /home/soft/g16/l502.exe)
 Keep R1 ints in memory in symmetry-blocked form, NReq=20725411.
 FoFCou: FMM=F IPFlag=           0 FMFlag=           0 FMFlg1=           0
         NFxFlg=           0 DoJE=F BraDBF=F KetDBF=F FulRan=T
         wScrn=  0.000000 ICntrl=       600 IOpCl=  0 I1Cent=           0 NGrid=           0
         NMat0=    1 NMatS0=    276 NMatT0=    0 NMatD0=    1 NMtDS0=    0 NMtDT0=    0
 Petite list used in FoFCou.
 Closed shell SCF:
 Using DIIS extrapolation, IDIIS=  1040.
 NGot=   280000000 LenX=   279985315 LenY=   279984345
 Requested convergence on RMS density matrix=1.00D-08 within 128 cycles.
 Requested convergence on MAX density matrix=1.00D-06.
 Requested convergence on             energy=1.00D-06.
 No special actions if energy rises.
 Integral accuracy reduced to 1.0D-05 until final iterations.

 Cycle   1  Pass 0  IDiag  1:
 E= -76.4223666986532    
 DIIS: error= 2.08D-03 at cycle   1 NSaved=   1.
 NSaved= 1 IEnMin= 1 EnMin= -76.4223666986532     IErMin= 1 ErrMin= 2.08D-03
 ErrMax= 2.08D-03  0.00D+00 EMaxC= 1.00D-01 BMatC= 1.40D-04 BMatP= 1.40D-04
 IDIUse=3 WtCom= 9.79D-01 WtEn= 2.08D-02
 Coeff-Com:  0.100D+01
 Coeff-En:   0.100D+01
 Coeff:      0.100D+01
 Gap=     0.343 Goal=   None    Shift=    0.000
 GapD=    0.343 DampG=1.000 DampE=1.000 DampFc=1.0000 IDamp=-1.
 RMSDP=1.02D-03 MaxDP=6.97D-03              OVMax= 8.14D-03

 Cycle   2  Pass 0  IDiag  1:
 E= -76.4225341726671     Delta-E=       -0.000167474014 Rises=F Damp=F
 DIIS: error= 1.29D-03 at cycle   2 NSaved=   2.
 NSaved= 2 IEnMin= 2 EnMin= -76.4225341726671     IErMin= 2 ErrMin= 1.29D-03
 ErrMax= 1.29D-03  0.00D+00 EMaxC= 1.00D-01 BMatC= 3.64D-05 BMatP= 1.40D-04
 IDIUse=3 WtCom= 9.87D-01 WtEn= 1.29D-02
 Coeff-Com:  0.243D+00 0.757D+00
 Coeff-En:   0.000D+00 0.100D+01
 Coeff:      0.240D+00 0.760D+00
 Gap=     0.346 Goal=   None    Shift=    0.000
 RMSDP=2.73D-04 MaxDP=2.58D-03 DE=-1.67D-04 OVMax= 2.90D-03

 Cycle   3  Pass 0  IDiag  1:
 E= -76.4225364448143     Delta-E=       -0.000002272147 Rises=F Damp=F
 DIIS: error= 1.28D-03 at cycle   3 NSaved=   3.
 NSaved= 3 IEnMin= 3 EnMin= -76.4225364448143     IErMin= 3 ErrMin= 1.28D-03
 ErrMax= 1.28D-03  0.00D+00 EMaxC= 1.00D-01 BMatC= 3.43D-05 BMatP= 3.64D-05
 IDIUse=3 WtCom= 9.87D-01 WtEn= 1.28D-02
 Coeff-Com: -0.245D-01 0.499D+00 0.526D+00
 Coeff-En:   0.000D+00 0.482D+00 0.518D+00
 Coeff:     -0.242D-01 0.499D+00 0.526D+00
 Gap=     0.345 Goal=   None    Shift=    0.000
 RMSDP=1.46D-04 MaxDP=1.28D-03 DE=-2.27D-06 OVMax= 1.46D-03

 Cycle   4  Pass 0  IDiag  1:
 E= -76.4225611610877     Delta-E=       -0.000024716273 Rises=F Damp=F
 DIIS: error= 3.60D-05 at cycle   4 NSaved=   4.
 NSaved= 4 IEnMin= 4 EnMin= -76.4225611610877     IErMin= 4 ErrMin= 3.60D-05
 ErrMax= 3.60D-05  0.00D+00 EMaxC= 1.00D-01 BMatC= 2.24D-08 BMatP= 3.43D-05
 IDIUse=1 WtCom= 1.00D+00 WtEn= 0.00D+00
 Coeff-Com: -0.849D-02 0.922D-01 0.102D+00 0.815D+00
 Coeff:     -0.849D-02 0.922D-01 0.102D+00 0.815D+00
 Gap=     0.345 Goal=   None    Shift=    0.000
 RMSDP=6.07D-06 MaxDP=4.26D-05 DE=-2.47D-05 OVMax= 3.36D-05

 Initial convergence to 1.0D-05 achieved.  Increase integral accuracy.
 Cycle   5  Pass 1  IDiag  1:
 E= -76.4225623454667     Delta-E=       -0.000001184379 Rises=F Damp=F
 DIIS: error= 3.39D-06 at cycle   1 NSaved=   1.
 NSaved= 1 IEnMin= 1 EnMin= -76.4225623454667     IErMin= 1 ErrMin= 3.39D-06
 ErrMax= 3.39D-06  0.00D+00 EMaxC= 1.00D-01 BMatC= 2.20D-10 BMatP= 2.20D-10
 IDIUse=1 WtCom= 1.00D+00 WtEn= 0.00D+00
 Coeff-Com:  0.100D+01
 Coeff:      0.100D+01
 Gap=     0.345 Goal=   None    Shift=    0.000
 RMSDP=6.07D-06 MaxDP=4.26D-05 DE=-1.18D-06 OVMax= 9.81D-06

 Cycle   6  Pass 1  IDiag  1:
 E= -76.4225623456258     Delta-E=       -0.000000000159 Rises=F Damp=F
 DIIS: error= 2.30D-06 at cycle   2 NSaved=   2.
 NSaved= 2 IEnMin= 2 EnMin= -76.4225623456258     IErMin= 2 ErrMin= 2.30D-06
 ErrMax= 2.30D-06  0.00D+00 EMaxC= 1.00D-01 BMatC= 1.27D-10 BMatP= 2.20D-10
 IDIUse=1 WtCom= 1.00D+00 WtEn= 0.00D+00
 Coeff-Com:  0.417D+00 0.583D+00
 Coeff:      0.417D+00 0.583D+00
 Gap=     0.345 Goal=   None    Shift=    0.000
 RMSDP=3.58D-07 MaxDP=3.53D-06 DE=-1.59D-10 OVMax= 3.97D-06

 Cycle   7  Pass 1  IDiag  1:
 E= -76.4225623456961     Delta-E=       -0.000000000070 Rises=F Damp=F
 DIIS: error= 1.11D-06 at cycle   3 NSaved=   3.
 NSaved= 3 IEnMin= 3 EnMin= -76.4225623456961     IErMin= 3 ErrMin= 1.11D-06
 ErrMax= 1.11D-06  0.00D+00 EMaxC= 1.00D-01 BMatC= 2.88D-11 BMatP= 1.27D-10
 IDIUse=1 WtCom= 1.00D+00 WtEn= 0.00D+00
 Coeff-Com:  0.128D+00 0.328D+00 0.544D+00
 Coeff:      0.128D+00 0.328D+00 0.544D+00
 Gap=     0.345 Goal=   None    Shift=    0.000
 RMSDP=1.51D-07 MaxDP=1.39D-06 DE=-7.03D-11 OVMax= 1.64D-06

 Cycle   8  Pass 1  IDiag  1:
 E= -76.4225623457170     Delta-E=       -0.000000000021 Rises=F Damp=F
 DIIS: error= 1.45D-07 at cycle   4 NSaved=   4.
 NSaved= 4 IEnMin= 4 EnMin= -76.4225623457170     IErMin= 4 ErrMin= 1.45D-07
 ErrMax= 1.45D-07  0.00D+00 EMaxC= 1.00D-01 BMatC= 3.77D-13 BMatP= 2.88D-11
 IDIUse=1 WtCom= 1.00D+00 WtEn= 0.00D+00
 Coeff-Com: -0.219D-01-0.433D-01 0.485D-01 0.102D+01
 Coeff:     -0.219D-01-0.433D-01 0.485D-01 0.102D+01
 Gap=     0.345 Goal=   None    Shift=    0.000
 RMSDP=2.31D-08 MaxDP=1.69D-07 DE=-2.09D-11 OVMax= 2.30D-07

 Cycle   9  Pass 1  IDiag  1:
 E= -76.4225623457173     Delta-E=       -0.000000000000 Rises=F Damp=F
 DIIS: error= 6.99D-09 at cycle   5 NSaved=   5.
 NSaved= 5 IEnMin= 5 EnMin= -76.4225623457173     IErMin= 5 ErrMin= 6.99D-09
 ErrMax= 6.99D-09  0.00D+00 EMaxC= 1.00D-01 BMatC= 1.14D-15 BMatP= 3.77D-13
 IDIUse=1 WtCom= 1.00D+00 WtEn= 0.00D+00
 Coeff-Com: -0.618D-03-0.675D-03-0.413D-02 0.253D-01 0.980D+00
 Coeff:     -0.618D-03-0.675D-03-0.413D-02 0.253D-01 0.980D+00
 Gap=     0.345 Goal=   None    Shift=    0.000
 RMSDP=9.84D-10 MaxDP=9.92D-09 DE=-3.27D-13 OVMax= 1.35D-08

 SCF Done:  E(RB3LYP) =  -76.4225623457     A.U. after    9 cycles
            NFock=  9  Conv=0.98D-09     -V/T= 2.0091
 KE= 7.573150788683D+01 PE=-1.984760957217D+02 EE= 3.721952451635D+01
 Leave Link  502 at Fri Oct 11 18:51:48 2019, MaxMem=   280000000 cpu:               4.6 elap:               0.2
 (Enter /home/soft/g16/l701.exe)
 ... and contract with generalized density number  0.
 Compute integral first derivatives.
 Leave Link  701 at Fri Oct 11 18:51:48 2019, MaxMem=   280000000 cpu:               3.1 elap:               0.2
 (Enter /home/soft/g16/l702.exe)
 L702 exits ... SP integral derivatives will be done elsewhere.
 Leave Link  702 at Fri Oct 11 18:51:48 2019, MaxMem=   280000000 cpu:               0.5 elap:               0.0
 (Enter /home/soft/g16/l703.exe)
 Integral derivatives from FoFJK, PRISM(SPDF).
 Compute integral first derivatives, UseDBF=F ICtDFT=           0.
 Calling FoFJK, ICntrl=      2127 FMM=F ISym2X=1 I1Cent= 0 IOpClX= 0 NMat=1 NMatS=1 NMatT=0.
 FoFJK:  IHMeth= 1 ICntrl=    2127 DoSepK=F KAlg= 0 I1Cent=           0 FoldK=F
 IRaf=         0 NMat=       1 IRICut=       1 DoRegI=T DoRafI=F ISym2E= 1 IDoP0=0 IntGTp=1.
 FoFCou: FMM=F IPFlag=           0 FMFlag=      100000 FMFlg1=         800
         NFxFlg=           0 DoJE=F BraDBF=F KetDBF=F FulRan=T
         wScrn=  0.000000 ICntrl=      2127 IOpCl=  0 I1Cent=           0 NGrid=           0
         NMat0=    1 NMatS0=      1 NMatT0=    0 NMatD0=    1 NMtDS0=    0 NMtDT0=    0
 Petite list used in FoFCou.
 Leave Link  703 at Fri Oct 11 18:51:48 2019, MaxMem=   280000000 cpu:               4.2 elap:               0.2
 (Enter /home/soft/g16/l716.exe)
 Dipole        = 7.53063291D-17-2.22044605D-16-8.82267894D-01
 ***** Axes restored to original set *****
 -------------------------------------------------------------------
 Center     Atomic                   Forces (Hartrees/Bohr)
 Number     Number              X              Y              Z
 -------------------------------------------------------------------
      1        8          -0.001806329   -0.002555897    0.000000000
      2        1           0.002073546    0.000450805   -0.000000000
      3        1          -0.000267217    0.002105092   -0.000000000
 -------------------------------------------------------------------
 Cartesian Forces:  Max     0.002555897 RMS     0.001445340
 Leave Link  716 at Fri Oct 11 18:51:49 2019, MaxMem=   280000000 cpu:               1.1 elap:               0.1
 (Enter /home/soft/g16/l103.exe)

 GradGradGradGradGradGradGradGradGradGradGradGradGradGradGradGradGradGrad
 Berny optimization.
 Using GEDIIS/GDIIS optimizer.
 FormGI is forming the generalized inverse of G from B-inverse, IUseBI=4.
 Internal  Forces:  Max     0.002086967 RMS     0.001751440
 Search for a local minimum.
 Step number   2 out of a maximum of   20
 All quantities printed in internal units (Hartrees-Bohrs-Radians)
 RMS Force = .17514D-02 SwitMx=.10000D-02 MixMth= 1
 Mixed Optimization -- RFO/linear search
 Update second derivatives using D2CorX and points    1    2
 DE= -4.71D-04 DEPred=-4.21D-04 R= 1.12D+00
 TightC=F SS=  1.41D+00  RLast= 6.67D-02 DXNew= 5.0454D-01 2.0007D-01
 Trust test= 1.12D+00 RLast= 6.67D-02 DXMaxT set to 3.00D-01
 The second derivative matrix:
                          R1        R2        A1
           R1           0.52899
           R2          -0.02574   0.52899
           A1           0.02229   0.02229   0.15859
 ITU=  1  0
 Use linear search instead of GDIIS.
     Eigenvalues ---    0.15573   0.50611   0.55473
 RFO step:  Lambda=-9.69951443D-06 EMin= 1.55729900D-01
 Quartic linear search produced a step of  0.12772.
 Iteration  1 RMS(Cart)=  0.00313143 RMS(Int)=  0.00000926
 Iteration  2 RMS(Cart)=  0.00001052 RMS(Int)=  0.00000000
 Iteration  3 RMS(Cart)=  0.00000000 RMS(Int)=  0.00000000
 ITry= 1 IFail=0 DXMaxC= 3.59D-03 DCOld= 1.00D+10 DXMaxT= 3.00D-01 DXLimC= 3.00D+00 Rises=F
 ClnCor:  largest displacement from symmetrization is 6.56D-15 for atom     3.
 Variable       Old X    -DE/DX   Delta X   Delta X   Delta X     New X
                                 (Linear)    (Quad)   (Total)
    R1        1.82662   0.00209   0.00159   0.00278   0.00437   1.83099
    R2        1.82662   0.00209   0.00159   0.00278   0.00437   1.83099
    A1        1.84683  -0.00070  -0.00821   0.00279  -0.00542   1.84141
         Item               Value     Threshold  Converged?
 Maximum Force            0.002087     0.000450     NO 
 RMS     Force            0.001751     0.000300     NO 
 Maximum Displacement     0.003588     0.001800     NO 
 RMS     Displacement     0.003133     0.001200     NO 
 Predicted change in Energy=-1.115710D-05
 Lowest energy point so far.  Saving SCF results.
 GradGradGradGradGradGradGradGradGradGradGradGradGradGradGradGradGradGrad

 Leave Link  103 at Fri Oct 11 18:51:49 2019, MaxMem=   280000000 cpu:               0.2 elap:               0.0
 (Enter /home/soft/g16/l202.exe)
                          Input orientation:                          
 ---------------------------------------------------------------------
 Center     Atomic      Atomic             Coordinates (Angstroms)
 Number     Number       Type             X           Y           Z
 ---------------------------------------------------------------------
      1          8           0       -2.648121    0.111565    0.000000
      2          1           0       -1.679789    0.145339   -0.000000
      3          1           0       -2.939520    1.035629    0.000000
 ---------------------------------------------------------------------
                    Distance matrix (angstroms):
                    1          2          3
     1  O    0.000000
     2  H    0.968921   0.000000
     3  H    0.968921   1.542575   0.000000
 Stoichiometry    H2O
 Framework group  C2V[C2(O),SGV(H2)]
 Deg. of freedom     2
 Full point group                 C2V     NOp   4
 RotChk:  IX=3 Diff= 3.14D-16
 Largest Abelian subgroup         C2V     NOp   4
 Largest concise Abelian subgroup C2      NOp   2
                         Standard orientation:                         
 ---------------------------------------------------------------------
 Center     Atomic      Atomic             Coordinates (Angstroms)
 Number     Number       Type             X           Y           Z
 ---------------------------------------------------------------------
      1          8           0        0.000000   -0.000000    0.117290
      2          1           0        0.000000   -0.771288   -0.469159
      3          1           0        0.000000    0.771288   -0.469159
 ---------------------------------------------------------------------
 Rotational constants (GHZ):         820.8930721         421.4724567         278.4879424
 Leave Link  202 at Fri Oct 11 18:51:49 2019, MaxMem=   280000000 cpu:               1.6 elap:               0.1
 (Enter /home/soft/g16/l301.exe)
 Standard basis: 6-31+G(d) (6D, 7F)
 Ernie: Thresh=  0.10000D-02 Tol=  0.10000D-05 Strict=F.
 There are    12 symmetry adapted cartesian basis functions of A1  symmetry.
 There are     1 symmetry adapted cartesian basis functions of A2  symmetry.
 There are     4 symmetry adapted cartesian basis functions of B1  symmetry.
 There are     6 symmetry adapted cartesian basis functions of B2  symmetry.
 There are    12 symmetry adapted basis functions of A1  symmetry.
 There are     1 symmetry adapted basis functions of A2  symmetry.
 There are     4 symmetry adapted basis functions of B1  symmetry.
 There are     6 symmetry adapted basis functions of B2  symmetry.
    23 basis functions,    40 primitive gaussians,    23 cartesian basis functions
     5 alpha electrons        5 beta electrons
       nuclear repulsion energy         9.0814663063 Hartrees.
 IExCor=  402 DFT=T Ex+Corr=B3LYP ExCW=0 ScaHFX=  0.200000
 ScaDFX=  0.800000  0.720000  1.000000  0.810000 ScalE2=  1.000000  1.000000
 IRadAn=      5 IRanWt=     -1 IRanGd=            0 ICorTp=0 IEmpDi=  4
 NAtoms=    3 NActive=    3 NUniq=    2 SFac= 2.25D+00 NAtFMM=   60 NAOKFM=F Big=F
 Integral buffers will be    131072 words long.
 Raffenetti 2 integral format.
 Two-electron integral symmetry is turned on.
 Leave Link  301 at Fri Oct 11 18:51:49 2019, MaxMem=   280000000 cpu:               1.4 elap:               0.1
 (Enter /home/soft/g16/l302.exe)
 NPDir=0 NMtPBC=     1 NCelOv=     1 NCel=       1 NClECP=     1 NCelD=      1
         NCelK=      1 NCelE2=     1 NClLst=     1 CellRange=     0.0.
 One-electron integrals computed using PRISM.
 One-electron integral symmetry used in STVInt
 NBasis=    23 RedAO= T EigKep=  1.82D-02  NBF=    12     1     4     6
 NBsUse=    23 1.00D-06 EigRej= -1.00D+00 NBFU=    12     1     4     6
 Precomputing XC quadrature grid using
 IXCGrd= 4 IRadAn=           5 IRanWt=          -1 IRanGd=           0 AccXCQ= 0.00D+00.
 Generated NRdTot=       0 NPtTot=           0 NUsed=           0 NTot=          32
 NSgBfM=    23    23    23    23    23 MxSgAt=     3 MxSgA2=     3.
 Leave Link  302 at Fri Oct 11 18:51:49 2019, MaxMem=   280000000 cpu:               3.4 elap:               0.2
 (Enter /home/soft/g16/l303.exe)
 DipDrv:  MaxL=1.
 Leave Link  303 at Fri Oct 11 18:51:49 2019, MaxMem=   280000000 cpu:               0.4 elap:               0.0
 (Enter /home/soft/g16/l401.exe)
 Initial guess from the checkpoint file:  "w1.chk"
 B after Tr=     0.000000    0.000000    0.000000
         Rot=    1.000000   -0.000000   -0.000000   -0.000000 Ang=   0.00 deg.
 Guess basis will be translated and rotated to current coordinates.
 JPrj=2 DoOrth=T DoCkMO=T.
 Initial guess orbital symmetries:
       Occupied  (A1) (A1) (B2) (A1) (B1)
       Virtual   (A1) (B2) (B1) (A1) (B2) (A1) (B2) (A1) (B2) (B1)
                 (A1) (A1) (A1) (A2) (B1) (A1) (B2) (A1)
 The electronic state of the initial guess is 1-A1.
 Leave Link  401 at Fri Oct 11 18:51:49 2019, MaxMem=   280000000 cpu:               3.2 elap:               0.2
 (Enter /home/soft/g16/l502.exe)
 Keep R1 ints in memory in symmetry-blocked form, NReq=20725411.
 FoFCou: FMM=F IPFlag=           0 FMFlag=           0 FMFlg1=           0
         NFxFlg=           0 DoJE=F BraDBF=F KetDBF=F FulRan=T
         wScrn=  0.000000 ICntrl=       600 IOpCl=  0 I1Cent=           0 NGrid=           0
         NMat0=    1 NMatS0=    276 NMatT0=    0 NMatD0=    1 NMtDS0=    0 NMtDT0=    0
 Petite list used in FoFCou.
 Closed shell SCF:
 Using DIIS extrapolation, IDIIS=  1040.
 NGot=   280000000 LenX=   279985315 LenY=   279984345
 Requested convergence on RMS density matrix=1.00D-08 within 128 cycles.
 Requested convergence on MAX density matrix=1.00D-06.
 Requested convergence on             energy=1.00D-06.
 No special actions if energy rises.

 Cycle   1  Pass 1  IDiag  1:
 E= -76.4225685373531    
 DIIS: error= 4.39D-04 at cycle   1 NSaved=   1.
 NSaved= 1 IEnMin= 1 EnMin= -76.4225685373531     IErMin= 1 ErrMin= 4.39D-04
 ErrMax= 4.39D-04  0.00D+00 EMaxC= 1.00D-01 BMatC= 3.69D-06 BMatP= 3.69D-06
 IDIUse=3 WtCom= 9.96D-01 WtEn= 4.39D-03
 Coeff-Com:  0.100D+01
 Coeff-En:   0.100D+01
 Coeff:      0.100D+01
 Gap=     0.344 Goal=   None    Shift=    0.000
 RMSDP=1.52D-04 MaxDP=1.01D-03              OVMax= 1.39D-03

 Cycle   2  Pass 1  IDiag  1:
 E= -76.4225709688513     Delta-E=       -0.000002431498 Rises=F Damp=F
 DIIS: error= 4.08D-04 at cycle   2 NSaved=   2.
 NSaved= 2 IEnMin= 2 EnMin= -76.4225709688513     IErMin= 2 ErrMin= 4.08D-04
 ErrMax= 4.08D-04  0.00D+00 EMaxC= 1.00D-01 BMatC= 3.39D-06 BMatP= 3.69D-06
 IDIUse=3 WtCom= 9.96D-01 WtEn= 4.08D-03
 Coeff-Com:  0.486D+00 0.514D+00
 Coeff-En:   0.176D+00 0.824D+00
 Coeff:      0.484D+00 0.516D+00
 Gap=     0.344 Goal=   None    Shift=    0.000
 RMSDP=5.72D-05 MaxDP=5.53D-04 DE=-2.43D-06 OVMax= 6.26D-04

 Cycle   3  Pass 1  IDiag  1:
 E= -76.4225731211009     Delta-E=       -0.000002152250 Rises=F Damp=F
 DIIS: error= 1.44D-04 at cycle   3 NSaved=   3.
 NSaved= 3 IEnMin= 3 EnMin= -76.4225731211009     IErMin= 3 ErrMin= 1.44D-04
 ErrMax= 1.44D-04  0.00D+00 EMaxC= 1.00D-01 BMatC= 4.12D-07 BMatP= 3.39D-06
 IDIUse=3 WtCom= 9.99D-01 WtEn= 1.44D-03
 Coeff-Com: -0.211D-01 0.254D+00 0.767D+00
 Coeff-En:   0.000D+00 0.103D+00 0.897D+00
 Coeff:     -0.210D-01 0.253D+00 0.768D+00
 Gap=     0.344 Goal=   None    Shift=    0.000
 RMSDP=1.71D-05 MaxDP=1.56D-04 DE=-2.15D-06 OVMax= 1.84D-04

 Cycle   4  Pass 1  IDiag  1:
 E= -76.4225734199702     Delta-E=       -0.000000298869 Rises=F Damp=F
 DIIS: error= 6.96D-06 at cycle   4 NSaved=   4.
 NSaved= 4 IEnMin= 4 EnMin= -76.4225734199702     IErMin= 4 ErrMin= 6.96D-06
 ErrMax= 6.96D-06  0.00D+00 EMaxC= 1.00D-01 BMatC= 6.92D-10 BMatP= 4.12D-07
 IDIUse=1 WtCom= 1.00D+00 WtEn= 0.00D+00
 Coeff-Com: -0.748D-02 0.453D-01 0.142D+00 0.820D+00
 Coeff:     -0.748D-02 0.453D-01 0.142D+00 0.820D+00
 Gap=     0.344 Goal=   None    Shift=    0.000
 RMSDP=7.96D-07 MaxDP=3.46D-06 DE=-2.99D-07 OVMax= 8.43D-06

 Cycle   5  Pass 1  IDiag  1:
 E= -76.4225734205354     Delta-E=       -0.000000000565 Rises=F Damp=F
 DIIS: error= 6.27D-07 at cycle   5 NSaved=   5.
 NSaved= 5 IEnMin= 5 EnMin= -76.4225734205354     IErMin= 5 ErrMin= 6.27D-07
 ErrMax= 6.27D-07  0.00D+00 EMaxC= 1.00D-01 BMatC= 9.37D-12 BMatP= 6.92D-10
 IDIUse=1 WtCom= 1.00D+00 WtEn= 0.00D+00
 Coeff-Com:  0.641D-04-0.275D-02-0.105D-01 0.487D-01 0.965D+00
 Coeff:      0.641D-04-0.275D-02-0.105D-01 0.487D-01 0.965D+00
 Gap=     0.344 Goal=   None    Shift=    0.000
 RMSDP=1.89D-07 MaxDP=1.68D-06 DE=-5.65D-10 OVMax= 2.09D-06

 Cycle   6  Pass 1  IDiag  1:
 E= -76.4225734205457     Delta-E=       -0.000000000010 Rises=F Damp=F
 DIIS: error= 9.08D-08 at cycle   6 NSaved=   6.
 NSaved= 6 IEnMin= 6 EnMin= -76.4225734205457     IErMin= 6 ErrMin= 9.08D-08
 ErrMax= 9.08D-08  0.00D+00 EMaxC= 1.00D-01 BMatC= 1.42D-13 BMatP= 9.37D-12
 IDIUse=1 WtCom= 1.00D+00 WtEn= 0.00D+00
 Coeff-Com:  0.346D-04-0.253D-03-0.111D-03-0.869D-02-0.387D-01 0.105D+01
 Coeff:      0.346D-04-0.253D-03-0.111D-03-0.869D-02-0.387D-01 0.105D+01
 Gap=     0.344 Goal=   None    Shift=    0.000
 RMSDP=1.48D-08 MaxDP=1.15D-07 DE=-1.03D-11 OVMax= 1.57D-07

 Cycle   7  Pass 1  IDiag  1:
 E= -76.4225734205459     Delta-E=       -0.000000000000 Rises=F Damp=F
 DIIS: error= 3.60D-09 at cycle   7 NSaved=   7.
 NSaved= 7 IEnMin= 7 EnMin= -76.4225734205459     IErMin= 7 ErrMin= 3.60D-09
 ErrMax= 3.60D-09  0.00D+00 EMaxC= 1.00D-01 BMatC= 2.03D-16 BMatP= 1.42D-13
 IDIUse=1 WtCom= 1.00D+00 WtEn= 0.00D+00
 Coeff-Com: -0.172D-05 0.260D-04 0.258D-04 0.288D-03-0.710D-03-0.581D-01
 Coeff-Com:  0.106D+01
 Coeff:     -0.172D-05 0.260D-04 0.258D-04 0.288D-03-0.710D-03-0.581D-01
 Coeff:      0.106D+01
 Gap=     0.344 Goal=   None    Shift=    0.000
 RMSDP=6.95D-10 MaxDP=7.38D-09 DE=-1.42D-13 OVMax= 1.10D-08

 SCF Done:  E(RB3LYP) =  -76.4225734205     A.U. after    7 cycles
            NFock=  7  Conv=0.70D-09     -V/T= 2.0092
 KE= 7.572406878096D+01 PE=-1.984306960512D+02 EE= 3.720258754331D+01
 Leave Link  502 at Fri Oct 11 18:51:49 2019, MaxMem=   280000000 cpu:               3.1 elap:               0.1
 (Enter /home/soft/g16/l701.exe)
 ... and contract with generalized density number  0.
 Compute integral first derivatives.
 Leave Link  701 at Fri Oct 11 18:51:50 2019, MaxMem=   280000000 cpu:               3.3 elap:               0.2
 (Enter /home/soft/g16/l702.exe)
 L702 exits ... SP integral derivatives will be done elsewhere.
 Leave Link  702 at Fri Oct 11 18:51:50 2019, MaxMem=   280000000 cpu:               0.4 elap:               0.0
 (Enter /home/soft/g16/l703.exe)
 Integral derivatives from FoFJK, PRISM(SPDF).
 Compute integral first derivatives, UseDBF=F ICtDFT=           0.
 Calling FoFJK, ICntrl=      2127 FMM=F ISym2X=1 I1Cent= 0 IOpClX= 0 NMat=1 NMatS=1 NMatT=0.
 FoFJK:  IHMeth= 1 ICntrl=    2127 DoSepK=F KAlg= 0 I1Cent=           0 FoldK=F
 IRaf=         0 NMat=       1 IRICut=       1 DoRegI=T DoRafI=F ISym2E= 1 IDoP0=0 IntGTp=1.
 FoFCou: FMM=F IPFlag=           0 FMFlag=      100000 FMFlg1=         800
         NFxFlg=           0 DoJE=F BraDBF=F KetDBF=F FulRan=T
         wScrn=  0.000000 ICntrl=      2127 IOpCl=  0 I1Cent=           0 NGrid=           0
         NMat0=    1 NMatS0=      1 NMatT0=    0 NMatD0=    1 NMtDS0=    0 NMtDT0=    0
 Petite list used in FoFCou.
 Leave Link  703 at Fri Oct 11 18:51:50 2019, MaxMem=   280000000 cpu:               3.7 elap:               0.2
 (Enter /home/soft/g16/l716.exe)
 Dipole        = 7.52517240D-17-2.22044605D-16-8.84872862D-01
 ***** Axes restored to original set *****
 -------------------------------------------------------------------
 Center     Atomic                   Forces (Hartrees/Bohr)
 Number     Number              X              Y              Z
 -------------------------------------------------------------------
      1        8          -0.000014851   -0.000021013    0.000000000
      2        1          -0.000012087    0.000024297   -0.000000000
      3        1           0.000026938   -0.000003283   -0.000000000
 -------------------------------------------------------------------
 Cartesian Forces:  Max     0.000026938 RMS     0.000015402
 Leave Link  716 at Fri Oct 11 18:51:50 2019, MaxMem=   280000000 cpu:               0.6 elap:               0.0
 (Enter /home/soft/g16/l103.exe)

 GradGradGradGradGradGradGradGradGradGradGradGradGradGradGradGradGradGrad
 Berny optimization.
 Using GEDIIS/GDIIS optimizer.
 FormGI is forming the generalized inverse of G from B-inverse, IUseBI=4.
 Internal  Forces:  Max     0.000045232 RMS     0.000027678
 Search for a local minimum.
 Step number   3 out of a maximum of   20
 All quantities printed in internal units (Hartrees-Bohrs-Radians)
 RMS Force = .27678D-04 SwitMx=.10000D-02 MixMth= 2
 Mixed Optimization -- En-DIIS/RFO-DIIS
 Update second derivatives using D2CorX and points    1    2    3
 DE= -1.11D-05 DEPred=-1.12D-05 R= 9.93D-01
 TightC=F SS=  1.41D+00  RLast= 8.22D-03 DXNew= 5.0454D-01 2.4668D-02
 Trust test= 9.93D-01 RLast= 8.22D-03 DXMaxT set to 3.00D-01
 The second derivative matrix:
                          R1        R2        A1
           R1           0.53139
           R2          -0.02334   0.53139
           A1           0.02277   0.02277   0.15780
 ITU=  1  1  0
 Use linear search instead of GDIIS.
     Eigenvalues ---    0.15487   0.51099   0.55473
 RFO step:  Lambda=-1.20981620D-08 EMin= 1.54865107D-01
 Quartic linear search produced a step of  0.00675.
 Iteration  1 RMS(Cart)=  0.00016489 RMS(Int)=  0.00000002
 Iteration  2 RMS(Cart)=  0.00000001 RMS(Int)=  0.00000000
 ITry= 1 IFail=0 DXMaxC= 1.74D-04 DCOld= 1.00D+10 DXMaxT= 3.00D-01 DXLimC= 3.00D+00 Rises=F
 ClnCor:  largest displacement from symmetrization is 3.23D-15 for atom     3.
 Variable       Old X    -DE/DX   Delta X   Delta X   Delta X     New X
                                 (Linear)    (Quad)   (Total)
    R1        1.83099  -0.00001   0.00003  -0.00004  -0.00001   1.83099
    R2        1.83099  -0.00001   0.00003  -0.00004  -0.00001   1.83099
    A1        1.84141  -0.00005  -0.00004  -0.00025  -0.00028   1.84112
         Item               Value     Threshold  Converged?
 Maximum Force            0.000045     0.000450     YES
 RMS     Force            0.000028     0.000300     YES
 Maximum Displacement     0.000174     0.001800     YES
 RMS     Displacement     0.000165     0.001200     YES
 Predicted change in Energy=-6.526596D-09
 Optimization completed.
    -- Stationary point found.
                           ----------------------------
                           !   Optimized Parameters   !
                           ! (Angstroms and Degrees)  !
 --------------------------                            --------------------------
 ! Name  Definition              Value          Derivative Info.                !
 --------------------------------------------------------------------------------
 ! R1    R(1,2)                  0.9689         -DE/DX =    0.0                 !
 ! R2    R(1,3)                  0.9689         -DE/DX =    0.0                 !
 ! A1    A(2,1,3)              105.5049         -DE/DX =    0.0                 !
 --------------------------------------------------------------------------------
 Lowest energy point so far.  Saving SCF results.
 Largest change from initial coordinates is atom    2       0.029 Angstoms.
 GradGradGradGradGradGradGradGradGradGradGradGradGradGradGradGradGradGrad

 Leave Link  103 at Fri Oct 11 18:51:50 2019, MaxMem=   280000000 cpu:               2.2 elap:               0.1
 (Enter /home/soft/g16/l202.exe)
                          Input orientation:                          
 ---------------------------------------------------------------------
 Center     Atomic      Atomic             Coordinates (Angstroms)
 Number     Number       Type             X           Y           Z
 ---------------------------------------------------------------------
      1          8           0       -2.648121    0.111565    0.000000
      2          1           0       -1.679789    0.145339   -0.000000
      3          1           0       -2.939520    1.035629    0.000000
 ---------------------------------------------------------------------
                    Distance matrix (angstroms):
                    1          2          3
     1  O    0.000000
     2  H    0.968921   0.000000
     3  H    0.968921   1.542575   0.000000
 Stoichiometry    H2O
 Framework group  C2V[C2(O),SGV(H2)]
 Deg. of freedom     2
 Full point group                 C2V     NOp   4
 RotChk:  IX=3 Diff= 7.85D-16
 Largest Abelian subgroup         C2V     NOp   4
 Largest concise Abelian subgroup C2      NOp   2
                         Standard orientation:                         
 ---------------------------------------------------------------------
 Center     Atomic      Atomic             Coordinates (Angstroms)
 Number     Number       Type             X           Y           Z
 ---------------------------------------------------------------------
      1          8           0        0.000000    0.000000    0.117290
      2          1           0       -0.000000   -0.771288   -0.469159
      3          1           0        0.000000    0.771288   -0.469159
 ---------------------------------------------------------------------
 Rotational constants (GHZ):         820.8930721         421.4724567         278.4879424
 Leave Link  202 at Fri Oct 11 18:51:50 2019, MaxMem=   280000000 cpu:               1.0 elap:               0.1
 (Enter /home/soft/g16/l601.exe)
 Copying SCF densities to generalized density rwf, IOpCl= 0 IROHF=0.

 **********************************************************************

            Population analysis using the SCF density.

 **********************************************************************

 Orbital symmetries:
       Occupied  (A1) (A1) (B2) (A1) (B1)
       Virtual   (A1) (B2) (B1) (A1) (B2) (A1) (B2) (A1) (B2) (B1)
                 (A1) (A1) (A1) (A2) (B1) (A1) (B2) (A1)
 The electronic state is 1-A1.
 Alpha  occ. eigenvalues --  -19.16895  -1.02227  -0.54355  -0.39490  -0.31926
 Alpha virt. eigenvalues --    0.02489   0.11343   0.15547   0.15557   0.20367
 Alpha virt. eigenvalues --    0.23943   0.94705   1.03185   1.11170   1.11382
 Alpha virt. eigenvalues --    1.14373   1.24353   1.71234   1.72084   1.75828
 Alpha virt. eigenvalues --    2.27095   2.63642   3.67481
          Condensed to atoms (all electrons):
               1          2          3
     1  O    8.471997   0.227792   0.227792
     2  H    0.227792   0.330822  -0.022405
     3  H    0.227792  -0.022405   0.330822
 Mulliken charges:
               1
     1  O   -0.927582
     2  H    0.463791
     3  H    0.463791
 Sum of Mulliken charges =  -0.00000
 Mulliken charges with hydrogens summed into heavy atoms:
               1
     1  O   -0.000000
 Electronic spatial extent (au):  <R**2>=             20.2150
 Charge=             -0.0000 electrons
 Dipole moment (field-independent basis, Debye):
    X=              0.0000    Y=             -0.0000    Z=             -2.2491  Tot=              2.2491
 Quadrupole moment (field-independent basis, Debye-Ang):
   XX=             -7.9451   YY=             -4.3534   ZZ=             -6.5336
   XY=              0.0000   XZ=             -0.0000   YZ=              0.0000
 Traceless Quadrupole moment (field-independent basis, Debye-Ang):
   XX=             -1.6678   YY=              1.9240   ZZ=             -0.2562
   XY=              0.0000   XZ=             -0.0000   YZ=              0.0000
 Octapole moment (field-independent basis, Debye-Ang**2):
  XXX=             -0.0000  YYY=             -0.0000  ZZZ=             -1.6502  XYY=              0.0000
  XXY=             -0.0000  XXZ=             -0.4919  XZZ=              0.0000  YZZ=             -0.0000
  YYZ=             -1.4313  XYZ=             -0.0000
 Hexadecapole moment (field-independent basis, Debye-Ang**3):
 XXXX=             -7.9820 YYYY=             -6.4201 ZZZZ=             -8.1091 XXXY=             -0.0000
 XXXZ=              0.0000 YYYX=              0.0000 YYYZ=              0.0000 ZZZX=              0.0000
 ZZZY=              0.0000 XXYY=             -2.6731 XXZZ=             -2.7312 YYZZ=             -2.1126
 XXYZ=             -0.0000 YYXZ=             -0.0000 ZZXY=              0.0000
 N-N= 9.081466306340D+00 E-N=-1.984306959649D+02  KE= 7.572406878096D+01
 Symmetry A1   KE= 6.763534611939D+01
 Symmetry A2   KE= 9.430252833560D-35
 Symmetry B1   KE= 4.476311106105D+00
 Symmetry B2   KE= 3.612411555463D+00
 No NMR shielding tensors so no spin-rotation constants.
 Leave Link  601 at Fri Oct 11 18:51:50 2019, MaxMem=   280000000 cpu:               1.9 elap:               0.1
 (Enter /home/soft/g16/l9999.exe)
 1\1\GINC-NODE29\FOpt\RB3LYP\6-31+G(d)\H2O1\ROOT\11-Oct-2019\0\\#p b3ly
 p/6-31+g* opt freq\\H2O opt freq\\0,1\O,-2.6481212072,0.111565023,0.\H
 ,-1.679789218,0.1453388306,0.\H,-2.9395204569,1.0356288675,0.\\Version
 =ES64L-G16RevA.03\State=1-A1\HF=-76.4225734\RMSD=6.952e-10\RMSF=1.540e
 -05\Dipole=0.5107001,0.7226239,0.\Quadrupole=0.8905114,0.349431,-1.239
 9425,-0.7639821,0.,0.\PG=C02V [C2(O1),SGV(H2)]\\@


 SCIENCE IS LONG AND LIFE IS SHORT.

                     DON MOSER IN THE FEBRUARY 1979 SMITHSONIAN
 Leave Link 9999 at Fri Oct 11 18:51:50 2019, MaxMem=   280000000 cpu:               0.8 elap:               0.1
 Job cpu time:       0 days  0 hours  1 minutes 27.9 seconds.
 Elapsed time:       0 days  0 hours  0 minutes  4.9 seconds.
 File lengths (MBytes):  RWF=     72 Int=      0 D2E=      0 Chk=      8 Scr=      8
 Normal termination of Gaussian 16 at Fri Oct 11 18:51:50 2019.
 (Enter /home/soft/g16/l1.exe)
 Link1:  Proceeding to internal job step number  2.
 ---------------------------------------------------------------------
 #P Geom=AllCheck Guess=TCheck SCRF=Check GenChk RB3LYP/6-31+G(d) Freq
 ---------------------------------------------------------------------
 1/10=4,29=7,30=1,38=1,40=1/1,3;
 2/12=2,40=1/2;
 3/5=1,6=6,7=11,11=2,14=-4,25=1,30=1,70=2,71=2,74=-5,116=1,140=1/1,2,3;
 4/5=101/1;
 5/5=2,38=6,98=1/2;
 8/6=4,10=90,11=11/1;
 11/6=1,8=1,9=11,15=111,16=1/1,2,10;
 10/6=1/2;
 6/7=2,8=2,9=2,10=2,28=1/1;
 7/8=1,10=1,25=1/1,2,3,16;
 1/10=4,30=1/3;
 99//99;
 Leave Link    1 at Fri Oct 11 18:51:50 2019, MaxMem=   280000000 cpu:               0.4 elap:               0.0
 (Enter /home/soft/g16/l101.exe)
 Structure from the checkpoint file:  "w1.chk"
 ------------
 H2O opt freq
 ------------
 Charge =  0 Multiplicity = 1
 Redundant internal coordinates found in file.  (old form).
 O,0,-2.6481212072,0.111565023,0.
 H,0,-1.679789218,0.1453388306,0.
 H,0,-2.9395204569,1.0356288675,0.
 Recover connectivity data from disk.
 ITRead=  0  0  0
 MicOpt= -1 -1 -1
 NAtoms=      3 NQM=        3 NQMF=       0 NMMI=      0 NMMIF=      0
                NMic=       0 NMicF=      0.
                    Isotopes and Nuclear Properties:
 (Nuclear quadrupole moments (NQMom) in fm**2, nuclear magnetic moments (NMagM)
  in nuclear magnetons)

  Atom         1           2           3
 IAtWgt=          16           1           1
 AtmWgt=  15.9949146   1.0078250   1.0078250
 NucSpn=           0           1           1
 AtZEff=   5.6000000   1.0000000   1.0000000
 NQMom=    0.0000000   0.0000000   0.0000000
 NMagM=    0.0000000   2.7928460   2.7928460
 AtZNuc=   8.0000000   1.0000000   1.0000000
 Leave Link  101 at Fri Oct 11 18:51:50 2019, MaxMem=   280000000 cpu:               3.2 elap:               0.2
 (Enter /home/soft/g16/l103.exe)

 GradGradGradGradGradGradGradGradGradGradGradGradGradGradGradGradGradGrad
 Berny optimization.
 Initialization pass.
                           ----------------------------
                           !    Initial Parameters    !
                           ! (Angstroms and Degrees)  !
 --------------------------                            --------------------------
 ! Name  Definition              Value          Derivative Info.                !
 --------------------------------------------------------------------------------
 ! R1    R(1,2)                  0.9689         calculate D2E/DX2 analytically  !
 ! R2    R(1,3)                  0.9689         calculate D2E/DX2 analytically  !
 ! A1    A(2,1,3)              105.5049         calculate D2E/DX2 analytically  !
 --------------------------------------------------------------------------------
 Trust Radius=3.00D-01 FncErr=1.00D-07 GrdErr=1.00D-07 EigMax=2.50D+02 EigMin=1.00D-04
 Number of steps in this run=      2 maximum allowed number of steps=      2.
 GradGradGradGradGradGradGradGradGradGradGradGradGradGradGradGradGradGrad

 Leave Link  103 at Fri Oct 11 18:51:50 2019, MaxMem=   280000000 cpu:               0.2 elap:               0.0
 (Enter /home/soft/g16/l202.exe)
                          Input orientation:                          
 ---------------------------------------------------------------------
 Center     Atomic      Atomic             Coordinates (Angstroms)
 Number     Number       Type             X           Y           Z
 ---------------------------------------------------------------------
      1          8           0       -2.648121    0.111565    0.000000
      2          1           0       -1.679789    0.145339   -0.000000
      3          1           0       -2.939520    1.035629    0.000000
 ---------------------------------------------------------------------
                    Distance matrix (angstroms):
                    1          2          3
     1  O    0.000000
     2  H    0.968921   0.000000
     3  H    0.968921   1.542575   0.000000
 Stoichiometry    H2O
 Framework group  C2V[C2(O),SGV(H2)]
 Deg. of freedom     2
 Full point group                 C2V     NOp   4
 RotChk:  IX=3 Diff= 7.24D-16
 Largest Abelian subgroup         C2V     NOp   4
 Largest concise Abelian subgroup C2      NOp   2
                         Standard orientation:                         
 ---------------------------------------------------------------------
 Center     Atomic      Atomic             Coordinates (Angstroms)
 Number     Number       Type             X           Y           Z
 ---------------------------------------------------------------------
      1          8           0       -0.000000   -0.000000    0.117290
      2          1           0       -0.000000   -0.771288   -0.469159
      3          1           0        0.000000    0.771288   -0.469159
 ---------------------------------------------------------------------
 Rotational constants (GHZ):         820.8930721         421.4724567         278.4879424
 Leave Link  202 at Fri Oct 11 18:51:51 2019, MaxMem=   280000000 cpu:               1.6 elap:               0.1
 (Enter /home/soft/g16/l301.exe)
 Standard basis: 6-31+G(d) (6D, 7F)
 Ernie: Thresh=  0.10000D-02 Tol=  0.10000D-05 Strict=F.
 There are    12 symmetry adapted cartesian basis functions of A1  symmetry.
 There are     1 symmetry adapted cartesian basis functions of A2  symmetry.
 There are     4 symmetry adapted cartesian basis functions of B1  symmetry.
 There are     6 symmetry adapted cartesian basis functions of B2  symmetry.
 There are    12 symmetry adapted basis functions of A1  symmetry.
 There are     1 symmetry adapted basis functions of A2  symmetry.
 There are     4 symmetry adapted basis functions of B1  symmetry.
 There are     6 symmetry adapted basis functions of B2  symmetry.
    23 basis functions,    40 primitive gaussians,    23 cartesian basis functions
     5 alpha electrons        5 beta electrons
       nuclear repulsion energy         9.0814663063 Hartrees.
 IExCor=  402 DFT=T Ex+Corr=B3LYP ExCW=0 ScaHFX=  0.200000
 ScaDFX=  0.800000  0.720000  1.000000  0.810000 ScalE2=  1.000000  1.000000
 IRadAn=      5 IRanWt=     -1 IRanGd=            0 ICorTp=0 IEmpDi=  4
 NAtoms=    3 NActive=    3 NUniq=    2 SFac= 2.25D+00 NAtFMM=   60 NAOKFM=F Big=F
 Integral buffers will be    131072 words long.
 Raffenetti 2 integral format.
 Two-electron integral symmetry is turned on.
 Leave Link  301 at Fri Oct 11 18:51:51 2019, MaxMem=   280000000 cpu:               1.9 elap:               0.1
 (Enter /home/soft/g16/l302.exe)
 NPDir=0 NMtPBC=     1 NCelOv=     1 NCel=       1 NClECP=     1 NCelD=      1
         NCelK=      1 NCelE2=     1 NClLst=     1 CellRange=     0.0.
 One-electron integrals computed using PRISM.
 One-electron integral symmetry used in STVInt
 NBasis=    23 RedAO= T EigKep=  1.82D-02  NBF=    12     1     4     6
 NBsUse=    23 1.00D-06 EigRej= -1.00D+00 NBFU=    12     1     4     6
 Precomputing XC quadrature grid using
 IXCGrd= 4 IRadAn=           5 IRanWt=          -1 IRanGd=           0 AccXCQ= 0.00D+00.
 Generated NRdTot=       0 NPtTot=           0 NUsed=           0 NTot=          32
 NSgBfM=    23    23    23    23    23 MxSgAt=     3 MxSgA2=     3.
 Leave Link  302 at Fri Oct 11 18:51:51 2019, MaxMem=   280000000 cpu:               2.4 elap:               0.1
 (Enter /home/soft/g16/l303.exe)
 DipDrv:  MaxL=1.
 Leave Link  303 at Fri Oct 11 18:51:51 2019, MaxMem=   280000000 cpu:               0.5 elap:               0.0
 (Enter /home/soft/g16/l401.exe)
 Initial guess from the checkpoint file:  "w1.chk"
 B after Tr=     0.000000   -0.000000   -0.000000
         Rot=    1.000000    0.000000    0.000000    0.000000 Ang=   0.00 deg.
 Guess basis will be translated and rotated to current coordinates.
 JPrj=2 DoOrth=T DoCkMO=T.
 Initial guess orbital symmetries:
       Occupied  (A1) (A1) (B2) (A1) (B1)
       Virtual   (A1) (B2) (B1) (A1) (B2) (A1) (B2) (A1) (B2) (B1)
                 (A1) (A1) (A1) (A2) (B1) (A1) (B2) (A1)
 The electronic state of the initial guess is 1-A1.
 Leave Link  401 at Fri Oct 11 18:51:51 2019, MaxMem=   280000000 cpu:               1.9 elap:               0.1
 (Enter /home/soft/g16/l502.exe)
 Keep R1 ints in memory in symmetry-blocked form, NReq=20725411.
 FoFCou: FMM=F IPFlag=           0 FMFlag=           0 FMFlg1=           0
         NFxFlg=           0 DoJE=F BraDBF=F KetDBF=F FulRan=T
         wScrn=  0.000000 ICntrl=       600 IOpCl=  0 I1Cent=           0 NGrid=           0
         NMat0=    1 NMatS0=    276 NMatT0=    0 NMatD0=    1 NMtDS0=    0 NMtDT0=    0
 Petite list used in FoFCou.
 Closed shell SCF:
 Using DIIS extrapolation, IDIIS=  1040.
 NGot=   280000000 LenX=   279985315 LenY=   279984345
 Requested convergence on RMS density matrix=1.00D-08 within 128 cycles.
 Requested convergence on MAX density matrix=1.00D-06.
 Requested convergence on             energy=1.00D-06.
 No special actions if energy rises.

 Cycle   1  Pass 1  IDiag  1:
 E= -76.4225734205458    
 DIIS: error= 1.04D-10 at cycle   1 NSaved=   1.
 NSaved= 1 IEnMin= 1 EnMin= -76.4225734205458     IErMin= 1 ErrMin= 1.04D-10
 ErrMax= 1.04D-10  0.00D+00 EMaxC= 1.00D-01 BMatC= 9.99D-20 BMatP= 9.99D-20
 IDIUse=1 WtCom= 1.00D+00 WtEn= 0.00D+00
 Coeff-Com:  0.100D+01
 Coeff:      0.100D+01
 Gap=     0.344 Goal=   None    Shift=    0.000
 Skip diagonalization as Alpha Fock matrix is already diagonal.
 RMSDP=0.00D+00 MaxDP=0.00D+00              OVMax= 0.00D+00

 SCF Done:  E(RB3LYP) =  -76.4225734205     A.U. after    1 cycles
            NFock=  1  Conv=0.00D+00     -V/T= 2.0092
 KE= 7.572406878096D+01 PE=-1.984306959649D+02 EE= 3.720258745707D+01
 Leave Link  502 at Fri Oct 11 18:51:51 2019, MaxMem=   280000000 cpu:               3.1 elap:               0.2
 (Enter /home/soft/g16/l801.exe)
 DoSCS=F DFT=T ScalE2(SS,OS)=  1.000000  1.000000
 Range of M.O.s used for correlation:     1    23
 NBasis=    23 NAE=     5 NBE=     5 NFC=     0 NFV=     0
 NROrb=     23 NOA=     5 NOB=     5 NVA=    18 NVB=    18
 Leave Link  801 at Fri Oct 11 18:51:51 2019, MaxMem=   280000000 cpu:               1.0 elap:               0.1
 (Enter /home/soft/g16/l1101.exe)
 Using compressed storage, NAtomX=     3.
 Will process      4 centers per pass.
 Leave Link 1101 at Fri Oct 11 18:51:51 2019, MaxMem=   280000000 cpu:               3.1 elap:               0.2
 (Enter /home/soft/g16/l1102.exe)
 Symmetrizing basis deriv contribution to polar:
 IMax=3 JMax=2 DiffMx= 0.00D+00
 Leave Link 1102 at Fri Oct 11 18:51:51 2019, MaxMem=   280000000 cpu:               0.8 elap:               0.1
 (Enter /home/soft/g16/l1110.exe)
 Forming Gx(P) for the SCF density, NAtomX=     3.
 Integral derivatives from FoFJK, PRISM(SPDF).
 Do as many integral derivatives as possible in FoFJK.
 G2DrvN: MDV=     279999660.
 G2DrvN: will do     4 centers at a time, making    1 passes.
 Calling FoFCou, ICntrl=  3107 FMM=F I1Cent=   0 AccDes= 0.00D+00.
 FoFJK:  IHMeth= 1 ICntrl=    3107 DoSepK=F KAlg= 0 I1Cent=           0 FoldK=F
 IRaf=         0 NMat=       1 IRICut=       1 DoRegI=T DoRafI=F ISym2E= 1 IDoP0=0 IntGTp=1.
 FoFCou: FMM=F IPFlag=           0 FMFlag=      100000 FMFlg1=           0
         NFxFlg=           0 DoJE=F BraDBF=F KetDBF=F FulRan=T
         wScrn=  0.000000 ICntrl=      3107 IOpCl=  0 I1Cent=           0 NGrid=           0
         NMat0=    1 NMatS0=      1 NMatT0=    0 NMatD0=    1 NMtDS0=    0 NMtDT0=    0
 Petite list used in FoFCou.
 End of G2Drv F.D. properties file   721 does not exist.
 End of G2Drv F.D. properties file   722 does not exist.
 End of G2Drv F.D. properties file   788 does not exist.
 Leave Link 1110 at Fri Oct 11 18:51:52 2019, MaxMem=   280000000 cpu:               4.4 elap:               0.3
 (Enter /home/soft/g16/l1002.exe)
 Minotr:  Closed shell wavefunction.
          IDoAtm=111
          Direct CPHF calculation.
          Differentiating once with respect to electric field.
                with respect to dipole field.
          Differentiating once with respect to nuclear coordinates.
          Using symmetry in CPHF.
          Requested convergence is 1.0D-08 RMS, and 1.0D-07 maximum.
          Secondary convergence is 1.0D-12 RMS, and 1.0D-12 maximum.
          NewPWx=T KeepS1=F KeepF1=F KeepIn=T MapXYZ=F SortEE=F KeepMc=T.
          895 words used for storage of precomputed grid.
 Keep R1 ints in memory in symmetry-blocked form, NReq=20644016.
 FoFCou: FMM=F IPFlag=           0 FMFlag=           0 FMFlg1=           0
         NFxFlg=           0 DoJE=F BraDBF=F KetDBF=F FulRan=T
         wScrn=  0.000000 ICntrl=       600 IOpCl=  0 I1Cent=           0 NGrid=           0
         NMat0=    1 NMatS0=    276 NMatT0=    0 NMatD0=    1 NMtDS0=    0 NMtDT0=    0
 Petite list used in FoFCou.
          MDV=     280000000 using IRadAn=       1.
          Solving linear equations simultaneously, MaxMat=       0.
          There are     9 degrees of freedom in the 1st order CPHF.  IDoFFX=4 NUNeed=     9.
      9 vectors produced by pass  0 Test12= 1.00D-15 1.11D-08 XBig12= 3.46D+00 1.36D+00.
 AX will form     9 AO Fock derivatives at one time.
      9 vectors produced by pass  1 Test12= 1.00D-15 1.11D-08 XBig12= 4.00D-01 2.33D-01.
      9 vectors produced by pass  2 Test12= 1.00D-15 1.11D-08 XBig12= 3.59D-03 2.75D-02.
      9 vectors produced by pass  3 Test12= 1.00D-15 1.11D-08 XBig12= 7.21D-06 1.34D-03.
      8 vectors produced by pass  4 Test12= 1.00D-15 1.11D-08 XBig12= 8.90D-09 3.72D-05.
      4 vectors produced by pass  5 Test12= 1.00D-15 1.11D-08 XBig12= 4.97D-12 1.04D-06.
      1 vectors produced by pass  6 Test12= 1.00D-15 1.11D-08 XBig12= 2.55D-15 2.04D-08.
 InvSVY:  IOpt=1 It=  1 EMax= 2.22D-16
 Solved reduced A of dimension    49 with     9 vectors.
 FullF1:  Do perturbations      1 to       9.
 Isotropic polarizability for W=    0.000000        6.91 Bohr**3.
 End of Minotr F.D. properties file   721 does not exist.
 End of Minotr F.D. properties file   722 does not exist.
 End of Minotr F.D. properties file   788 does not exist.
 Leave Link 1002 at Fri Oct 11 18:51:52 2019, MaxMem=   280000000 cpu:               5.4 elap:               0.3
 (Enter /home/soft/g16/l601.exe)
 Copying SCF densities to generalized density rwf, IOpCl= 0 IROHF=0.

 **********************************************************************

            Population analysis using the SCF density.

 **********************************************************************

 Orbital symmetries:
       Occupied  (A1) (A1) (B2) (A1) (B1)
       Virtual   (A1) (B2) (B1) (A1) (B2) (A1) (B2) (A1) (B2) (B1)
                 (A1) (A1) (A1) (A2) (B1) (A1) (B2) (A1)
 The electronic state is 1-A1.
 Alpha  occ. eigenvalues --  -19.16895  -1.02227  -0.54355  -0.39490  -0.31926
 Alpha virt. eigenvalues --    0.02489   0.11343   0.15547   0.15557   0.20367
 Alpha virt. eigenvalues --    0.23943   0.94705   1.03185   1.11170   1.11382
 Alpha virt. eigenvalues --    1.14373   1.24353   1.71234   1.72084   1.75828
 Alpha virt. eigenvalues --    2.27095   2.63642   3.67481
          Condensed to atoms (all electrons):
               1          2          3
     1  O    8.471997   0.227792   0.227792
[...]
 APT charges with hydrogens summed into heavy atoms:
               1
     1  O    0.000000
 Electronic spatial extent (au):  <R**2>=             20.2150
 Charge=             -0.0000 electrons
 Dipole moment (field-independent basis, Debye):
    X=              0.0000    Y=             -0.0000    Z=             -2.2491  Tot=              2.2491
 Quadrupole moment (field-independent basis, Debye-Ang):
   XX=             -7.9451   YY=             -4.3534   ZZ=             -6.5336
   XY=              0.0000   XZ=             -0.0000   YZ=              0.0000
 Traceless Quadrupole moment (field-independent basis, Debye-Ang):
   XX=             -1.6678   YY=              1.9240   ZZ=             -0.2562
   XY=              0.0000   XZ=             -0.0000   YZ=              0.0000
 Octapole moment (field-independent basis, Debye-Ang**2):
  XXX=             -0.0000  YYY=             -0.0000  ZZZ=             -1.6502  XYY=              0.0000
  XXY=              0.0000  XXZ=             -0.4919  XZZ=              0.0000  YZZ=             -0.0000
  YYZ=             -1.4313  XYZ=             -0.0000
 Hexadecapole moment (field-independent basis, Debye-Ang**3):
 XXXX=             -7.9820 YYYY=             -6.4201 ZZZZ=             -8.1091 XXXY=             -0.0000
 XXXZ=              0.0000 YYYX=              0.0000 YYYZ=              0.0000 ZZZX=              0.0000
 ZZZY=              0.0000 XXYY=             -2.6731 XXZZ=             -2.7312 YYZZ=             -2.1126
 XXYZ=             -0.0000 YYXZ=             -0.0000 ZZXY=              0.0000
 N-N= 9.081466306340D+00 E-N=-1.984306959649D+02  KE= 7.572406878096D+01
 Symmetry A1   KE= 6.763534611939D+01
 Symmetry A2   KE= 6.425540502402D-35
 Symmetry B1   KE= 4.476311106105D+00
 Symmetry B2   KE= 3.612411555463D+00
  Exact polarizability:   6.516  -0.000   7.749   0.000  -0.000   6.455
 Approx polarizability:   6.602   0.000   9.509  -0.000   0.000   7.456
 No NMR shielding tensors so no spin-rotation constants.
 Leave Link  601 at Fri Oct 11 18:51:52 2019, MaxMem=   280000000 cpu:               3.9 elap:               0.2
 (Enter /home/soft/g16/l701.exe)
 ... and contract with generalized density number  0.
 Compute integral second derivatives.
 Leave Link  701 at Fri Oct 11 18:51:52 2019, MaxMem=   280000000 cpu:               3.1 elap:               0.2
 (Enter /home/soft/g16/l702.exe)
 L702 exits ... SP integral derivatives will be done elsewhere.
 Leave Link  702 at Fri Oct 11 18:51:52 2019, MaxMem=   280000000 cpu:               0.5 elap:               0.0
 (Enter /home/soft/g16/l703.exe)
 Integral derivatives from FoFJK, PRISM(SPDF).
 Compute integral second derivatives, UseDBF=F ICtDFT=           0.
 Calling FoFJK, ICntrl=    100127 FMM=F ISym2X=1 I1Cent= 0 IOpClX= 0 NMat=1 NMatS=1 NMatT=0.
 FoFJK:  IHMeth= 1 ICntrl=  100127 DoSepK=F KAlg= 0 I1Cent=           0 FoldK=F
 IRaf=         0 NMat=       1 IRICut=       1 DoRegI=T DoRafI=F ISym2E= 1 IDoP0=0 IntGTp=1.
 FoFCou: FMM=F IPFlag=           0 FMFlag=      100000 FMFlg1=         800
         NFxFlg=           0 DoJE=F BraDBF=F KetDBF=F FulRan=T
         wScrn=  0.000000 ICntrl=    100127 IOpCl=  0 I1Cent=           0 NGrid=           0
         NMat0=    1 NMatS0=      1 NMatT0=    0 NMatD0=    1 NMtDS0=    0 NMtDT0=    0
 Petite list used in FoFCou.
 Leave Link  703 at Fri Oct 11 18:51:53 2019, MaxMem=   280000000 cpu:               6.8 elap:               0.3
 (Enter /home/soft/g16/l716.exe)
 Dipole        = 7.52517240D-17-1.12897226D-15-8.84872862D-01
 Polarizability= 6.51571429D+00-1.48040810D-12 7.74892427D+00
                 1.43217358D-11-2.88669089D-12 6.45481739D+00
 Full mass-weighted force constant matrix:
 Low frequencies ---    0.0008    0.0008    0.0021   11.3027   21.6107   29.0466
 Low frequencies --- 1662.7746 3736.1412 3860.4884
 Diagonal vibrational polarizability:
        0.0000000       0.0956043       0.9593547
 Harmonic frequencies (cm**-1), IR intensities (KM/Mole), Raman scattering
 activities (A**4/AMU), depolarization ratios for plane and unpolarized
 incident light, reduced masses (AMU), force constants (mDyne/A),
 and normal coordinates:
                      1                      2                      3
                     A1                     A1                     B2
 Frequencies --   1662.7746              3736.1412              3860.4884
 Red. masses --      1.0834                 1.0445                 1.0829
 Frc consts  --      1.7649                 8.5900                 9.5083
 IR Inten    --     97.3661                 6.0414                52.9455
  Atom  AN      X      Y      Z        X      Y      Z        X      Y      Z
     1   8     0.00  -0.00  -0.07     0.00  -0.00  -0.05    -0.00  -0.07   0.00
     2   1    -0.00  -0.42   0.56     0.00   0.59   0.39    -0.00   0.56   0.43
     3   1    -0.00   0.42   0.56    -0.00  -0.59   0.39     0.00   0.56  -0.43

 -------------------
 - Thermochemistry -
 -------------------
 Temperature   298.150 Kelvin.  Pressure   1.00000 Atm.
 Atom     1 has atomic number  8 and mass  15.99491
 Atom     2 has atomic number  1 and mass   1.00783
 Atom     3 has atomic number  1 and mass   1.00783
 Molecular mass:    18.01056 amu.
 Principal axes and moments of inertia in atomic units:
                           1         2         3
     Eigenvalues --     2.19851   4.28199   6.48050
           X            0.00000  -0.00000   1.00000
           Y            1.00000  -0.00000  -0.00000
           Z            0.00000   1.00000   0.00000
 This molecule is an asymmetric top.
 Rotational symmetry number  2.
 Rotational temperatures (Kelvin)     39.39666    20.22749    13.36531
 Rotational constants (GHZ):         820.89307   421.47246   278.48794
 Zero-point vibrational energy      55383.5 (Joules/Mol)
                                   13.23698 (Kcal/Mol)
 Vibrational temperatures:   2392.36  5375.47  5554.38
          (Kelvin)
 
 Zero-point correction=                           0.021094 (Hartree/Particle)
 Thermal correction to Energy=                    0.023930
 Thermal correction to Enthalpy=                  0.024874
 Thermal correction to Gibbs Free Energy=         0.003434
 Sum of electronic and zero-point Energies=            -76.401479
 Sum of electronic and thermal Energies=               -76.398644
 Sum of electronic and thermal Enthalpies=             -76.397700
 Sum of electronic and thermal Free Energies=          -76.419140
 
                     E (Thermal)             CV                S
                      KCal/Mol        Cal/Mol-Kelvin    Cal/Mol-Kelvin
 Total                   15.016              6.004             45.124
 Electronic               0.000              0.000              0.000
 Translational            0.889              2.981             34.608
 Rotational               0.889              2.981             10.510
 Vibrational             13.239              0.042              0.006
                       Q            Log10(Q)             Ln(Q)
 Total Bot       0.263401D-01         -1.579382         -3.636662
 Total V=0       0.132860D+09          8.123394         18.704806
 Vib (Bot)       0.198320D-09         -9.702634        -22.341141
 Vib (V=0)       0.100033D+01          0.000142          0.000328
 Electronic      0.100000D+01          0.000000          0.000000
 Translational   0.300431D+07          6.477745         14.915559
 Rotational      0.442086D+02          1.645507          3.788920
 
                                                             H2O opt freq
                                                             IR Spectrum
 
     3    3                                                                   1                                                      
     8    7                                                                   6                                                      
     6    3                                                                   6                                                      
     0    6                                                                   3                                                      
 
     X    X                                                                   X                                                      
     X                                                                        X                                                      
     X                                                                        X                                                      
     X                                                                        X                                                      
     X                                                                        X                                                      
     X                                                                        X                                                      
     X                                                                        X                                                      
     X                                                                        X                                                      
     X                                                                        X                                                      
     X                                                                        X                                                      
     X                                                                        X                                                      
                                                                              X                                                      
                                                                              X                                                      
                                                                              X                                                      
                                                                              X                                                      
                                                                              X                                                      
                                                                              X                                                      
                                                                              X                                                      
                                                                              X                                                      
                                                                              X                                                      
 
 ***** Axes restored to original set *****
 -------------------------------------------------------------------
 Center     Atomic                   Forces (Hartrees/Bohr)
 Number     Number              X              Y              Z
 -------------------------------------------------------------------
      1        8          -0.000014851   -0.000021014    0.000000000
      2        1          -0.000012087    0.000024297    0.000000000
      3        1           0.000026938   -0.000003283   -0.000000000
 -------------------------------------------------------------------
 Cartesian Forces:  Max     0.000026938 RMS     0.000015402
 Force constants in Cartesian coordinates: 
                1             2             3             4             5 
      1  0.591767D+00
      2 -0.106561D+00  0.516297D+00
      3  0.000000D+00  0.000000D+00  0.865416D-05
      4 -0.504886D+00  0.111544D-01  0.000000D+00  0.518961D+00
      5 -0.526174D-01 -0.491457D-01  0.000000D+00  0.101862D-02  0.492589D-01
      6  0.000000D+00  0.000000D+00 -0.432708D-05  0.000000D+00  0.000000D+00
      7 -0.868807D-01  0.954061D-01  0.000000D+00 -0.140747D-01  0.515988D-01
      8  0.159178D+00 -0.467151D+00  0.000000D+00 -0.121730D-01 -0.113244D-03
      9  0.000000D+00  0.000000D+00 -0.432708D-05  0.000000D+00  0.000000D+00
                6             7             8             9 
      6  0.182529D-04
      7  0.000000D+00  0.100955D+00
      8  0.000000D+00 -0.147005D+00  0.467265D+00
      9 -0.139258D-04  0.000000D+00  0.000000D+00  0.182529D-04
 FormGI is forming the generalized inverse of G from B-inverse, IUseBI=4.
 Force constants in internal coordinates: 
                1             2             3 
      1  0.518462D+00
      2 -0.791787D-02  0.518462D+00
      3  0.281235D-01  0.281235D-01  0.166779D+00
 Leave Link  716 at Fri Oct 11 18:51:53 2019, MaxMem=   280000000 cpu:               2.5 elap:               0.1
 (Enter /home/soft/g16/l103.exe)

 GradGradGradGradGradGradGradGradGradGradGradGradGradGradGradGradGradGrad
 Berny optimization.
 Red2BG is reusing G-inverse.
 Internal  Forces:  Max     0.000045232 RMS     0.000027678
 Search for a local minimum.
 Step number   1 out of a maximum of    2
 All quantities printed in internal units (Hartrees-Bohrs-Radians)
 Second derivative matrix not updated -- analytic derivatives used.
 The second derivative matrix:
                          R1        R2        A1
           R1           0.51846
           R2          -0.00792   0.51846
           A1           0.02812   0.02812   0.16678
 ITU=  0
     Eigenvalues ---    0.16224   0.51509   0.52638
 Angle between quadratic step and forces=  17.18 degrees.
 Linear search not attempted -- first point.
 Iteration  1 RMS(Cart)=  0.00015524 RMS(Int)=  0.00000001
 Iteration  2 RMS(Cart)=  0.00000001 RMS(Int)=  0.00000000
 ITry= 1 IFail=0 DXMaxC= 1.63D-04 DCOld= 1.00D+10 DXMaxT= 3.00D-01 DXLimC= 3.00D+00 Rises=F
 ClnCor:  largest displacement from symmetrization is 4.09D-15 for atom     3.
 Variable       Old X    -DE/DX   Delta X   Delta X   Delta X     New X
                                 (Linear)    (Quad)   (Total)
    R1        1.83099  -0.00001   0.00000  -0.00001  -0.00001   1.83099
    R2        1.83099  -0.00001   0.00000  -0.00001  -0.00001   1.83099
    A1        1.84141  -0.00005   0.00000  -0.00027  -0.00027   1.84114
         Item               Value     Threshold  Converged?
 Maximum Force            0.000045     0.000450     YES
 RMS     Force            0.000028     0.000300     YES
 Maximum Displacement     0.000163     0.001800     YES
 RMS     Displacement     0.000155     0.001200     YES
 Predicted change in Energy=-6.159513D-09
 Optimization completed.
    -- Stationary point found.
                           ----------------------------
                           !   Optimized Parameters   !
                           ! (Angstroms and Degrees)  !
 --------------------------                            --------------------------
 ! Name  Definition              Value          Derivative Info.                !
 --------------------------------------------------------------------------------
 ! R1    R(1,2)                  0.9689         -DE/DX =    0.0                 !
 ! R2    R(1,3)                  0.9689         -DE/DX =    0.0                 !
 ! A1    A(2,1,3)              105.5049         -DE/DX =    0.0                 !
 --------------------------------------------------------------------------------
 GradGradGradGradGradGradGradGradGradGradGradGradGradGradGradGradGradGrad

 Leave Link  103 at Fri Oct 11 18:51:53 2019, MaxMem=   280000000 cpu:               2.1 elap:               0.1
 (Enter /home/soft/g16/l9999.exe)

 ----------------------------------------------------------------------

 Electric dipole moment (input orientation):
 (Debye = 10**-18 statcoulomb cm , SI units = C m)
                  (au)            (Debye)         (10**-30 SI)
   Tot        0.884873D+00      0.224912D+01      0.750226D+01
   x          0.510700D+00      0.129807D+01      0.432990D+01
   y          0.722624D+00      0.183673D+01      0.612666D+01
   z          0.000000D+00      0.000000D+00      0.000000D+00

 Dipole polarizability, Alpha (input orientation).
 (esu units = cm**3 , SI units = C**2 m**2 J**-1)
 Alpha(0;0):
               (au)            (10**-24 esu)      (10**-40 SI)
   iso        0.690649D+01      0.102344D+01      0.113873D+01
   aniso      0.126476D+01      0.187418D+00      0.208531D+00
   xx         0.731786D+01      0.108440D+01      0.120655D+01
   yx        -0.609939D+00     -0.903837D-01     -0.100565D+00
   yy         0.688588D+01      0.102038D+01      0.113533D+01
   zx         0.000000D+00      0.000000D+00      0.000000D+00
   zy         0.000000D+00      0.000000D+00      0.000000D+00
   zz         0.651571D+01      0.965529D+00      0.107430D+01

 ----------------------------------------------------------------------

 Dipole orientation:
     8         -3.43670129          2.42882039         -2.71599339
     1         -2.24642777          1.58761822         -1.60776491
     1         -4.62697480          3.27002256         -1.60776491

 Electric dipole moment (dipole orientation):
 (Debye = 10**-18 statcoulomb cm , SI units = C m)
                  (au)            (Debye)         (10**-30 SI)
   Tot        0.884873D+00      0.224912D+01      0.750226D+01
   x          0.000000D+00      0.000000D+00      0.000000D+00
   y          0.000000D+00      0.000000D+00      0.000000D+00
   z          0.884873D+00      0.224912D+01      0.750226D+01

 Dipole polarizability, Alpha (dipole orientation).
 (esu units = cm**3 , SI units = C**2 m**2 J**-1)
 Alpha(0;0):
               (au)            (10**-24 esu)      (10**-40 SI)
   iso        0.690649D+01      0.102344D+01      0.113873D+01
   aniso      0.126476D+01      0.187418D+00      0.208531D+00
   xx         0.733815D+01      0.108740D+01      0.120990D+01
   yx        -0.581237D+00     -0.861305D-01     -0.958331D-01
   yy         0.692649D+01      0.102640D+01      0.114202D+01
   zx         0.000000D+00      0.000000D+00      0.000000D+00
   zy         0.000000D+00      0.000000D+00      0.000000D+00
   zz         0.645482D+01      0.956505D+00      0.106426D+01

 ----------------------------------------------------------------------
 1\1\GINC-NODE29\Freq\RB3LYP\6-31+G(d)\H2O1\ROOT\11-Oct-2019\0\\#P Geom
 =AllCheck Guess=TCheck SCRF=Check GenChk RB3LYP/6-31+G(d) Freq\\H2O op
 t freq\\0,1\O,-2.6481212072,0.111565023,0.\H,-1.679789218,0.1453388306
 ,0.\H,-2.9395204569,1.0356288675,0.\\Version=ES64L-G16RevA.03\State=1-
 A1\HF=-76.4225734\RMSD=0.000e+00\RMSF=1.540e-05\ZeroPoint=0.0210945\Th
 ermal=0.0239295\Dipole=0.5107001,0.7226239,0.\DipoleDeriv=-0.4848593,0
 .055844,0.,0.055844,-0.4453085,0.,0.,0.,-0.7984592,0.1536373,-0.049342
 9,0.,-0.0693872,0.3114466,0.,0.,0.,0.3992296,0.331222,-0.0065011,0.,0.
 0135431,0.1338619,0.,0.,0.,0.3992296\Polar=7.3178617,-0.6099394,6.8858
 8,0.,0.,6.5157143\Quadrupole=0.8905114,0.349431,-1.2399425,-0.7639821,
 0.,0.\PG=C02V [C2(O1),SGV(H2)]\NImag=0\\0.59176709,-0.10656051,0.51629
 698,0.,0.,0.00000865,-0.50488638,0.01115437,0.,0.51896103,-0.05261742,
 -0.04914566,0.,0.00101862,0.04925890,0.,0.,-0.00000433,0.,0.,0.0000182
 5,-0.08688071,0.09540614,0.,-0.01407465,0.05159879,0.,0.10095536,0.159
 17793,-0.46715132,0.,-0.01217299,-0.00011324,0.,-0.14700494,0.46726457
 ,0.,0.,-0.00000433,0.,0.,-0.00001393,0.,0.,0.00001825\\0.00001485,0.00
 002101,0.,0.00001209,-0.00002430,0.,-0.00002694,0.00000328,0.\\\@


 IT IS THE GODS' CUSTOM TO BRING LOW ALL THINGS OF SURPASSING GREATNESS.
     -- HERODOTUS
 IT IS THE LOFTY PINE THAT BY THE STORM IS OFTENER TOSSED;
 TOWERS FALL WITH HEAVIER CRASH WHICH HIGHER SOAR.
     -- HORACE
 THE BIGGER THEY COME, THE HARDER THEY FALL.
     -- BOB FITZSIMONS HEAVYWEIGHT CHAMPION, 1897-1899
 Job cpu time:       0 days  0 hours  0 minutes 50.1 seconds.
 Elapsed time:       0 days  0 hours  0 minutes  2.8 seconds.
 File lengths (MBytes):  RWF=     72 Int=      0 D2E=      0 Chk=      8 Scr=      8
 Normal termination of Gaussian 16 at Fri Oct 11 18:51:53 2019.
