 Entering Gaussian System, Link 0=g16
 Input=irc_cpcm_benzene.gjf
 Output=irc_cpcm_benzene.log
 Initial command:
 /share/home/wli/program/opt/Chem_soft/g16/l1.exe "/scratch/wli/Gau-28452.inp" -scrdir="/scratch/wli/"
 Entering Link 1 = /share/home/wli/program/opt/Chem_soft/g16/l1.exe PID=     28453.
  
 Copyright (c) 1988,1990,1992,1993,1995,1998,2003,2009,2016,
            Gaussian, Inc.  All Rights Reserved.
  
 This is part of the Gaussian(R) 16 program.  It is based on
 the Gaussian(R) 09 system (copyright 2009, Gaussian, Inc.),
 the Gaussian(R) 03 system (copyright 2003, Gaussian, Inc.),
 the Gaussian(R) 98 system (copyright 1998, Gaussian, Inc.),
 the Gaussian(R) 94 system (copyright 1995, Gaussian, Inc.),
 the Gaussian 92(TM) system (copyright 1992, Gaussian, Inc.),
 the Gaussian 90(TM) system (copyright 1990, Gaussian, Inc.),
 the Gaussian 88(TM) system (copyright 1988, Gaussian, Inc.),
 the Gaussian 86(TM) system (copyright 1986, Carnegie Mellon
 University), and the Gaussian 82(TM) system (copyright 1983,
 Carnegie Mellon University). Gaussian is a federally registered
 trademark of Gaussian, Inc.
  
 This software contains proprietary and confidential information,
 including trade secrets, belonging to Gaussian, Inc.
  
 This software is provided under written license and may be
 used, copied, transmitted, or stored only in accord with that
 written license.
  
 The following legend is applicable only to US Government
 contracts under FAR:
  
                    RESTRICTED RIGHTS LEGEND
  
 Use, reproduction and disclosure by the US Government is
 subject to restrictions as set forth in subparagraphs (a)
 and (c) of the Commercial Computer Software - Restricted
 Rights clause in FAR 52.227-19.
  
 Gaussian, Inc.
 340 Quinnipiac St., Bldg. 40, Wallingford CT 06492
  
  
 ---------------------------------------------------------------
 Warning -- This program may not be used in any manner that
 competes with the business of Gaussian, Inc. or will provide
 assistance to any competitor of Gaussian, Inc.  The licensee
 of this program is prohibited from giving any competitor of
 Gaussian, Inc. access to this program.  By using this program,
 the user acknowledges that Gaussian, Inc. is engaged in the
 business of creating and licensing software in the field of
 computational chemistry and represents and warrants to the
 licensee that it is not a competitor of Gaussian, Inc. and that
 it will not use this program in any manner prohibited above.
 ---------------------------------------------------------------
  

 Cite this work as:
 Gaussian 16, Revision A.03,
 M. J. Frisch, G. W. Trucks, H. B. Schlegel, G. E. Scuseria, 
 M. A. Robb, J. R. Cheeseman, G. Scalmani, V. Barone, 
 G. A. Petersson, H. Nakatsuji, X. Li, M. Caricato, A. V. Marenich, 
 J. Bloino, B. G. Janesko, R. Gomperts, B. Mennucci, H. P. Hratchian, 
 J. V. Ortiz, A. F. Izmaylov, J. L. Sonnenberg, D. Williams-Young, 
 F. Ding, F. Lipparini, F. Egidi, J. Goings, B. Peng, A. Petrone, 
 T. Henderson, D. Ranasinghe, V. G. Zakrzewski, J. Gao, N. Rega, 
 G. Zheng, W. Liang, M. Hada, M. Ehara, K. Toyota, R. Fukuda, 
 J. Hasegawa, M. Ishida, T. Nakajima, Y. Honda, O. Kitao, H. Nakai, 
 T. Vreven, K. Throssell, J. A. Montgomery, Jr., J. E. Peralta, 
 F. Ogliaro, M. J. Bearpark, J. J. Heyd, E. N. Brothers, K. N. Kudin, 
 V. N. Staroverov, T. A. Keith, R. Kobayashi, J. Normand, 
 K. Raghavachari, A. P. Rendell, J. C. Burant, S. S. Iyengar, 
 J. Tomasi, M. Cossi, J. M. Millam, M. Klene, C. Adamo, R. Cammi, 
 J. W. Ochterski, R. L. Martin, K. Morokuma, O. Farkas, 
 J. B. Foresman, and D. J. Fox, Gaussian, Inc., Wallingford CT, 2016.
 
 ******************************************
 Gaussian 16:  ES64L-G16RevA.03 25-Dec-2016
                18-Oct-2019 
 ******************************************
 %chk=irc_cpcm_benzene.chk
 %nprocshared=24
 Will use up to   24 processors via shared memory.
 ----------------------------------------------------------------------
 #p irc=(calcfc,recalc=5,maxpoint=30) b3lyp scrf=(cpcm,solvent=benzene)
  def2tzvp em=gd3bj
 ----------------------------------------------------------------------
 1/10=4,18=10,26=3,38=1,42=30,44=3,71=5,172=1/1,23;
 2/12=2,17=6,18=5,29=1,40=1/2;
 3/5=44,7=101,11=2,25=1,30=1,70=2101,71=2,72=12,74=-5,124=41,140=1/1,2,3;
 4//1;
 5/5=2,38=5,53=12/2;
 8/6=4,10=90,11=11/1;
 11/6=1,8=1,9=11,15=111,16=1/1,2,10;
 10/6=1,13=1/2;
 6/7=2,8=2,9=2,10=2,28=1/1;
 7/10=1,18=20,25=1/1,2,3,16;
 1/10=4,18=10,26=3,42=30,44=3,71=5/23(2);
 2/29=1/2;
 99/5=20/99;
 2/29=1/2;
 3/5=44,7=101,11=2,25=1,30=1,70=2105,71=2,72=12,74=-5,124=41,140=1/1,2,3;
 4/5=5,16=3,69=1/1;
 5/5=2,38=5,53=12/2;
 8/6=4,10=90,11=11/1;
 11/6=1,8=1,9=11,15=111,16=1/1,2,10;
 10/6=1,13=1/2;
 7/10=1,18=20,25=1/1,2,3,16;
 1/18=10,26=3,42=30,44=3,71=5/23(-8);
 2/29=1/2;
 6/7=2,8=2,9=2,10=2,19=2,28=1/1;
 99/5=20,9=1/99;
 Leave Link    1 at Fri Oct 18 03:22:39 2019, MaxMem=           0 cpu:              10.1 elap:               0.5
 (Enter /share/home/wli/program/opt/Chem_soft/g16/l101.exe)
 -------------------
 Title Card Required
 -------------------
 Symbolic Z-matrix:
 Charge = -1 Multiplicity = 1
 C                    -0.73224  0.         0.00096 
 H                    -0.76134   0.89894  -0.57907 
 H                    -0.76132  -0.95186  -0.4874 
 H                    -0.76127   0.05293   1.06951 
 Cl                   -3.13896   0.       -0.00026 
 Br                    1.71542   0.       -0.00012 
 
 ITRead=  0  0  0  0  0  0
 MicOpt= -1 -1 -1 -1 -1 -1
 NAtoms=      6 NQM=        6 NQMF=       0 NMMI=      0 NMMIF=      0
                NMic=       0 NMicF=      0.
                    Isotopes and Nuclear Properties:
 (Nuclear quadrupole moments (NQMom) in fm**2, nuclear magnetic moments (NMagM)
  in nuclear magnetons)

  Atom         1           2           3           4           5           6
 IAtWgt=          12           1           1           1          35          79
 AtmWgt=  12.0000000   1.0078250   1.0078250   1.0078250  34.9688527  78.9183361
 NucSpn=           0           1           1           1           3           3
 AtZEff=  -0.0000000  -0.0000000  -0.0000000  -0.0000000  -0.0000000  -0.0000000
 NQMom=    0.0000000   0.0000000   0.0000000   0.0000000  -8.1650000  31.3000000
 NMagM=    0.0000000   2.7928460   2.7928460   2.7928460   0.8218740   2.1063990
 AtZNuc=   6.0000000   1.0000000   1.0000000   1.0000000  17.0000000  35.0000000
 Leave Link  101 at Fri Oct 18 03:22:39 2019, MaxMem=   104857600 cpu:               4.0 elap:               0.2
 (Enter /share/home/wli/program/opt/Chem_soft/g16/l123.exe)
 IRC-IRC-IRC-IRC-IRC-IRC-IRC-IRC-IRC-IRC-IRC-IRC-IRC-IRC-IRC-IRC-IRC-IRC
 ------------------------------------------------------------------------
 INPUT DATA FOR L123
 ------------------------------------------------------------------------
 GENERAL PARAMETERS:
 Follow reaction path in both directions.
 Maximum points per path      =  30
 Step size                    =   0.100 bohr
 Integration scheme           = HPC                                 
    Redo corrector integration= Yes                                 
    DWI Weight Power          =  2
    DWI will use Hessian update vectors when possible.
    Max correction cycles     =  20
 Initial Hessian              = CalcFC
 Hessian evaluation           = Analytic every   5 predictor steps
                              = Update at all corrector steps
 Hessian updating method      = Bofill                              
 ------------------------------------------------------------------------
 IRC-IRC-IRC-IRC-IRC-IRC-IRC-IRC-IRC-IRC-IRC-IRC-IRC-IRC-IRC-IRC-IRC-IRC
 Leave Link  123 at Fri Oct 18 03:22:39 2019, MaxMem=   104857600 cpu:               0.7 elap:               0.1
 (Enter /share/home/wli/program/opt/Chem_soft/g16/l202.exe)
                          Input orientation:                          
 ---------------------------------------------------------------------
 Center     Atomic      Atomic             Coordinates (Angstroms)
 Number     Number       Type             X           Y           Z
 ---------------------------------------------------------------------
      1          6           0       -0.732240   -0.000001    0.000955
      2          1           0       -0.761342    0.898939   -0.579068
      3          1           0       -0.761315   -0.951857   -0.487404
      4          1           0       -0.761272    0.052929    1.069507
      5         17           0       -3.138959    0.000000   -0.000260
      6         35           0        1.715419    0.000000   -0.000124
 ---------------------------------------------------------------------
                    Distance matrix (angstroms):
                    1          2          3          4          5
     1  C    0.000000
     2  H    1.070218   0.000000
     3  H    1.070219   1.853065   0.000000
     4  H    1.070256   1.852979   1.852989   0.000000
     5  Cl   2.406719   2.606947   2.607016   2.607796   0.000000
     6  Br   2.447659   2.697705   2.697718   2.698316   4.854378
                    6
     6  Br   0.000000
 Symmetry turned off by external request.
 This structure is nearly, but not quite of a higher symmetry.
 Consider Symm=Loose if the higher symmetry is desired.
 Stoichiometry    CH3BrCl(1-)
 Framework group  C1[X(CH3BrCl)]
 Deg. of freedom    12
 Full point group                 C1      NOp   1
 Rotational constants (GHZ):         146.0407156           0.8638061           0.8638058
 Leave Link  202 at Fri Oct 18 03:22:39 2019, MaxMem=   104857600 cpu:               1.8 elap:               0.1
 (Enter /share/home/wli/program/opt/Chem_soft/g16/l301.exe)
 Standard basis: def2TZVP (5D, 7F)
 Ernie: Thresh=  0.10000D-02 Tol=  0.10000D-05 Strict=F.
   134 basis functions,   258 primitive gaussians,   151 cartesian basis functions
    31 alpha electrons       31 beta electrons
       nuclear repulsion energy       173.3928205928 Hartrees.
 IExCor=  402 DFT=T Ex+Corr=B3LYP ExCW=0 ScaHFX=  0.200000
 ScaDFX=  0.800000  0.720000  1.000000  0.810000 ScalE2=  1.000000  1.000000
 IRadAn=      5 IRanWt=     -1 IRanGd=            0 ICorTp=0 IEmpDi=141
 NAtoms=    6 NActive=    6 NUniq=    6 SFac= 1.00D+00 NAtFMM=   60 NAOKFM=F Big=F
 Integral buffers will be    131072 words long.
 Raffenetti 2 integral format.
 Two-electron integral symmetry is turned off.
 R6Disp:  Grimme-D3(BJ) Dispersion energy=       -0.0069983940 Hartrees.
 Nuclear repulsion after empirical dispersion term =      173.3858221988 Hartrees.
 Force inversion solution in PCM.
 ------------------------------------------------------------------------------
 Polarizable Continuum Model (PCM)
 =================================
 Model                : C-PCM.
 Atomic radii         : UFF (Universal Force Field).
 Polarization charges : Total charges.
 Charge compensation  : None.
 Solution method      : Matrix inversion.
 Cavity type          : Scaled VdW (van der Waals Surface) (Alpha=1.100).
 Cavity algorithm     : GePol (No added spheres)
                        Default sphere list used, NSphG=    6.
                        Lebedev-Laikov grids with approx.  5.0 points / Ang**2.
                        Smoothing algorithm: York/Karplus (Gamma=1.0000).
                        Polarization charges: spherical gaussians, with
                                              point-specific exponents (IZeta= 3).
                        Self-potential: point-specific (ISelfS= 7).
                        Self-field    : sphere-specific E.n sum rule (ISelfD= 2).
 1st derivatives      : Analytical E(r).r(x)/FMM algorithm (CHGder, D1EAlg=3).
                        Cavity 1st derivative terms included.
 2nd derivatives      : Analytical E(r).r(xy)/FMM algorithm (CHGder, D2EAlg=3).
                        Cavity 2nd derivative terms included.
 Solvent              : Benzene, Eps=   2.270600 Eps(inf)=   2.253301
 ------------------------------------------------------------------------------
 Spheres list:
 ISph  on   Nord     Re0    Alpha      Xe            Ye            Ze
    1   C      1    1.9255  1.100     -0.732240     -0.000001      0.000955
    2   H      2    1.4430  1.100     -0.761342      0.898939     -0.579068
    3   H      3    1.4430  1.100     -0.761315     -0.951857     -0.487404
    4   H      4    1.4430  1.100     -0.761272      0.052929      1.069507
    5  Cl      5    1.9735  1.100     -3.138959      0.000000     -0.000260
    6  Br      6    2.0945  1.100      1.715419      0.000000     -0.000124
 ------------------------------------------------------------------------------
 GePol: Number of generator spheres                  =       6
 GePol: Total number of spheres                      =       6
 GePol: Number of exposed spheres                    =       6 (100.00%)
 GePol: Number of points                             =     874
 GePol: Average weight of points                     =       0.16
 GePol: Minimum weight of points                     =   0.35D-06
 GePol: Maximum weight of points                     =    0.21616
 GePol: Number of points with low weight             =      22
 GePol: Fraction of low-weight points (<1% of avg)   =       2.52%
 GePol: Cavity surface area                          =    136.426 Ang**2
 GePol: Cavity volume                                =    119.822 Ang**3
 Leave Link  301 at Fri Oct 18 03:22:39 2019, MaxMem=   104857600 cpu:               3.1 elap:               0.2
 (Enter /share/home/wli/program/opt/Chem_soft/g16/l302.exe)
 NPDir=0 NMtPBC=     1 NCelOv=     1 NCel=       1 NClECP=     1 NCelD=      1
         NCelK=      1 NCelE2=     1 NClLst=     1 CellRange=     0.0.
 One-electron integrals computed using PRISM.
 PrsmSu:  requested number of processors reduced to:  13 ShMem   1 Linda.
   1 Symmetry operations used in ECPInt.
 ECPInt:  NShTT=    1378 NPrTT=    5593 LenC2=    1324 LenP2D=    4260.
 LDataN:  DoStor=T MaxTD1= 6 Len=  172
 NBasis=   134 RedAO= T EigKep=  1.43D-03  NBF=   134
 NBsUse=   134 1.00D-06 EigRej= -1.00D+00 NBFU=   134
 Precomputing XC quadrature grid using
 IXCGrd= 4 IRadAn=           5 IRanWt=          -1 IRanGd=           0 AccXCQ= 0.00D+00.
 Generated NRdTot=       0 NPtTot=           0 NUsed=           0 NTot=          32
 NSgBfM=   150   150   150   150   150 MxSgAt=     6 MxSgA2=     6.
 Leave Link  302 at Fri Oct 18 03:22:40 2019, MaxMem=   104857600 cpu:               5.9 elap:               0.3
 (Enter /share/home/wli/program/opt/Chem_soft/g16/l303.exe)
 DipDrv:  MaxL=1.
 Leave Link  303 at Fri Oct 18 03:22:40 2019, MaxMem=   104857600 cpu:               3.9 elap:               0.2
 (Enter /share/home/wli/program/opt/Chem_soft/g16/l401.exe)
 ExpMin= 9.52D-02 ExpMax= 5.65D+05 ExpMxC= 5.46D+03 IAcc=3 IRadAn=         5 AccDes= 0.00D+00
 Harris functional with IExCor=  402 and IRadAn=       5 diagonalized for initial guess.
 HarFok:  IExCor=  402 AccDes= 0.00D+00 IRadAn=         5 IDoV= 1 UseB2=F ITyADJ=14
 ICtDFT=  3500011 ScaDFX=  1.000000  1.000000  1.000000  1.000000
 FoFCou: FMM=F IPFlag=           0 FMFlag=      100000 FMFlg1=           0
         NFxFlg=           0 DoJE=T BraDBF=F KetDBF=T FulRan=T
         wScrn=  0.000000 ICntrl=       500 IOpCl=  0 I1Cent=   200000004 NGrid=           0
         NMat0=    1 NMatS0=      1 NMatT0=    0 NMatD0=    1 NMtDS0=    0 NMtDT0=    0
 Symmetry not used in FoFCou.
 Harris En= -3074.56820497613    
 JPrj=0 DoOrth=F DoCkMO=F.
 Leave Link  401 at Fri Oct 18 03:22:41 2019, MaxMem=   104857600 cpu:               9.1 elap:               0.4
 (Enter /share/home/wli/program/opt/Chem_soft/g16/l502.exe)
 Keep R1 ints in memory in canonical form, NReq=64314760.
 FoFCou: FMM=F IPFlag=           0 FMFlag=           0 FMFlg1=           0
         NFxFlg=           0 DoJE=F BraDBF=F KetDBF=F FulRan=T
         wScrn=  0.000000 ICntrl=       600 IOpCl=  0 I1Cent=           0 NGrid=           0
         NMat0=    1 NMatS0=   9045 NMatT0=    0 NMatD0=    1 NMtDS0=    0 NMtDT0=    0
 Symmetry not used in FoFCou.
 Two-electron integral symmetry not used.
 Closed shell SCF:
 Using DIIS extrapolation, IDIIS=  1040.
 NGot=   104857600 LenX=    63896738 LenY=    63873496
 Requested convergence on RMS density matrix=1.00D-08 within 128 cycles.
 Requested convergence on MAX density matrix=1.00D-06.
 Requested convergence on             energy=1.00D-06.
 No special actions if energy rises.

 Cycle   1  Pass 1  IDiag  1:
 Inv3:  Mode=1 IEnd=     2291628.
 Iteration    1 A*A^-1 deviation from unit magnitude is 3.77D-15 for    252.
 Iteration    1 A*A^-1 deviation from orthogonality  is 1.32D-15 for    223    115.
 Iteration    1 A^-1*A deviation from unit magnitude is 3.55D-15 for    252.
 Iteration    1 A^-1*A deviation from orthogonality  is 2.99D-15 for    447    252.
 E= -3074.37456199737    
 DIIS: error= 4.92D-02 at cycle   1 NSaved=   1.
 NSaved= 1 IEnMin= 1 EnMin= -3074.37456199737     IErMin= 1 ErrMin= 4.92D-02
 ErrMax= 4.92D-02  0.00D+00 EMaxC= 1.00D-01 BMatC= 2.15D-01 BMatP= 2.15D-01
 IDIUse=3 WtCom= 5.08D-01 WtEn= 4.92D-01
 Coeff-Com:  0.100D+01
 Coeff-En:   0.100D+01
 Coeff:      0.100D+01
 Gap=     0.317 Goal=   None    Shift=    0.000
 GapD=    0.317 DampG=1.000 DampE=0.500 DampFc=0.5000 IDamp=-1.
 Damping current iteration by 5.00D-01
 RMSDP=4.61D-03 MaxDP=1.36D-01              OVMax= 2.87D-01

 Cycle   2  Pass 1  IDiag  1:
 E= -3074.42048885844     Delta-E=       -0.045926861071 Rises=F Damp=T
 DIIS: error= 2.01D-02 at cycle   2 NSaved=   2.
 NSaved= 2 IEnMin= 2 EnMin= -3074.42048885844     IErMin= 2 ErrMin= 2.01D-02
 ErrMax= 2.01D-02  0.00D+00 EMaxC= 1.00D-01 BMatC= 2.62D-02 BMatP= 2.15D-01
 IDIUse=3 WtCom= 7.99D-01 WtEn= 2.01D-01
 Coeff-Com: -0.190D+00 0.119D+01
 Coeff-En:   0.180D-01 0.982D+00
 Coeff:     -0.148D+00 0.115D+01
 Gap=     0.188 Goal=   None    Shift=    0.000
 RMSDP=1.48D-03 MaxDP=4.33D-02 DE=-4.59D-02 OVMax= 2.01D-01

 Cycle   3  Pass 1  IDiag  1:
 E= -3074.45057254867     Delta-E=       -0.030083690225 Rises=F Damp=F
 DIIS: error= 1.35D-02 at cycle   3 NSaved=   3.
 NSaved= 3 IEnMin= 3 EnMin= -3074.45057254867     IErMin= 3 ErrMin= 1.35D-02
 ErrMax= 1.35D-02  0.00D+00 EMaxC= 1.00D-01 BMatC= 2.03D-02 BMatP= 2.62D-02
 IDIUse=3 WtCom= 8.65D-01 WtEn= 1.35D-01
 Coeff-Com: -0.192D+00 0.645D+00 0.547D+00
 Coeff-En:   0.000D+00 0.000D+00 0.100D+01
 Coeff:     -0.166D+00 0.558D+00 0.608D+00
 Gap=     0.208 Goal=   None    Shift=    0.000
 RMSDP=1.02D-03 MaxDP=2.59D-02 DE=-3.01D-02 OVMax= 1.16D-01

 Cycle   4  Pass 1  IDiag  1:
 E= -3074.46946159341     Delta-E=       -0.018889044743 Rises=F Damp=F
 DIIS: error= 5.13D-03 at cycle   4 NSaved=   4.
 NSaved= 4 IEnMin= 4 EnMin= -3074.46946159341     IErMin= 4 ErrMin= 5.13D-03
 ErrMax= 5.13D-03  0.00D+00 EMaxC= 1.00D-01 BMatC= 3.15D-03 BMatP= 2.03D-02
 IDIUse=3 WtCom= 9.49D-01 WtEn= 5.13D-02
 Coeff-Com: -0.178D-01 0.659D-01 0.298D+00 0.654D+00
 Coeff-En:   0.000D+00 0.000D+00 0.158D+00 0.842D+00
 Coeff:     -0.169D-01 0.626D-01 0.290D+00 0.664D+00
 Gap=     0.197 Goal=   None    Shift=    0.000
 RMSDP=3.67D-04 MaxDP=9.88D-03 DE=-1.89D-02 OVMax= 3.34D-02

 Cycle   5  Pass 1  IDiag  1:
 E= -3074.47295389500     Delta-E=       -0.003492301587 Rises=F Damp=F
 DIIS: error= 8.74D-04 at cycle   5 NSaved=   5.
 NSaved= 5 IEnMin= 5 EnMin= -3074.47295389500     IErMin= 5 ErrMin= 8.74D-04
 ErrMax= 8.74D-04  0.00D+00 EMaxC= 1.00D-01 BMatC= 1.15D-04 BMatP= 3.15D-03
 IDIUse=3 WtCom= 9.91D-01 WtEn= 8.74D-03
 Coeff-Com: -0.956D-02 0.189D-01 0.142D+00 0.336D+00 0.512D+00
 Coeff-En:   0.000D+00 0.000D+00 0.000D+00 0.000D+00 0.100D+01
 Coeff:     -0.948D-02 0.187D-01 0.141D+00 0.333D+00 0.517D+00
 Gap=     0.198 Goal=   None    Shift=    0.000
 RMSDP=9.66D-05 MaxDP=3.89D-03 DE=-3.49D-03 OVMax= 5.71D-03

 Cycle   6  Pass 1  IDiag  1:
 E= -3074.47303978088     Delta-E=       -0.000085885885 Rises=F Damp=F
 DIIS: error= 1.35D-04 at cycle   6 NSaved=   6.
 NSaved= 6 IEnMin= 6 EnMin= -3074.47303978088     IErMin= 6 ErrMin= 1.35D-04
 ErrMax= 1.35D-04  0.00D+00 EMaxC= 1.00D-01 BMatC= 5.79D-06 BMatP= 1.15D-04
 IDIUse=3 WtCom= 9.99D-01 WtEn= 1.35D-03
 Coeff-Com: -0.102D-02 0.595D-03 0.270D-01 0.660D-01 0.211D+00 0.696D+00
 Coeff-En:   0.000D+00 0.000D+00 0.000D+00 0.000D+00 0.000D+00 0.100D+01
 Coeff:     -0.102D-02 0.594D-03 0.270D-01 0.659D-01 0.211D+00 0.697D+00
 Gap=     0.198 Goal=   None    Shift=    0.000
 RMSDP=2.50D-05 MaxDP=6.73D-04 DE=-8.59D-05 OVMax= 2.10D-03

 Cycle   7  Pass 1  IDiag  1:
 E= -3074.47304496833     Delta-E=       -0.000005187442 Rises=F Damp=F
 DIIS: error= 1.01D-04 at cycle   7 NSaved=   7.
 NSaved= 7 IEnMin= 7 EnMin= -3074.47304496833     IErMin= 7 ErrMin= 1.01D-04
 ErrMax= 1.01D-04  0.00D+00 EMaxC= 1.00D-01 BMatC= 8.81D-07 BMatP= 5.79D-06
 IDIUse=3 WtCom= 9.99D-01 WtEn= 1.01D-03
 Coeff-Com:  0.552D-03-0.146D-02-0.494D-02-0.127D-01 0.355D-01 0.350D+00
 Coeff-Com:  0.633D+00
 Coeff-En:   0.000D+00 0.000D+00 0.000D+00 0.000D+00 0.000D+00 0.795D-01
 Coeff-En:   0.921D+00
 Coeff:      0.551D-03-0.146D-02-0.493D-02-0.127D-01 0.354D-01 0.350D+00
 Coeff:      0.633D+00
 Gap=     0.198 Goal=   None    Shift=    0.000
 RMSDP=8.07D-06 MaxDP=3.34D-04 DE=-5.19D-06 OVMax= 5.18D-04

 Cycle   8  Pass 1  IDiag  1:
 E= -3074.47304583585     Delta-E=       -0.000000867528 Rises=F Damp=F
 DIIS: error= 7.25D-06 at cycle   8 NSaved=   8.
 NSaved= 8 IEnMin= 8 EnMin= -3074.47304583585     IErMin= 8 ErrMin= 7.25D-06
 ErrMax= 7.25D-06  0.00D+00 EMaxC= 1.00D-01 BMatC= 7.01D-09 BMatP= 8.81D-07
 IDIUse=1 WtCom= 1.00D+00 WtEn= 0.00D+00
 Coeff-Com:  0.117D-03-0.222D-03-0.126D-02-0.346D-02-0.943D-03 0.294D-01
 Coeff-Com:  0.127D+00 0.849D+00
 Coeff:      0.117D-03-0.222D-03-0.126D-02-0.346D-02-0.943D-03 0.294D-01
 Coeff:      0.127D+00 0.849D+00
 Gap=     0.198 Goal=   None    Shift=    0.000
 RMSDP=8.69D-07 MaxDP=2.94D-05 DE=-8.68D-07 OVMax= 5.94D-05

 Cycle   9  Pass 1  IDiag  1:
 E= -3074.47304584433     Delta-E=       -0.000000008479 Rises=F Damp=F
 DIIS: error= 2.07D-06 at cycle   9 NSaved=   9.
 NSaved= 9 IEnMin= 9 EnMin= -3074.47304584433     IErMin= 9 ErrMin= 2.07D-06
 ErrMax= 2.07D-06  0.00D+00 EMaxC= 1.00D-01 BMatC= 4.33D-10 BMatP= 7.01D-09
 IDIUse=1 WtCom= 1.00D+00 WtEn= 0.00D+00
 Coeff-Com:  0.444D-04-0.787D-04-0.346D-03-0.982D-03-0.148D-02 0.243D-03
 Coeff-Com:  0.232D-01 0.309D+00 0.670D+00
 Coeff:      0.444D-04-0.787D-04-0.346D-03-0.982D-03-0.148D-02 0.243D-03
 Coeff:      0.232D-01 0.309D+00 0.670D+00
 Gap=     0.198 Goal=   None    Shift=    0.000
 RMSDP=1.26D-07 MaxDP=3.20D-06 DE=-8.48D-09 OVMax= 4.97D-06

 Cycle  10  Pass 1  IDiag  1:
 E= -3074.47304584471     Delta-E=       -0.000000000381 Rises=F Damp=F
 DIIS: error= 4.82D-07 at cycle  10 NSaved=  10.
 NSaved=10 IEnMin=10 EnMin= -3074.47304584471     IErMin=10 ErrMin= 4.82D-07
 ErrMax= 4.82D-07  0.00D+00 EMaxC= 1.00D-01 BMatC= 2.20D-11 BMatP= 4.33D-10
 IDIUse=1 WtCom= 1.00D+00 WtEn= 0.00D+00
 Coeff-Com:  0.510D-05-0.105D-04 0.578D-05-0.154D-04-0.409D-03-0.221D-02
 Coeff-Com: -0.509D-02 0.250D-01 0.164D+00 0.819D+00
 Coeff:      0.510D-05-0.105D-04 0.578D-05-0.154D-04-0.409D-03-0.221D-02
 Coeff:     -0.509D-02 0.250D-01 0.164D+00 0.819D+00
 Gap=     0.198 Goal=   None    Shift=    0.000
 RMSDP=4.38D-08 MaxDP=1.26D-06 DE=-3.81D-10 OVMax= 2.85D-06

 Cycle  11  Pass 1  IDiag  1:
 E= -3074.47304584474     Delta-E=       -0.000000000031 Rises=F Damp=F
 DIIS: error= 4.32D-08 at cycle  11 NSaved=  11.
 NSaved=11 IEnMin=11 EnMin= -3074.47304584474     IErMin=11 ErrMin= 4.32D-08
 ErrMax= 4.32D-08  0.00D+00 EMaxC= 1.00D-01 BMatC= 2.89D-13 BMatP= 2.20D-11
 IDIUse=1 WtCom= 1.00D+00 WtEn= 0.00D+00
 Coeff-Com:  0.197D-06-0.502D-06 0.517D-05 0.977D-05-0.521D-04-0.381D-03
 Coeff-Com: -0.117D-02 0.275D-04 0.197D-01 0.189D+00 0.793D+00
 Coeff:      0.197D-06-0.502D-06 0.517D-05 0.977D-05-0.521D-04-0.381D-03
 Coeff:     -0.117D-02 0.275D-04 0.197D-01 0.189D+00 0.793D+00
 Gap=     0.198 Goal=   None    Shift=    0.000
 RMSDP=3.84D-09 MaxDP=9.92D-08 DE=-3.14D-11 OVMax= 2.52D-07

 Error on total polarization charges =  0.01262
 SCF Done:  E(RB3LYP) =  -3074.47304584     A.U. after   11 cycles
            NFock= 11  Conv=0.38D-08     -V/T= 2.0015
 KE= 3.069819392978D+03 PE=-7.699883021692D+03 EE= 1.382204760671D+03
 Leave Link  502 at Fri Oct 18 03:22:46 2019, MaxMem=   104857600 cpu:             113.1 elap:               5.4
 (Enter /share/home/wli/program/opt/Chem_soft/g16/l801.exe)
 DoSCS=F DFT=T ScalE2(SS,OS)=  1.000000  1.000000
 Range of M.O.s used for correlation:     1   134
 NBasis=   134 NAE=    31 NBE=    31 NFC=     0 NFV=     0
 NROrb=    134 NOA=    31 NOB=    31 NVA=   103 NVB=   103
 Leave Link  801 at Fri Oct 18 03:22:46 2019, MaxMem=   104857600 cpu:               0.4 elap:               0.0
 (Enter /share/home/wli/program/opt/Chem_soft/g16/l1101.exe)
 Using compressed storage, NAtomX=     6.
 Will process      7 centers per pass.
 PrsmSu:  requested number of processors reduced to:  11 ShMem   1 Linda.
   1 Symmetry operations used in ECPInt.
 ECPInt:  NShTT=    1378 NPrTT=    5593 LenC2=    1324 LenP2D=    4260.
 LDataN:  DoStor=T MaxTD1= 7 Len=  274
 Number of processors reduced to  18 by ecpmxn.
 R6Disp: Adding Grimme-D3(BJ) dispersion energy 1st derivatives to the gradient.
 Leave Link 1101 at Fri Oct 18 03:22:47 2019, MaxMem=   104857600 cpu:              18.7 elap:               0.9
 (Enter /share/home/wli/program/opt/Chem_soft/g16/l1102.exe)
 Symmetrizing basis deriv contribution to polar:
 IMax=3 JMax=2 DiffMx= 0.00D+00
 Leave Link 1102 at Fri Oct 18 03:22:47 2019, MaxMem=   104857600 cpu:               2.5 elap:               0.1
 (Enter /share/home/wli/program/opt/Chem_soft/g16/l1110.exe)
 Forming Gx(P) for the SCF density, NAtomX=     6.
 Integral derivatives from FoFJK, PRISM(SPDF).
 Do as many integral derivatives as possible in FoFJK.
 G2DrvN: MDV=     104857044.
 G2DrvN: will do     7 centers at a time, making    1 passes.
 Calling FoFCou, ICntrl=  3107 FMM=F I1Cent=   0 AccDes= 0.00D+00.
 FoFJK:  IHMeth= 1 ICntrl=    3107 DoSepK=F KAlg= 0 I1Cent=           0 FoldK=F
 IRaf=         0 NMat=       1 IRICut=       1 DoRegI=T DoRafI=F ISym2E= 0 IDoP0=0 IntGTp=1.
 FoFCou: FMM=F IPFlag=           0 FMFlag=      100000 FMFlg1=           0
         NFxFlg=           0 DoJE=F BraDBF=F KetDBF=F FulRan=T
         wScrn=  0.000000 ICntrl=      3107 IOpCl=  0 I1Cent=           0 NGrid=           0
         NMat0=    1 NMatS0=      1 NMatT0=    0 NMatD0=    1 NMtDS0=    0 NMtDT0=    0
 Symmetry not used in FoFCou.
 NEqPCM:  Using equilibrium solvation (IEInf=0, Eps=   2.2706, EpsInf=   2.2533)
 G2PCM: DoFxE=T DoFxN=T DoGrad=T DoDP/DQ/DG/TGxP=FFFF NFrqRd=   0 IEInf=0 SqF1=F DoCFld=F IF1Alg=4.
 GePol: Maximum number of non-zero 1st derivatives   =     378
 CoulSu:  requested number of processors reduced to:  17 ShMem   1 Linda.
 CoulSu:  requested number of processors reduced to:  23 ShMem   1 Linda.
 End of G2Drv F.D. properties file   721 does not exist.
 End of G2Drv F.D. properties file   722 does not exist.
 End of G2Drv F.D. properties file   788 does not exist.
 Leave Link 1110 at Fri Oct 18 03:22:53 2019, MaxMem=   104857600 cpu:             126.5 elap:               5.5
 (Enter /share/home/wli/program/opt/Chem_soft/g16/l1002.exe)
 Minotr:  Closed shell wavefunction.
          IDoAtm=111111
 NEqPCM:  Using equilibrium solvation (IEInf=0, Eps=   2.2706, EpsInf=   2.2533)
          Direct CPHF calculation.
          Differentiating once with respect to nuclear coordinates.
          Requested convergence is 1.0D-08 RMS, and 1.0D-07 maximum.
          Secondary convergence is 1.0D-12 RMS, and 1.0D-12 maximum.
          NewPWx=T KeepS1=F KeepF1=F KeepIn=T MapXYZ=F SortEE=F KeepMc=T.
         1761 words used for storage of precomputed grid.
 Keep R1 ints in memory in canonical form, NReq=64236277.
 FoFCou: FMM=F IPFlag=           0 FMFlag=           0 FMFlg1=           0
         NFxFlg=           0 DoJE=F BraDBF=F KetDBF=F FulRan=T
         wScrn=  0.000000 ICntrl=       600 IOpCl=  0 I1Cent=           0 NGrid=           0
         NMat0=    1 NMatS0=   9045 NMatT0=    0 NMatD0=    1 NMtDS0=    0 NMtDT0=    0
 Symmetry not used in FoFCou.
 Two-electron integral symmetry not used.
          MDV=     104857600 using IRadAn=       1.
          Solving linear equations simultaneously, MaxMat=       0.
 CoulSu:  requested number of processors reduced to:  13 ShMem   1 Linda.
 CoulSu:  requested number of processors reduced to:  13 ShMem   1 Linda.
          There are    21 degrees of freedom in the 1st order CPHF.  IDoFFX=6 NUNeed=     0.
     15 vectors produced by pass  0 Test12= 1.52D-14 4.76D-09 XBig12= 1.57D-01 3.33D-01.
 AX will form    15 AO Fock derivatives at one time.
 CoulSu:  requested number of processors reduced to:  16 ShMem   1 Linda.
 CoulSu:  requested number of processors reduced to:  15 ShMem   1 Linda.
     15 vectors produced by pass  1 Test12= 1.52D-14 4.76D-09 XBig12= 2.27D-02 5.23D-02.
 CoulSu:  requested number of processors reduced to:  16 ShMem   1 Linda.
 CoulSu:  requested number of processors reduced to:  15 ShMem   1 Linda.
     15 vectors produced by pass  2 Test12= 1.52D-14 4.76D-09 XBig12= 1.08D-03 9.03D-03.
 CoulSu:  requested number of processors reduced to:  16 ShMem   1 Linda.
 CoulSu:  requested number of processors reduced to:  15 ShMem   1 Linda.
     15 vectors produced by pass  3 Test12= 1.52D-14 4.76D-09 XBig12= 4.41D-05 1.59D-03.
 CoulSu:  requested number of processors reduced to:  16 ShMem   1 Linda.
 CoulSu:  requested number of processors reduced to:  15 ShMem   1 Linda.
     15 vectors produced by pass  4 Test12= 1.52D-14 4.76D-09 XBig12= 9.63D-07 2.70D-04.
 CoulSu:  requested number of processors reduced to:  16 ShMem   1 Linda.
 CoulSu:  requested number of processors reduced to:  15 ShMem   1 Linda.
     14 vectors produced by pass  5 Test12= 1.52D-14 4.76D-09 XBig12= 5.79D-09 2.45D-05.
 CoulSu:  requested number of processors reduced to:  17 ShMem   1 Linda.
 CoulSu:  requested number of processors reduced to:  16 ShMem   1 Linda.
      8 vectors produced by pass  6 Test12= 1.52D-14 4.76D-09 XBig12= 5.31D-11 2.14D-06.
 CoulSu:  requested number of processors reduced to:  21 ShMem   1 Linda.
 CoulSu:  requested number of processors reduced to:  20 ShMem   1 Linda.
      2 vectors produced by pass  7 Test12= 1.52D-14 4.76D-09 XBig12= 7.27D-14 5.38D-08.
 InvSVY:  IOpt=1 It=  1 EMax= 1.78D-15
 Solved reduced A of dimension    99 with    15 vectors.
 End of Minotr F.D. properties file   721 does not exist.
 End of Minotr F.D. properties file   722 does not exist.
 End of Minotr F.D. properties file   788 does not exist.
 Leave Link 1002 at Fri Oct 18 03:22:58 2019, MaxMem=   104857600 cpu:             103.0 elap:               4.8
 (Enter /share/home/wli/program/opt/Chem_soft/g16/l601.exe)
 Copying SCF densities to generalized density rwf, IOpCl= 0 IROHF=0.

 **********************************************************************

            Population analysis using the SCF density.

 **********************************************************************

 Alpha  occ. eigenvalues -- -482.72497-101.36422 -62.37351 -56.18829 -56.18672
 Alpha  occ. eigenvalues --  -56.18672 -10.16549  -9.29625  -8.56436  -7.05425
 Alpha  occ. eigenvalues --   -7.05102  -7.05102  -6.38976  -6.38492  -6.38492
 Alpha  occ. eigenvalues --   -2.50489  -2.50359  -2.50359  -2.49974  -2.49974
 Alpha  occ. eigenvalues --   -0.67663  -0.64388  -0.59877  -0.38213  -0.38212
 Alpha  occ. eigenvalues --   -0.25262  -0.19068  -0.19068  -0.18382  -0.18381
 Alpha  occ. eigenvalues --   -0.17269
 Alpha virt. eigenvalues --    0.02537   0.11624   0.17813   0.17815   0.25893
 Alpha virt. eigenvalues --    0.26516   0.26517   0.32941   0.33687   0.33688
 Alpha virt. eigenvalues --    0.38970   0.38971   0.40427   0.41541   0.41541
 Alpha virt. eigenvalues --    0.46453   0.46800   0.46802   0.49837   0.52992
 Alpha virt. eigenvalues --    0.52998   0.55186   0.57623   0.57630   0.57991
 Alpha virt. eigenvalues --    0.57993   0.61108   0.84138   0.84140   0.84528
 Alpha virt. eigenvalues --    1.02459   1.02463   1.03515   1.17143   1.41789
 Alpha virt. eigenvalues --    1.44094   1.44095   1.45728   1.45731   1.50913
 Alpha virt. eigenvalues --    1.51911   1.51917   1.52153   1.53267   1.62917
 Alpha virt. eigenvalues --    1.62917   1.64110   1.64154   1.69005   1.69006
 Alpha virt. eigenvalues --    1.70399   1.73460   1.73471   1.85332   1.85332
 Alpha virt. eigenvalues --    1.87976   1.89171   1.89174   1.99074   1.99086
 Alpha virt. eigenvalues --    2.02109   2.09680   2.11995   2.11999   2.20777
 Alpha virt. eigenvalues --    2.20778   2.22412   2.22520   2.31792   2.31799
 Alpha virt. eigenvalues --    2.34515   2.34523   2.35542   2.38405   2.51995
 Alpha virt. eigenvalues --    2.52028   2.68959   2.72582   2.72592   2.85008
 Alpha virt. eigenvalues --    3.12962   3.12965   3.26541   3.26548   3.31141
 Alpha virt. eigenvalues --    3.35020   3.35028   3.68153   3.90848   4.09603
 Alpha virt. eigenvalues --    4.09606   4.12834   4.12835   4.21575   4.21585
 Alpha virt. eigenvalues --    4.31901   4.75766   7.47504  10.81539  10.81540
 Alpha virt. eigenvalues --   10.93746  22.15878  24.64729
          Condensed to atoms (all electrons):
               1          2          3          4          5          6
     1  C    4.856808   0.410064   0.410060   0.409977   0.029486   0.034376
     2  H    0.410064   0.496917  -0.021866  -0.021888  -0.006451  -0.014398
     3  H    0.410060  -0.021866   0.496891  -0.021886  -0.006452  -0.014397
     4  H    0.409977  -0.021888  -0.021886   0.497006  -0.006401  -0.014344
     5  Cl   0.029486  -0.006451  -0.006452  -0.006401  17.662507   0.009957
     6  Br   0.034376  -0.014398  -0.014397  -0.014344   0.009957  35.638197
 Mulliken charges:
               1
     1  C   -0.150771
     2  H    0.157622
     3  H    0.157650
     4  H    0.157536
     5  Cl  -0.682647
     6  Br  -0.639391
 Sum of Mulliken charges =  -1.00000
 Mulliken charges with hydrogens summed into heavy atoms:
               1
     1  C    0.322038
     5  Cl  -0.682647
     6  Br  -0.639391
 APT charges:
               1
     1  C   -0.804434
     2  H    0.340427
     3  H    0.340464
     4  H    0.340554
     5  Cl  -0.638700
     6  Br  -0.578311
 Sum of APT charges =  -1.00000
 APT charges with hydrogens summed into heavy atoms:
               1
     1  C    0.217012
     5  Cl  -0.638700
     6  Br  -0.578311
 Electronic spatial extent (au):  <R**2>=           1122.0887
 Charge=             -1.0000 electrons
 Dipole moment (field-independent basis, Debye):
    X=              3.8531    Y=             -0.0001    Z=              0.0023  Tot=              3.8531
 Quadrupole moment (field-independent basis, Debye-Ang):
   XX=            -84.7475   YY=            -42.4793   ZZ=            -42.4804
   XY=             -0.0000   XZ=             -0.0032   YZ=              0.0000
 Traceless Quadrupole moment (field-independent basis, Debye-Ang):
   XX=            -28.1784   YY=             14.0897   ZZ=             14.0887
   XY=             -0.0000   XZ=             -0.0032   YZ=              0.0000
 Octapole moment (field-independent basis, Debye-Ang**2):
  XXX=            137.0385  YYY=             -0.1601  ZZZ=              1.0695  XYY=             14.9106
  XXY=             -0.0001  XXZ=              0.0024  XZZ=             14.9118  YZZ=              0.1597
  YYZ=             -1.0685  XYZ=              0.0000
 Hexadecapole moment (field-independent basis, Debye-Ang**3):
 XXXX=          -1655.7806 YYYY=            -61.2816 ZZZZ=            -61.2799 XXXY=             -0.0003
 XXXZ=             -0.0225 YYYX=              0.1194 YYYZ=             -0.0001 ZZZX=             -0.8083
 ZZZY=              0.0005 XXYY=           -234.8197 XXZZ=           -234.8215 YYZZ=            -20.4297
 XXYZ=              0.0000 YYXZ=              0.7953 ZZXY=             -0.1194
 N-N= 1.733858221988D+02 E-N=-7.699883020714D+03  KE= 3.069819392978D+03
  Exact polarizability:   0.000   0.000   0.000   0.000   0.000   0.000
 Approx polarizability: 205.310  -0.000  60.598  -0.000  -0.000  60.599
 No NMR shielding tensors so no spin-rotation constants.
 Leave Link  601 at Fri Oct 18 03:22:58 2019, MaxMem=   104857600 cpu:               6.9 elap:               0.3
 (Enter /share/home/wli/program/opt/Chem_soft/g16/l701.exe)
 ... and contract with generalized density number  0.
 Compute integral second derivatives.
 R6Disp: Adding Grimme-D3(BJ) dispersion energy 2nd derivatives to the Hessian.
 PrsmSu:  requested number of processors reduced to:   9 ShMem   1 Linda.
 PrsmSu:  requested number of processors reduced to:  13 ShMem   1 Linda.
   1 Symmetry operations used in ECPInt.
 ECPInt:  NShTT=    1378 NPrTT=    5593 LenC2=    1324 LenP2D=    4260.
 LDataN:  DoStor=T MaxTD1= 8 Len=  415
 D2PCM: C-PCM CHGder 2nd derivatives, FixD1E=F FixD2E=F DoIter=F DoCFld=F I1PDM=0
 GePol: Maximum number of non-zero 2nd derivatives   =     378
 CoulSu:  requested number of processors reduced to:  13 ShMem   1 Linda.
 CoulSu:  requested number of processors reduced to:  13 ShMem   1 Linda.
 CoulSu:  requested number of processors reduced to:  13 ShMem   1 Linda.
 CoulSu:  requested number of processors reduced to:  13 ShMem   1 Linda.
 Leave Link  701 at Fri Oct 18 03:23:00 2019, MaxMem=   104857600 cpu:              20.7 elap:               1.4
 (Enter /share/home/wli/program/opt/Chem_soft/g16/l702.exe)
 L702 exits ... SP integral derivatives will be done elsewhere.
 Leave Link  702 at Fri Oct 18 03:23:00 2019, MaxMem=   104857600 cpu:               1.1 elap:               0.1
 (Enter /share/home/wli/program/opt/Chem_soft/g16/l703.exe)
 Integral derivatives from FoFJK, PRISM(SPDF).
 Compute integral second derivatives, UseDBF=F ICtDFT=           0.
 Calling FoFJK, ICntrl=    100147 FMM=F ISym2X=0 I1Cent= 0 IOpClX= 0 NMat=1 NMatS=1 NMatT=0.
 FoFJK:  IHMeth= 1 ICntrl=  100147 DoSepK=F KAlg= 0 I1Cent=           0 FoldK=F
 IRaf=         0 NMat=       1 IRICut=       1 DoRegI=T DoRafI=F ISym2E= 0 IDoP0=0 IntGTp=1.
 FoFCou: FMM=F IPFlag=           0 FMFlag=      100000 FMFlg1=         800
         NFxFlg=           0 DoJE=F BraDBF=F KetDBF=F FulRan=T
         wScrn=  0.000000 ICntrl=    100147 IOpCl=  0 I1Cent=           0 NGrid=           0
         NMat0=    1 NMatS0=      1 NMatT0=    0 NMatD0=    1 NMtDS0=    0 NMtDT0=    0
 Symmetry not used in FoFCou.
 CoulSu:  requested number of processors reduced to:  13 ShMem   1 Linda.
 Leave Link  703 at Fri Oct 18 03:23:05 2019, MaxMem=   104857600 cpu:             104.5 elap:               5.4
 (Enter /share/home/wli/program/opt/Chem_soft/g16/l716.exe)
 Dipole        = 1.51591511D+00-5.10305004D-05 9.18597729D-04
 Polarizability= 0.00000000D+00 0.00000000D+00 0.00000000D+00
                 0.00000000D+00 0.00000000D+00 0.00000000D+00
 -------------------------------------------------------------------
 Center     Atomic                   Forces (Hartrees/Bohr)
 Number     Number              X              Y              Z
 -------------------------------------------------------------------
      1        6          -0.000048623    0.000002404    0.000000825
      2        1           0.000019811    0.000032696   -0.000020445
      3        1           0.000013134   -0.000035596   -0.000021825
      4        1           0.000008668   -0.000000416    0.000041502
      5       17           0.000040384    0.000000347   -0.000005491
      6       35          -0.000033374    0.000000565    0.000005435
 -------------------------------------------------------------------
 Cartesian Forces:  Max     0.000048623 RMS     0.000024459
 Z-matrix is all fixed cartesians, so copy forces.
 Force constants in Cartesian coordinates: 
                1             2             3             4             5 
      1 -0.478085D-01
      2 -0.164965D-04  0.678381D+00
      3  0.436906D-04 -0.524802D-05  0.678155D+00
      4 -0.893321D-02  0.831794D-02 -0.538408D-02  0.329132D-01
      5  0.739852D-02 -0.286208D+00  0.149465D+00 -0.759236D-02  0.288539D+00
      6 -0.477883D-02  0.149461D+00 -0.151014D+00  0.498791D-02 -0.157187D+00
      7 -0.891530D-02 -0.879257D-02 -0.452031D-02  0.265943D-02  0.837982D-03
      8 -0.782096D-02 -0.314287D+00 -0.133247D+00 -0.793469D-03 -0.118336D-01
      9 -0.403021D-02 -0.133241D+00 -0.122941D+00  0.504458D-03  0.145769D-01
     10 -0.899673D-02  0.497146D-03  0.987616D-02  0.266837D-02 -0.378573D-04
     11  0.453117D-03 -0.554037D-01 -0.162244D-01 -0.785814D-03  0.580052D-02
     12  0.877583D-02 -0.162093D-01 -0.381751D+00  0.517512D-03 -0.440087D-02
     13  0.384979D-01 -0.133293D-04 -0.217506D-04 -0.141807D-01  0.167684D-02
     14 -0.176957D-04 -0.106138D-01  0.107956D-04 -0.512659D-02  0.175456D-02
     15  0.298156D-04 -0.694355D-05 -0.105893D-01  0.321677D-02 -0.117800D-02
     16  0.361558D-01  0.731014D-05  0.628857D-05 -0.151271D-01 -0.228312D-02
     17  0.351579D-05 -0.118675D-01  0.000000D+00  0.598030D-02  0.194797D-02
     18 -0.403033D-04  0.116695D-05 -0.118589D-01 -0.384257D-02 -0.127612D-02
                6             7             8             9            10 
      6  0.146445D+00
      7  0.422630D-03  0.328495D-01
      8 -0.123692D-01  0.806107D-02  0.318111D+00
      9  0.104014D-01  0.412696D-02  0.140163D+00  0.116884D+00
     10 -0.934645D-03  0.266624D-02 -0.553767D-04 -0.934502D-03  0.329289D-01
     11  0.225576D-01  0.831919D-03  0.388690D-02 -0.236633D-01 -0.446474D-03
     12 -0.724754D-02  0.435721D-03  0.329420D-02 -0.533151D-02 -0.902174D-02
     13 -0.117534D-02 -0.141352D-01 -0.179654D-02 -0.911444D-03 -0.141709D-01
     14 -0.118727D-02  0.540105D-02  0.195306D-02  0.103741D-02 -0.303863D-03
     15  0.651047D-03  0.276817D-02  0.103219D-02  0.457348D-03 -0.608745D-02
     16  0.147827D-02 -0.151247D-01  0.240527D-02  0.124474D-02 -0.150958D-01
     17 -0.127550D-02 -0.633946D-02  0.217005D-02  0.112690D-02  0.346425D-03
     18  0.764801D-03 -0.323316D-02  0.112675D-02  0.529518D-03  0.710217D-02
               11            12            13            14            15 
     11  0.458121D-01
     12  0.170492D-01  0.389202D+00
     13  0.908488D-04  0.200028D-02  0.278268D-01
     14 -0.739293D-04  0.134612D-03  0.429313D-04  0.545012D-02
     15  0.148078D-03  0.236875D-02  0.969104D-04  0.441470D-05  0.558157D-02
     16 -0.143596D-03 -0.270760D-02 -0.238379D-01  0.416947D-05 -0.242117D-04
     17 -0.218155D-04  0.132103D-03  0.000000D+00  0.153002D-02  0.000000D+00
     18  0.132781D-03  0.275936D-02  0.113452D-04  0.000000D+00  0.153062D-02
               16            17            18 
     16  0.330298D-01
     17  0.997111D-05  0.624124D-02
     18  0.251467D-05  0.153887D-04  0.627457D-02
 Leave Link  716 at Fri Oct 18 03:23:05 2019, MaxMem=   104857600 cpu:               1.3 elap:               0.1
 (Enter /share/home/wli/program/opt/Chem_soft/g16/l123.exe)
 IRC-IRC-IRC-IRC-IRC-IRC-IRC-IRC-IRC-IRC-IRC-IRC-IRC-IRC-IRC-IRC-IRC-IRC
          ******** Start new reaction path calculation ********
 Current Structure is TS -> form Hessian eigenvectors.
                            Diagonalizing Hessian.
 Supplied step size of   0.1000 bohr.
    Integration on MW PES will use step size of   0.3548 sqrt(amu)*bohr.
 Point Number:   0          Path Number:   1
 Calculating another point on the path.
 Point Number  1 in FORWARD path direction.
 Using LQA Reaction Path Following.
 IRC-IRC-IRC-IRC-IRC-IRC-IRC-IRC-IRC-IRC-IRC-IRC-IRC-IRC-IRC-IRC-IRC-IRC
 Leave Link  123 at Fri Oct 18 03:23:05 2019, MaxMem=   104857600 cpu:               3.6 elap:               0.2
 (Enter /share/home/wli/program/opt/Chem_soft/g16/l202.exe)
                          Input orientation:                          
 ---------------------------------------------------------------------
 Center     Atomic      Atomic             Coordinates (Angstroms)
 Number     Number       Type             X           Y           Z
 ---------------------------------------------------------------------
      1          6           0       -0.895841    0.000014    0.001008
      2          1           0       -0.880017    0.899795   -0.579550
      3          1           0       -0.879990   -0.952722   -0.487815
      4          1           0       -0.880042    0.053010    1.070550
      5         17           0       -3.242889   -0.000004   -0.000225
      6         35           0        1.606862   -0.000002   -0.000094
 ---------------------------------------------------------------------
                    Distance matrix (angstroms):
                    1          2          3          4          5
     1  C    0.000000
     2  H    1.070935   0.000000
     3  H    1.070937   1.854787   0.000000
     4  H    1.070971   1.854689   1.854723   0.000000
     5  Cl   2.347049   2.593919   2.593975   2.594690   0.000000
     6  Br   2.502704   2.707392   2.707394   2.708096   4.849752
                    6
     6  Br   0.000000
 Symmetry turned off by external request.
 Stoichiometry    CH3BrCl(1-)
 Framework group  C1[X(CH3BrCl)]
 Deg. of freedom    12
 Full point group                 C1      NOp   1
 Rotational constants (GHZ):         145.7695981           0.8635756           0.8635753
 Leave Link  202 at Fri Oct 18 03:23:06 2019, MaxMem=   104857600 cpu:               1.7 elap:               0.1
 (Enter /share/home/wli/program/opt/Chem_soft/g16/l301.exe)
 Standard basis: def2TZVP (5D, 7F)
 Ernie: Thresh=  0.10000D-02 Tol=  0.10000D-05 Strict=F.
   134 basis functions,   258 primitive gaussians,   151 cartesian basis functions
    31 alpha electrons       31 beta electrons
       nuclear repulsion energy       172.9977896376 Hartrees.
 IExCor=  402 DFT=T Ex+Corr=B3LYP ExCW=0 ScaHFX=  0.200000
 ScaDFX=  0.800000  0.720000  1.000000  0.810000 ScalE2=  1.000000  1.000000
 IRadAn=      5 IRanWt=     -1 IRanGd=            0 ICorTp=0 IEmpDi=141
 NAtoms=    6 NActive=    6 NUniq=    6 SFac= 1.00D+00 NAtFMM=   60 NAOKFM=F Big=F
 Integral buffers will be    131072 words long.
 Raffenetti 2 integral format.
 Two-electron integral symmetry is turned off.
 R6Disp:  Grimme-D3(BJ) Dispersion energy=       -0.0069922032 Hartrees.
 Nuclear repulsion after empirical dispersion term =      172.9907974344 Hartrees.
 Force inversion solution in PCM.
 ------------------------------------------------------------------------------
 Polarizable Continuum Model (PCM)
 =================================
 Model                : C-PCM.
 Atomic radii         : UFF (Universal Force Field).
 Polarization charges : Total charges.
 Charge compensation  : None.
 Solution method      : Matrix inversion.
 Cavity type          : Scaled VdW (van der Waals Surface) (Alpha=1.100).
 Cavity algorithm     : GePol (No added spheres)
                        Default sphere list used, NSphG=    6.
                        Lebedev-Laikov grids with approx.  5.0 points / Ang**2.
                        Smoothing algorithm: York/Karplus (Gamma=1.0000).
                        Polarization charges: spherical gaussians, with
                                              point-specific exponents (IZeta= 3).
                        Self-potential: point-specific (ISelfS= 7).
                        Self-field    : sphere-specific E.n sum rule (ISelfD= 2).
 1st derivatives      : Analytical E(r).r(x)/FMM algorithm (CHGder, D1EAlg=3).
                        Cavity 1st derivative terms included.
 Solvent              : Benzene, Eps=   2.270600 Eps(inf)=   2.253301
 ------------------------------------------------------------------------------
 Spheres list:
 ISph  on   Nord     Re0    Alpha      Xe            Ye            Ze
    1   C      1    1.9255  1.100     -0.895841      0.000014      0.001008
    2   H      2    1.4430  1.100     -0.880017      0.899795     -0.579550
    3   H      3    1.4430  1.100     -0.879990     -0.952722     -0.487815
    4   H      4    1.4430  1.100     -0.880042      0.053010      1.070550
    5  Cl      5    1.9735  1.100     -3.242889     -0.000004     -0.000225
    6  Br      6    2.0945  1.100      1.606862     -0.000002     -0.000094
 ------------------------------------------------------------------------------
 GePol: Number of generator spheres                  =       6
 GePol: Total number of spheres                      =       6
 GePol: Number of exposed spheres                    =       6 (100.00%)
 GePol: Number of points                             =     875
 GePol: Average weight of points                     =       0.16
 GePol: Minimum weight of points                     =   0.48D-05
 GePol: Maximum weight of points                     =    0.21616
 GePol: Number of points with low weight             =      24
 GePol: Fraction of low-weight points (<1% of avg)   =       2.74%
 GePol: Cavity surface area                          =    136.185 Ang**2
 GePol: Cavity volume                                =    119.695 Ang**3
 Leave Link  301 at Fri Oct 18 03:23:06 2019, MaxMem=   104857600 cpu:               2.9 elap:               0.1
 (Enter /share/home/wli/program/opt/Chem_soft/g16/l302.exe)
 NPDir=0 NMtPBC=     1 NCelOv=     1 NCel=       1 NClECP=     1 NCelD=      1
         NCelK=      1 NCelE2=     1 NClLst=     1 CellRange=     0.0.
 One-electron integrals computed using PRISM.
 PrsmSu:  requested number of processors reduced to:  13 ShMem   1 Linda.
   1 Symmetry operations used in ECPInt.
 ECPInt:  NShTT=    1378 NPrTT=    5593 LenC2=    1324 LenP2D=    4258.
 LDataN:  DoStor=T MaxTD1= 6 Len=  172
 NBasis=   134 RedAO= T EigKep=  1.43D-03  NBF=   134
 NBsUse=   134 1.00D-06 EigRej= -1.00D+00 NBFU=   134
 Precomputing XC quadrature grid using
 IXCGrd= 4 IRadAn=           5 IRanWt=          -1 IRanGd=           0 AccXCQ= 0.00D+00.
 Generated NRdTot=       0 NPtTot=           0 NUsed=           0 NTot=          32
 NSgBfM=   150   150   150   150   150 MxSgAt=     6 MxSgA2=     6.
 Leave Link  302 at Fri Oct 18 03:23:06 2019, MaxMem=   104857600 cpu:               8.7 elap:               0.4
 (Enter /share/home/wli/program/opt/Chem_soft/g16/l303.exe)
 DipDrv:  MaxL=1.
 Leave Link  303 at Fri Oct 18 03:23:06 2019, MaxMem=   104857600 cpu:               3.6 elap:               0.2
 (Enter /share/home/wli/program/opt/Chem_soft/g16/l401.exe)
 Initial guess from the checkpoint file:  "irc_cpcm_benzene.chk"
 B after Tr=    -0.213880    0.000001    0.000065
         Rot=    1.000000   -0.000000    0.000000    0.000000 Ang=  -0.00 deg.
 Guess basis will be translated and rotated to current coordinates.
 JPrj=2 DoOrth=T DoCkMO=T.
 Generating alternative initial guess.
 ExpMin= 9.52D-02 ExpMax= 5.65D+05 ExpMxC= 5.46D+03 IAcc=2 IRadAn=         4 AccDes= 0.00D+00
 Harris functional with IExCor=  402 and IRadAn=       4 diagonalized for initial guess.
 HarFok:  IExCor=  402 AccDes= 0.00D+00 IRadAn=         4 IDoV= 1 UseB2=F ITyADJ=14
 ICtDFT=  3500011 ScaDFX=  1.000000  1.000000  1.000000  1.000000
 FoFCou: FMM=F IPFlag=           0 FMFlag=      100000 FMFlg1=           0
         NFxFlg=           0 DoJE=T BraDBF=F KetDBF=T FulRan=T
         wScrn=  0.000000 ICntrl=       500 IOpCl=  0 I1Cent=   200000004 NGrid=           0
         NMat0=    1 NMatS0=      1 NMatT0=    0 NMatD0=    1 NMtDS0=    0 NMtDT0=    0
 Symmetry not used in FoFCou.
 Harris En= -3074.57526934516    
 Leave Link  401 at Fri Oct 18 03:23:07 2019, MaxMem=   104857600 cpu:              21.5 elap:               1.0
 (Enter /share/home/wli/program/opt/Chem_soft/g16/l502.exe)
 Keep R1 ints in memory in canonical form, NReq=64314760.
 FoFCou: FMM=F IPFlag=           0 FMFlag=           0 FMFlg1=           0
         NFxFlg=           0 DoJE=F BraDBF=F KetDBF=F FulRan=T
         wScrn=  0.000000 ICntrl=       600 IOpCl=  0 I1Cent=           0 NGrid=           0
         NMat0=    1 NMatS0=   9045 NMatT0=    0 NMatD0=    1 NMtDS0=    0 NMtDT0=    0
 Symmetry not used in FoFCou.
 Two-electron integral symmetry not used.
 Closed shell SCF:
 Using DIIS extrapolation, IDIIS=  1040.
 NGot=   104857600 LenX=    63896738 LenY=    63873496
 Requested convergence on RMS density matrix=1.00D-08 within 128 cycles.
 Requested convergence on MAX density matrix=1.00D-06.
 Requested convergence on             energy=1.00D-06.
 No special actions if energy rises.

 Cycle   1  Pass 1  IDiag  1:
 Inv3:  Mode=1 IEnd=     2296875.
 Iteration    1 A*A^-1 deviation from unit magnitude is 2.78D-15 for      4.
 Iteration    1 A*A^-1 deviation from orthogonality  is 1.35D-15 for    217    155.
 Iteration    1 A^-1*A deviation from unit magnitude is 2.89D-15 for    126.
 Iteration    1 A^-1*A deviation from orthogonality  is 9.61D-16 for    874    620.
 E= -3074.47227059562    
 DIIS: error= 2.65D-03 at cycle   1 NSaved=   1.
 NSaved= 1 IEnMin= 1 EnMin= -3074.47227059562     IErMin= 1 ErrMin= 2.65D-03
 ErrMax= 2.65D-03  0.00D+00 EMaxC= 1.00D-01 BMatC= 5.70D-04 BMatP= 5.70D-04
 IDIUse=3 WtCom= 9.74D-01 WtEn= 2.65D-02
 Coeff-Com:  0.100D+01
 Coeff-En:   0.100D+01
 Coeff:      0.100D+01
 Gap=     0.632 Goal=   None    Shift=    0.000
 GapD=    0.632 DampG=2.000 DampE=1.000 DampFc=2.0000 IDamp=-1.
 RMSDP=3.54D-04 MaxDP=7.11D-03              OVMax= 3.51D-02

 Cycle   2  Pass 1  IDiag  1:
 E= -3074.47326073305     Delta-E=       -0.000990137433 Rises=F Damp=F
 DIIS: error= 6.16D-04 at cycle   2 NSaved=   2.
 NSaved= 2 IEnMin= 2 EnMin= -3074.47326073305     IErMin= 2 ErrMin= 6.16D-04
 ErrMax= 6.16D-04  0.00D+00 EMaxC= 1.00D-01 BMatC= 7.90D-05 BMatP= 5.70D-04
 IDIUse=3 WtCom= 9.94D-01 WtEn= 6.16D-03
 Coeff-Com:  0.928D-01 0.907D+00
 Coeff-En:   0.000D+00 0.100D+01
 Coeff:      0.922D-01 0.908D+00
 Gap=     0.198 Goal=   None    Shift=    0.000
 RMSDP=1.96D-04 MaxDP=4.76D-03 DE=-9.90D-04 OVMax= 1.27D-02

 Cycle   3  Pass 1  IDiag  1:
 E= -3074.47322860106     Delta-E=        0.000032131994 Rises=F Damp=F
 DIIS: error= 7.93D-04 at cycle   3 NSaved=   3.
 NSaved= 3 IEnMin= 2 EnMin= -3074.47326073305     IErMin= 2 ErrMin= 6.16D-04
 ErrMax= 7.93D-04  0.00D+00 EMaxC= 1.00D-01 BMatC= 1.30D-04 BMatP= 7.90D-05
 IDIUse=3 WtCom= 2.62D-01 WtEn= 7.38D-01
 Coeff-Com: -0.202D-01 0.578D+00 0.442D+00
 Coeff-En:   0.000D+00 0.557D+00 0.443D+00
 Coeff:     -0.530D-02 0.562D+00 0.443D+00
 Gap=     0.199 Goal=   None    Shift=    0.000
 RMSDP=9.57D-05 MaxDP=2.65D-03 DE= 3.21D-05 OVMax= 8.25D-03

 Cycle   4  Pass 1  IDiag  1:
 E= -3074.47337617996     Delta-E=       -0.000147578904 Rises=F Damp=F
 DIIS: error= 8.24D-05 at cycle   4 NSaved=   4.
 NSaved= 4 IEnMin= 4 EnMin= -3074.47337617996     IErMin= 4 ErrMin= 8.24D-05
 ErrMax= 8.24D-05  0.00D+00 EMaxC= 1.00D-01 BMatC= 1.12D-06 BMatP= 7.90D-05
 IDIUse=1 WtCom= 1.00D+00 WtEn= 0.00D+00
 Coeff-Com: -0.124D-01 0.148D+00 0.132D+00 0.732D+00
 Coeff:     -0.124D-01 0.148D+00 0.132D+00 0.732D+00
 Gap=     0.199 Goal=   None    Shift=    0.000
 RMSDP=6.26D-06 MaxDP=1.21D-04 DE=-1.48D-04 OVMax= 6.14D-04

 Cycle   5  Pass 1  IDiag  1:
 E= -3074.47337670359     Delta-E=       -0.000000523627 Rises=F Damp=F
 DIIS: error= 2.22D-05 at cycle   5 NSaved=   5.
 NSaved= 5 IEnMin= 5 EnMin= -3074.47337670359     IErMin= 5 ErrMin= 2.22D-05
 ErrMax= 2.22D-05  0.00D+00 EMaxC= 1.00D-01 BMatC= 6.77D-08 BMatP= 1.12D-06
 IDIUse=1 WtCom= 1.00D+00 WtEn= 0.00D+00
 Coeff-Com: -0.213D-02 0.301D-02 0.178D-01 0.157D+00 0.825D+00
 Coeff:     -0.213D-02 0.301D-02 0.178D-01 0.157D+00 0.825D+00
 Gap=     0.199 Goal=   None    Shift=    0.000
 RMSDP=2.52D-06 MaxDP=7.55D-05 DE=-5.24D-07 OVMax= 1.20D-04

 Cycle   6  Pass 1  IDiag  1:
 E= -3074.47337675301     Delta-E=       -0.000000049421 Rises=F Damp=F
 DIIS: error= 1.21D-05 at cycle   6 NSaved=   6.
 NSaved= 6 IEnMin= 6 EnMin= -3074.47337675301     IErMin= 6 ErrMin= 1.21D-05
 ErrMax= 1.21D-05  0.00D+00 EMaxC= 1.00D-01 BMatC= 1.76D-08 BMatP= 6.77D-08
 IDIUse=1 WtCom= 1.00D+00 WtEn= 0.00D+00
 Coeff-Com: -0.185D-03-0.924D-02 0.151D-02 0.308D-01 0.414D+00 0.563D+00
 Coeff:     -0.185D-03-0.924D-02 0.151D-02 0.308D-01 0.414D+00 0.563D+00
 Gap=     0.199 Goal=   None    Shift=    0.000
 RMSDP=9.69D-07 MaxDP=2.15D-05 DE=-4.94D-08 OVMax= 8.94D-05

 Cycle   7  Pass 1  IDiag  1:
 E= -3074.47337676775     Delta-E=       -0.000000014737 Rises=F Damp=F
 DIIS: error= 4.46D-06 at cycle   7 NSaved=   7.
 NSaved= 7 IEnMin= 7 EnMin= -3074.47337676775     IErMin= 7 ErrMin= 4.46D-06
 ErrMax= 4.46D-06  0.00D+00 EMaxC= 1.00D-01 BMatC= 2.10D-09 BMatP= 1.76D-08
 IDIUse=1 WtCom= 1.00D+00 WtEn= 0.00D+00
 Coeff-Com:  0.982D-04-0.559D-02-0.481D-03 0.425D-02 0.145D+00 0.328D+00
 Coeff-Com:  0.528D+00
 Coeff:      0.982D-04-0.559D-02-0.481D-03 0.425D-02 0.145D+00 0.328D+00
 Coeff:      0.528D+00
 Gap=     0.199 Goal=   None    Shift=    0.000
 RMSDP=2.58D-07 MaxDP=6.55D-06 DE=-1.47D-08 OVMax= 2.71D-05

 Cycle   8  Pass 1  IDiag  1:
 E= -3074.47337677018     Delta-E=       -0.000000002429 Rises=F Damp=F
 DIIS: error= 4.28D-07 at cycle   8 NSaved=   8.
 NSaved= 8 IEnMin= 8 EnMin= -3074.47337677018     IErMin= 8 ErrMin= 4.28D-07
 ErrMax= 4.28D-07  0.00D+00 EMaxC= 1.00D-01 BMatC= 3.21D-11 BMatP= 2.10D-09
 IDIUse=1 WtCom= 1.00D+00 WtEn= 0.00D+00
 Coeff-Com:  0.366D-04-0.124D-02-0.772D-04 0.742D-03 0.180D-01 0.683D-01
 Coeff-Com:  0.156D+00 0.758D+00
 Coeff:      0.366D-04-0.124D-02-0.772D-04 0.742D-03 0.180D-01 0.683D-01
 Coeff:      0.156D+00 0.758D+00
 Gap=     0.199 Goal=   None    Shift=    0.000
 RMSDP=4.96D-08 MaxDP=1.58D-06 DE=-2.43D-09 OVMax= 1.58D-06

 Cycle   9  Pass 1  IDiag  1:
 E= -3074.47337677020     Delta-E=       -0.000000000022 Rises=F Damp=F
 DIIS: error= 1.01D-07 at cycle   9 NSaved=   9.
 NSaved= 9 IEnMin= 9 EnMin= -3074.47337677020     IErMin= 9 ErrMin= 1.01D-07
 ErrMax= 1.01D-07  0.00D+00 EMaxC= 1.00D-01 BMatC= 2.25D-12 BMatP= 3.21D-11
 IDIUse=1 WtCom= 1.00D+00 WtEn= 0.00D+00
 Coeff-Com:  0.475D-05-0.605D-04 0.408D-04-0.325D-05-0.257D-02-0.300D-02
 Coeff-Com:  0.863D-02 0.235D+00 0.762D+00
 Coeff:      0.475D-05-0.605D-04 0.408D-04-0.325D-05-0.257D-02-0.300D-02
 Coeff:      0.863D-02 0.235D+00 0.762D+00
 Gap=     0.199 Goal=   None    Shift=    0.000
 RMSDP=1.73D-08 MaxDP=6.61D-07 DE=-2.23D-11 OVMax= 6.87D-07

 Cycle  10  Pass 1  IDiag  1:
 E= -3074.47337677021     Delta-E=       -0.000000000008 Rises=F Damp=F
 DIIS: error= 3.41D-08 at cycle  10 NSaved=  10.
 NSaved=10 IEnMin=10 EnMin= -3074.47337677021     IErMin=10 ErrMin= 3.41D-08
 ErrMax= 3.41D-08  0.00D+00 EMaxC= 1.00D-01 BMatC= 7.22D-14 BMatP= 2.25D-12
 IDIUse=1 WtCom= 1.00D+00 WtEn= 0.00D+00
 Coeff-Com:  0.168D-05 0.338D-05 0.143D-04-0.346D-04-0.168D-02-0.315D-02
 Coeff-Com:  0.364D-03 0.855D-01 0.313D+00 0.606D+00
 Coeff:      0.168D-05 0.338D-05 0.143D-04-0.346D-04-0.168D-02-0.315D-02
 Coeff:      0.364D-03 0.855D-01 0.313D+00 0.606D+00
 Gap=     0.199 Goal=   None    Shift=    0.000
 RMSDP=1.37D-09 MaxDP=2.76D-08 DE=-8.19D-12 OVMax= 7.38D-08

 Error on total polarization charges =  0.01273
 SCF Done:  E(RB3LYP) =  -3074.47337677     A.U. after   10 cycles
            NFock= 10  Conv=0.14D-08     -V/T= 2.0015
 KE= 3.069820155629D+03 PE=-7.699259043645D+03 EE= 1.381974713811D+03
 Leave Link  502 at Fri Oct 18 03:23:12 2019, MaxMem=   104857600 cpu:              99.6 elap:               4.7
 (Enter /share/home/wli/program/opt/Chem_soft/g16/l801.exe)
 DoSCS=F DFT=T ScalE2(SS,OS)=  1.000000  1.000000
 Range of M.O.s used for correlation:     1   134
 NBasis=   134 NAE=    31 NBE=    31 NFC=     0 NFV=     0
 NROrb=    134 NOA=    31 NOB=    31 NVA=   103 NVB=   103
 Leave Link  801 at Fri Oct 18 03:23:12 2019, MaxMem=   104857600 cpu:               1.1 elap:               0.1
 (Enter /share/home/wli/program/opt/Chem_soft/g16/l1101.exe)
 Leave Link 1101 at Fri Oct 18 03:23:12 2019, MaxMem=   104857600 cpu:               1.4 elap:               0.1
 (Enter /share/home/wli/program/opt/Chem_soft/g16/l1102.exe)
 Symmetrizing basis deriv contribution to polar:
 IMax=3 JMax=2 DiffMx= 0.00D+00
 Leave Link 1102 at Fri Oct 18 03:23:12 2019, MaxMem=   104857600 cpu:               2.4 elap:               0.1
 (Enter /share/home/wli/program/opt/Chem_soft/g16/l1110.exe)
 Leave Link 1110 at Fri Oct 18 03:23:12 2019, MaxMem=   104857600 cpu:               1.1 elap:               0.1
 (Enter /share/home/wli/program/opt/Chem_soft/g16/l1002.exe)
 Minotr:  Closed shell wavefunction.
 Leave Link 1002 at Fri Oct 18 03:23:12 2019, MaxMem=   104857600 cpu:               1.3 elap:               0.1
 (Enter /share/home/wli/program/opt/Chem_soft/g16/l701.exe)
 ... and contract with generalized density number  0.
 Compute integral first derivatives.
 R6Disp: Adding Grimme-D3(BJ) dispersion energy 1st derivatives to the gradient.
 PrsmSu:  requested number of processors reduced to:  11 ShMem   1 Linda.
   1 Symmetry operations used in ECPInt.
 ECPInt:  NShTT=    1378 NPrTT=    5593 LenC2=    1324 LenP2D=    4258.
 LDataN:  DoStor=T MaxTD1= 7 Len=  274
 D1PCM: C-PCM CHGder 1st derivatives, ID1Alg=3 FixD1E=F DoIter=F DoCFld=F I1PDM=0.
 GePol: Maximum number of non-zero 1st derivatives   =     378
 Leave Link  701 at Fri Oct 18 03:23:13 2019, MaxMem=   104857600 cpu:              12.4 elap:               0.6
 (Enter /share/home/wli/program/opt/Chem_soft/g16/l702.exe)
 L702 exits ... SP integral derivatives will be done elsewhere.
 Leave Link  702 at Fri Oct 18 03:23:13 2019, MaxMem=   104857600 cpu:               1.1 elap:               0.1
 (Enter /share/home/wli/program/opt/Chem_soft/g16/l703.exe)
 Integral derivatives from FoFJK, PRISM(SPDF).
 Compute integral first derivatives, UseDBF=F ICtDFT=           0.
 Calling FoFJK, ICntrl=      2147 FMM=F ISym2X=0 I1Cent= 0 IOpClX= 0 NMat=1 NMatS=1 NMatT=0.
 FoFJK:  IHMeth= 1 ICntrl=    2147 DoSepK=F KAlg= 0 I1Cent=           0 FoldK=F
 IRaf=         0 NMat=       1 IRICut=       1 DoRegI=T DoRafI=F ISym2E= 0 IDoP0=0 IntGTp=1.
 FoFCou: FMM=F IPFlag=           0 FMFlag=      100000 FMFlg1=         800
         NFxFlg=           0 DoJE=F BraDBF=F KetDBF=F FulRan=T
         wScrn=  0.000000 ICntrl=      2147 IOpCl=  0 I1Cent=           0 NGrid=           0
         NMat0=    1 NMatS0=      1 NMatT0=    0 NMatD0=    1 NMtDS0=    0 NMtDT0=    0
 Symmetry not used in FoFCou.
 Leave Link  703 at Fri Oct 18 03:23:14 2019, MaxMem=   104857600 cpu:              22.5 elap:               1.0
 (Enter /share/home/wli/program/opt/Chem_soft/g16/l716.exe)
 Dipole        = 1.30367953D+00-3.91549920D-05 8.44261483D-04
 Polarizability= 0.00000000D+00 0.00000000D+00 0.00000000D+00
                 0.00000000D+00 0.00000000D+00 0.00000000D+00
 -------------------------------------------------------------------
 Center     Atomic                   Forces (Hartrees/Bohr)
 Number     Number              X              Y              Z
 -------------------------------------------------------------------
      1        6          -0.006088650    0.000003723   -0.000005196
      2        1          -0.000025551   -0.000431461    0.000278957
      3        1          -0.000032125    0.000456291    0.000230191
      4        1          -0.000036693   -0.000028174   -0.000506959
      5       17           0.003156363   -0.000000957   -0.000000485
      6       35           0.003026656    0.000000578    0.000003493
 -------------------------------------------------------------------
 Cartesian Forces:  Max     0.006088650 RMS     0.001779216
 Z-matrix is all fixed cartesians, so copy forces.
 Leave Link  716 at Fri Oct 18 03:23:14 2019, MaxMem=   104857600 cpu:               1.4 elap:               0.1
 (Enter /share/home/wli/program/opt/Chem_soft/g16/l123.exe)
 IRC-IRC-IRC-IRC-IRC-IRC-IRC-IRC-IRC-IRC-IRC-IRC-IRC-IRC-IRC-IRC-IRC-IRC
 Pt  1 Step number   1 out of a maximum of  20
 Using modified Bulirsch-Stoer corrector integration.
   Using distance weighted interpolants to fit PES.
 PreDWI: IReCr0= 2 IReCr1= 1 IReCr2= 1 IReCr3= 1
 Modified Bulirsch-Stoer Extrapolation Cycles:
    EPS =    0.000010000000000
    Cycle     1 NS=    48
      PEZero:  N= 2 I= 1 D=  9.24D-04 Err=  2.69D-03
    Cycle     2 NS=    64 Truncation Error =  0.002690342
      PEZero:  N= 3 I= 2 D=  9.24D-04 Err=  1.76D-03
      PEZero:  N= 3 I= 1 D=  1.85D-03 Err=  5.27D-05
    Cycle     3 NS=    96 Truncation Error =  0.000052690
      PEZero:  N= 4 I= 3 D=  4.62D-04 Err=  1.31D-03
      PEZero:  N= 4 I= 2 D=  1.39D-03 Err=  9.54D-06
      PEZero:  N= 4 I= 1 D=  2.31D-03 Err=  2.02D-05
    Cycle     4 NS=   128 Truncation Error =  0.000009544
 BS completed in    4 cycles and     336 integration steps.
 Maximum DWI energy   std dev =  0.000001161 at pt    48
 Maximum DWI gradient std dev =  0.255721497 at pt     2
 SUMMARY OF CORRECTOR INTEGRATION:
   Predictor End Point Energy = -3074.473377
   Old End Point Energy       = -3074.473377
   Corrected End Point Energy = -3074.473378
   Predictor End-Start Dist.  =     0.354781
   Old End-Start Dist.        =     0.354781
   New End-Start Dist.        =     0.354734
   New End-Old End Dist.      =     0.003720
 CORRECTOR INTEGRATION CONVERGENCE:
   Recorrection delta-x convergence threshold:    0.010000
   Delta-x Convergence Met
 Point Number:   1          Path Number:   1
                    CURRENT STRUCTURE
                Cartesian Coordinates (Ang):                
 ---------------------------------------------------------------------
 Center     Atomic                     Coordinates (Angstroms)
 Number     Number                        X           Y           Z
 ---------------------------------------------------------------------
      1          6                   -0.895805    0.000008    0.000993
      2          1                   -0.879683    0.899251   -0.579114
      3          1                   -0.879763   -0.952061   -0.487610
      4          1                   -0.879872    0.052863    1.069850
      5         17                   -3.242701   -0.000003   -0.000228
      6         35                    1.606754   -0.000001   -0.000090
 ---------------------------------------------------------------------
   CHANGE IN THE REACTION COORDINATE =    0.35473
   NET REACTION COORDINATE UP TO THIS POINT =    0.35473
  # OF POINTS ALONG THE PATH =   1
  # OF STEPS =   1

 Calculating another point on the path.
 Point Number  2 in FORWARD path direction.
 Using LQA Reaction Path Following.
   LQA: T_Est iteration completed in    3 iterations.
 IRC-IRC-IRC-IRC-IRC-IRC-IRC-IRC-IRC-IRC-IRC-IRC-IRC-IRC-IRC-IRC-IRC-IRC
 Leave Link  123 at Fri Oct 18 03:23:17 2019, MaxMem=   104857600 cpu:              55.4 elap:               2.5
 (Enter /share/home/wli/program/opt/Chem_soft/g16/l202.exe)
                          Input orientation:                          
 ---------------------------------------------------------------------
 Center     Atomic      Atomic             Coordinates (Angstroms)
 Number     Number       Type             X           Y           Z
 ---------------------------------------------------------------------
      1          6           0       -0.946649    0.000013    0.000979
      2          1           0       -0.885596    0.899545   -0.579122
      3          1           0       -0.885691   -0.952190   -0.487884
      4          1           0       -0.885942    0.052735    1.070080
      5         17           0       -3.233622   -0.000003   -0.000230
      6         35           0        1.610669   -0.000002   -0.000086
 ---------------------------------------------------------------------
                    Distance matrix (angstroms):
                    1          2          3          4          5
     1  C    0.000000
     2  H    1.072101   0.000000
     3  H    1.072097   1.853981   0.000000
     4  H    1.072121   1.853902   1.853948   0.000000
     5  Cl   2.286973   2.580219   2.580164   2.580687   0.000000
     6  Br   2.557319   2.715844   2.715957   2.716819   4.844292
                    6
     6  Br   0.000000
 Symmetry turned off by external request.
 Stoichiometry    CH3BrCl(1-)
 Framework group  C1[X(CH3BrCl)]
 Deg. of freedom    12
 Full point group                 C1      NOp   1
 Rotational constants (GHZ):         145.8937800           0.8635454           0.8635452
 Leave Link  202 at Fri Oct 18 03:23:17 2019, MaxMem=   104857600 cpu:               1.8 elap:               0.1
 (Enter /share/home/wli/program/opt/Chem_soft/g16/l301.exe)
 Standard basis: def2TZVP (5D, 7F)
 Ernie: Thresh=  0.10000D-02 Tol=  0.10000D-05 Strict=F.
   134 basis functions,   258 primitive gaussians,   151 cartesian basis functions
    31 alpha electrons       31 beta electrons
       nuclear repulsion energy       172.7085078805 Hartrees.
 IExCor=  402 DFT=T Ex+Corr=B3LYP ExCW=0 ScaHFX=  0.200000
 ScaDFX=  0.800000  0.720000  1.000000  0.810000 ScalE2=  1.000000  1.000000
 IRadAn=      5 IRanWt=     -1 IRanGd=            0 ICorTp=0 IEmpDi=141
 NAtoms=    6 NActive=    6 NUniq=    6 SFac= 1.00D+00 NAtFMM=   60 NAOKFM=F Big=F
 Integral buffers will be    131072 words long.
 Raffenetti 2 integral format.
 Two-electron integral symmetry is turned off.
 R6Disp:  Grimme-D3(BJ) Dispersion energy=       -0.0069827875 Hartrees.
 Nuclear repulsion after empirical dispersion term =      172.7015250930 Hartrees.
 Force inversion solution in PCM.
 ------------------------------------------------------------------------------
 Polarizable Continuum Model (PCM)
 =================================
 Model                : C-PCM.
 Atomic radii         : UFF (Universal Force Field).
 Polarization charges : Total charges.
 Charge compensation  : None.
 Solution method      : Matrix inversion.
 Cavity type          : Scaled VdW (van der Waals Surface) (Alpha=1.100).
 Cavity algorithm     : GePol (No added spheres)
                        Default sphere list used, NSphG=    6.
                        Lebedev-Laikov grids with approx.  5.0 points / Ang**2.
                        Smoothing algorithm: York/Karplus (Gamma=1.0000).
                        Polarization charges: spherical gaussians, with
                                              point-specific exponents (IZeta= 3).
                        Self-potential: point-specific (ISelfS= 7).
                        Self-field    : sphere-specific E.n sum rule (ISelfD= 2).
 1st derivatives      : Analytical E(r).r(x)/FMM algorithm (CHGder, D1EAlg=3).
                        Cavity 1st derivative terms included.
 Solvent              : Benzene, Eps=   2.270600 Eps(inf)=   2.253301
 ------------------------------------------------------------------------------
 Spheres list:
 ISph  on   Nord     Re0    Alpha      Xe            Ye            Ze
    1   C      1    1.9255  1.100     -0.946649      0.000013      0.000979
    2   H      2    1.4430  1.100     -0.885596      0.899545     -0.579122
    3   H      3    1.4430  1.100     -0.885691     -0.952190     -0.487884
    4   H      4    1.4430  1.100     -0.885942      0.052735      1.070080
    5  Cl      5    1.9735  1.100     -3.233622     -0.000003     -0.000230
    6  Br      6    2.0945  1.100      1.610669     -0.000002     -0.000086
 ------------------------------------------------------------------------------
 GePol: Number of generator spheres                  =       6
 GePol: Total number of spheres                      =       6
 GePol: Number of exposed spheres                    =       6 (100.00%)
 GePol: Number of points                             =     884
 GePol: Average weight of points                     =       0.15
 GePol: Minimum weight of points                     =   0.16D-09
 GePol: Maximum weight of points                     =    0.21616
 GePol: Number of points with low weight             =      39
 GePol: Fraction of low-weight points (<1% of avg)   =       4.41%
 GePol: Cavity surface area                          =    136.013 Ang**2
 GePol: Cavity volume                                =    119.606 Ang**3
 Leave Link  301 at Fri Oct 18 03:23:17 2019, MaxMem=   104857600 cpu:               1.6 elap:               0.1
 (Enter /share/home/wli/program/opt/Chem_soft/g16/l302.exe)
 NPDir=0 NMtPBC=     1 NCelOv=     1 NCel=       1 NClECP=     1 NCelD=      1
         NCelK=      1 NCelE2=     1 NClLst=     1 CellRange=     0.0.
 One-electron integrals computed using PRISM.
 PrsmSu:  requested number of processors reduced to:  13 ShMem   1 Linda.
   1 Symmetry operations used in ECPInt.
 ECPInt:  NShTT=    1378 NPrTT=    5593 LenC2=    1324 LenP2D=    4254.
 LDataN:  DoStor=T MaxTD1= 6 Len=  172
 NBasis=   134 RedAO= T EigKep=  1.43D-03  NBF=   134
 NBsUse=   134 1.00D-06 EigRej= -1.00D+00 NBFU=   134
 Precomputing XC quadrature grid using
 IXCGrd= 4 IRadAn=           5 IRanWt=          -1 IRanGd=           0 AccXCQ= 0.00D+00.
 Generated NRdTot=       0 NPtTot=           0 NUsed=           0 NTot=          32
 NSgBfM=   150   150   150   150   150 MxSgAt=     6 MxSgA2=     6.
 Leave Link  302 at Fri Oct 18 03:23:17 2019, MaxMem=   104857600 cpu:               7.1 elap:               0.3
 (Enter /share/home/wli/program/opt/Chem_soft/g16/l303.exe)
 DipDrv:  MaxL=1.
 Leave Link  303 at Fri Oct 18 03:23:17 2019, MaxMem=   104857600 cpu:               2.0 elap:               0.1
 (Enter /share/home/wli/program/opt/Chem_soft/g16/l401.exe)
 Initial guess from the checkpoint file:  "irc_cpcm_benzene.chk"
 B after Tr=    -0.000968    0.000000   -0.000001
         Rot=    1.000000   -0.000122    0.000003    0.000000 Ang=  -0.01 deg.
 Guess basis will be translated and rotated to current coordinates.
 JPrj=2 DoOrth=T DoCkMO=T.
 Generating alternative initial guess.
 ExpMin= 9.52D-02 ExpMax= 5.65D+05 ExpMxC= 5.46D+03 IAcc=2 IRadAn=         4 AccDes= 0.00D+00
 Harris functional with IExCor=  402 and IRadAn=       4 diagonalized for initial guess.
 HarFok:  IExCor=  402 AccDes= 0.00D+00 IRadAn=         4 IDoV= 1 UseB2=F ITyADJ=14
 ICtDFT=  3500011 ScaDFX=  1.000000  1.000000  1.000000  1.000000
 FoFCou: FMM=F IPFlag=           0 FMFlag=      100000 FMFlg1=           0
         NFxFlg=           0 DoJE=T BraDBF=F KetDBF=T FulRan=T
         wScrn=  0.000000 ICntrl=       500 IOpCl=  0 I1Cent=   200000004 NGrid=           0
         NMat0=    1 NMatS0=      1 NMatT0=    0 NMatD0=    1 NMtDS0=    0 NMtDT0=    0
 Symmetry not used in FoFCou.
 Harris En= -3074.58173802529    
 Leave Link  401 at Fri Oct 18 03:23:18 2019, MaxMem=   104857600 cpu:              11.3 elap:               0.5
 (Enter /share/home/wli/program/opt/Chem_soft/g16/l502.exe)
 Keep R1 ints in memory in canonical form, NReq=64314760.
 FoFCou: FMM=F IPFlag=           0 FMFlag=           0 FMFlg1=           0
         NFxFlg=           0 DoJE=F BraDBF=F KetDBF=F FulRan=T
         wScrn=  0.000000 ICntrl=       600 IOpCl=  0 I1Cent=           0 NGrid=           0
         NMat0=    1 NMatS0=   9045 NMatT0=    0 NMatD0=    1 NMtDS0=    0 NMtDT0=    0
 Symmetry not used in FoFCou.
 Two-electron integral symmetry not used.
 Closed shell SCF:
 Using DIIS extrapolation, IDIIS=  1040.
 NGot=   104857600 LenX=    63896738 LenY=    63873496
 Requested convergence on RMS density matrix=1.00D-08 within 128 cycles.
 Requested convergence on MAX density matrix=1.00D-06.
 Requested convergence on             energy=1.00D-06.
 No special actions if energy rises.

 Cycle   1  Pass 1  IDiag  1:
 Inv3:  Mode=1 IEnd=     2344368.
 Iteration    1 A*A^-1 deviation from unit magnitude is 3.33D-15 for    219.
 Iteration    1 A*A^-1 deviation from orthogonality  is 1.39D-15 for    240     84.
 Iteration    1 A^-1*A deviation from unit magnitude is 3.44D-15 for    876.
 Iteration    1 A^-1*A deviation from orthogonality  is 1.16D-15 for    546    205.
 E= -3074.47324428322    
 DIIS: error= 2.67D-03 at cycle   1 NSaved=   1.
 NSaved= 1 IEnMin= 1 EnMin= -3074.47324428322     IErMin= 1 ErrMin= 2.67D-03
 ErrMax= 2.67D-03  0.00D+00 EMaxC= 1.00D-01 BMatC= 5.77D-04 BMatP= 5.77D-04
 IDIUse=3 WtCom= 9.73D-01 WtEn= 2.67D-02
 Coeff-Com:  0.100D+01
 Coeff-En:   0.100D+01
 Coeff:      0.100D+01
 Gap=     0.629 Goal=   None    Shift=    0.000
 GapD=    0.629 DampG=2.000 DampE=1.000 DampFc=2.0000 IDamp=-1.
 RMSDP=3.54D-04 MaxDP=7.14D-03              OVMax= 3.47D-02

 Cycle   2  Pass 1  IDiag  1:
 E= -3074.47426014763     Delta-E=       -0.001015864411 Rises=F Damp=F
 DIIS: error= 5.52D-04 at cycle   2 NSaved=   2.
 NSaved= 2 IEnMin= 2 EnMin= -3074.47426014763     IErMin= 2 ErrMin= 5.52D-04
 ErrMax= 5.52D-04  0.00D+00 EMaxC= 1.00D-01 BMatC= 7.50D-05 BMatP= 5.77D-04
 IDIUse=3 WtCom= 9.94D-01 WtEn= 5.52D-03
 Coeff-Com:  0.838D-01 0.916D+00
 Coeff-En:   0.000D+00 0.100D+01
 Coeff:      0.834D-01 0.917D+00
 Gap=     0.197 Goal=   None    Shift=    0.000
 RMSDP=1.93D-04 MaxDP=4.59D-03 DE=-1.02D-03 OVMax= 1.19D-02

 Cycle   3  Pass 1  IDiag  1:
 E= -3074.47423135700     Delta-E=        0.000028790625 Rises=F Damp=F
 DIIS: error= 8.14D-04 at cycle   3 NSaved=   3.
 NSaved= 3 IEnMin= 2 EnMin= -3074.47426014763     IErMin= 2 ErrMin= 5.52D-04
 ErrMax= 8.14D-04  0.00D+00 EMaxC= 1.00D-01 BMatC= 1.23D-04 BMatP= 7.50D-05
 IDIUse=3 WtCom= 2.60D-01 WtEn= 7.40D-01
 Coeff-Com: -0.206D-01 0.578D+00 0.442D+00
 Coeff-En:   0.000D+00 0.554D+00 0.446D+00
 Coeff:     -0.533D-02 0.561D+00 0.445D+00
 Gap=     0.198 Goal=   None    Shift=    0.000
 RMSDP=9.41D-05 MaxDP=2.68D-03 DE= 2.88D-05 OVMax= 7.87D-03

 Cycle   4  Pass 1  IDiag  1:
 E= -3074.47437008561     Delta-E=       -0.000138728602 Rises=F Damp=F
 DIIS: error= 7.95D-05 at cycle   4 NSaved=   4.
 NSaved= 4 IEnMin= 4 EnMin= -3074.47437008561     IErMin= 4 ErrMin= 7.95D-05
 ErrMax= 7.95D-05  0.00D+00 EMaxC= 1.00D-01 BMatC= 1.13D-06 BMatP= 7.50D-05
 IDIUse=1 WtCom= 1.00D+00 WtEn= 0.00D+00
 Coeff-Com: -0.124D-01 0.145D+00 0.135D+00 0.733D+00
 Coeff:     -0.124D-01 0.145D+00 0.135D+00 0.733D+00
 Gap=     0.198 Goal=   None    Shift=    0.000
 RMSDP=6.22D-06 MaxDP=1.30D-04 DE=-1.39D-04 OVMax= 5.83D-04

 Cycle   5  Pass 1  IDiag  1:
 E= -3074.47437061156     Delta-E=       -0.000000525953 Rises=F Damp=F
 DIIS: error= 1.66D-05 at cycle   5 NSaved=   5.
 NSaved= 5 IEnMin= 5 EnMin= -3074.47437061156     IErMin= 5 ErrMin= 1.66D-05
 ErrMax= 1.66D-05  0.00D+00 EMaxC= 1.00D-01 BMatC= 5.95D-08 BMatP= 1.13D-06
 IDIUse=1 WtCom= 1.00D+00 WtEn= 0.00D+00
 Coeff-Com: -0.185D-02 0.639D-04 0.162D-01 0.143D+00 0.843D+00
 Coeff:     -0.185D-02 0.639D-04 0.162D-01 0.143D+00 0.843D+00
 Gap=     0.198 Goal=   None    Shift=    0.000
 RMSDP=2.55D-06 MaxDP=5.22D-05 DE=-5.26D-07 OVMax= 1.43D-04

 Cycle   6  Pass 1  IDiag  1:
 E= -3074.47437065608     Delta-E=       -0.000000044524 Rises=F Damp=F
 DIIS: error= 1.58D-05 at cycle   6 NSaved=   6.
 NSaved= 6 IEnMin= 6 EnMin= -3074.47437065608     IErMin= 6 ErrMin= 1.58D-05
 ErrMax= 1.58D-05  0.00D+00 EMaxC= 1.00D-01 BMatC= 2.18D-08 BMatP= 5.95D-08
 IDIUse=1 WtCom= 1.00D+00 WtEn= 0.00D+00
 Coeff-Com: -0.375D-03-0.799D-02 0.339D-02 0.434D-01 0.464D+00 0.497D+00
 Coeff:     -0.375D-03-0.799D-02 0.339D-02 0.434D-01 0.464D+00 0.497D+00
 Gap=     0.198 Goal=   None    Shift=    0.000
 RMSDP=9.35D-07 MaxDP=2.20D-05 DE=-4.45D-08 OVMax= 9.91D-05

 Cycle   7  Pass 1  IDiag  1:
 E= -3074.47437067946     Delta-E=       -0.000000023374 Rises=F Damp=F
 DIIS: error= 3.69D-06 at cycle   7 NSaved=   7.
 NSaved= 7 IEnMin= 7 EnMin= -3074.47437067946     IErMin= 7 ErrMin= 3.69D-06
 ErrMax= 3.69D-06  0.00D+00 EMaxC= 1.00D-01 BMatC= 1.93D-09 BMatP= 2.18D-08
 IDIUse=1 WtCom= 1.00D+00 WtEn= 0.00D+00
 Coeff-Com:  0.104D-03-0.557D-02-0.427D-03 0.406D-02 0.153D+00 0.265D+00
 Coeff-Com:  0.584D+00
 Coeff:      0.104D-03-0.557D-02-0.427D-03 0.406D-02 0.153D+00 0.265D+00
 Coeff:      0.584D+00
 Gap=     0.198 Goal=   None    Shift=    0.000
 RMSDP=2.66D-07 MaxDP=5.71D-06 DE=-2.34D-08 OVMax= 2.09D-05

 Cycle   8  Pass 1  IDiag  1:
 E= -3074.47437068120     Delta-E=       -0.000000001743 Rises=F Damp=F
 DIIS: error= 4.47D-07 at cycle   8 NSaved=   8.
 NSaved= 8 IEnMin= 8 EnMin= -3074.47437068120     IErMin= 8 ErrMin= 4.47D-07
 ErrMax= 4.47D-07  0.00D+00 EMaxC= 1.00D-01 BMatC= 3.19D-11 BMatP= 1.93D-09
 IDIUse=1 WtCom= 1.00D+00 WtEn= 0.00D+00
 Coeff-Com:  0.355D-04-0.116D-02-0.518D-04 0.601D-03 0.178D-01 0.465D-01
 Coeff-Com:  0.160D+00 0.776D+00
 Coeff:      0.355D-04-0.116D-02-0.518D-04 0.601D-03 0.178D-01 0.465D-01
[...]
      PEZero:  N=10 I= 6 D=  1.04D-03 Err=  3.39D-02
    Cycle    10 NS=  1024 Truncation Error =  0.022104712
      PEZero:  N=11 I=10 D=  1.15D-04 Err=  1.39D-03
      PEZero:  N=11 I= 9 D=  2.30D-04 Err=  4.10D-02
    Cycle    11 NS=  1536 Truncation Error =  0.001391647
 Maximum DWI energy   std dev =  0.000000102 at pt   161
 Maximum DWI gradient std dev =  0.475988939 at pt   932
 WARNING: Bulirsch-Stoer Method is not Converging
 SUMMARY OF CORRECTOR INTEGRATION:
   Predictor End Point Energy = -3074.484735
   Old End Point Energy       = -3074.484735
   Corrected End Point Energy = -3074.484735
   Predictor End-Start Dist.  =     0.353787
   Old End-Start Dist.        =     0.353521
   New End-Start Dist.        =     0.353521
   New End-Old End Dist.      =     0.000007
 CORRECTOR INTEGRATION CONVERGENCE:
   Recorrection delta-x convergence threshold:    0.010000
   Delta-x Convergence NOT Met
 IRC-IRC-IRC-IRC-IRC-IRC-IRC-IRC-IRC-IRC-IRC-IRC-IRC-IRC-IRC-IRC-IRC-IRC
 Leave Link  123 at Fri Oct 18 03:36:54 2019, MaxMem=   104857600 cpu:             102.7 elap:               5.2
 (Enter /share/home/wli/program/opt/Chem_soft/g16/l202.exe)
                          Input orientation:                          
 ---------------------------------------------------------------------
 Center     Atomic      Atomic             Coordinates (Angstroms)
 Number     Number       Type             X           Y           Z
 ---------------------------------------------------------------------
      1          6           0       -0.348409    0.001520   -0.005062
      2          1           0       -0.664388    0.878310   -0.551439
      3          1           0       -0.666093   -0.908834   -0.492332
      4          1           0       -0.669347    0.035832    1.025898
      5         17           0       -3.543211   -0.000238    0.001955
      6         35           0        1.648870   -0.000194    0.000126
 ---------------------------------------------------------------------
                    Distance matrix (angstroms):
                    1          2          3          4          5
     1  C    0.000000
     2  H    1.080338   0.000000
     3  H    1.080324   1.788122   0.000000
     4  H    1.080304   1.788235   1.788135   0.000000
     5  Cl   3.194811   3.060345   3.057397   3.051042   0.000000
     6  Br   1.997286   2.535184   2.535192   2.535278   5.192082
                    6
     6  Br   0.000000
 Symmetry turned off by external request.
 Stoichiometry    CH3BrCl(1-)
 Framework group  C1[X(CH3BrCl)]
 Deg. of freedom    12
 Full point group                 C1      NOp   1
 Rotational constants (GHZ):         156.8004486           0.7680724           0.7680715
 Leave Link  202 at Fri Oct 18 03:36:54 2019, MaxMem=   104857600 cpu:               1.8 elap:               0.1
 (Enter /share/home/wli/program/opt/Chem_soft/g16/l301.exe)
 Standard basis: def2TZVP (5D, 7F)
 Ernie: Thresh=  0.10000D-02 Tol=  0.10000D-05 Strict=F.
   134 basis functions,   258 primitive gaussians,   151 cartesian basis functions
    31 alpha electrons       31 beta electrons
       nuclear repulsion energy       173.6283560155 Hartrees.
 IExCor=  402 DFT=T Ex+Corr=B3LYP ExCW=0 ScaHFX=  0.200000
 ScaDFX=  0.800000  0.720000  1.000000  0.810000 ScalE2=  1.000000  1.000000
 IRadAn=      5 IRanWt=     -1 IRanGd=            0 ICorTp=0 IEmpDi=141
 NAtoms=    6 NActive=    6 NUniq=    6 SFac= 1.00D+00 NAtFMM=   60 NAOKFM=F Big=F
 Integral buffers will be    131072 words long.
 Raffenetti 2 integral format.
 Two-electron integral symmetry is turned off.
 R6Disp:  Grimme-D3(BJ) Dispersion energy=       -0.0064164206 Hartrees.
 Nuclear repulsion after empirical dispersion term =      173.6219395949 Hartrees.
 Force inversion solution in PCM.
 ------------------------------------------------------------------------------
 Polarizable Continuum Model (PCM)
 =================================
 Model                : C-PCM.
 Atomic radii         : UFF (Universal Force Field).
 Polarization charges : Total charges.
 Charge compensation  : None.
 Solution method      : Matrix inversion.
 Cavity type          : Scaled VdW (van der Waals Surface) (Alpha=1.100).
 Cavity algorithm     : GePol (No added spheres)
                        Default sphere list used, NSphG=    6.
                        Lebedev-Laikov grids with approx.  5.0 points / Ang**2.
                        Smoothing algorithm: York/Karplus (Gamma=1.0000).
                        Polarization charges: spherical gaussians, with
                                              point-specific exponents (IZeta= 3).
                        Self-potential: point-specific (ISelfS= 7).
                        Self-field    : sphere-specific E.n sum rule (ISelfD= 2).
 1st derivatives      : Analytical E(r).r(x)/FMM algorithm (CHGder, D1EAlg=3).
                        Cavity 1st derivative terms included.
 Solvent              : Benzene, Eps=   2.270600 Eps(inf)=   2.253301
 ------------------------------------------------------------------------------
 Spheres list:
 ISph  on   Nord     Re0    Alpha      Xe            Ye            Ze
    1   C      1    1.9255  1.100     -0.348409      0.001520     -0.005062
    2   H      2    1.4430  1.100     -0.664388      0.878310     -0.551439
    3   H      3    1.4430  1.100     -0.666093     -0.908834     -0.492332
    4   H      4    1.4430  1.100     -0.669347      0.035832      1.025898
    5  Cl      5    1.9735  1.100     -3.543211     -0.000238      0.001955
    6  Br      6    2.0945  1.100      1.648870     -0.000194      0.000126
 ------------------------------------------------------------------------------
 GePol: Number of generator spheres                  =       6
 GePol: Total number of spheres                      =       6
 GePol: Number of exposed spheres                    =       6 (100.00%)
 GePol: Number of points                             =     901
 GePol: Average weight of points                     =       0.16
 GePol: Minimum weight of points                     =   0.16D-07
 GePol: Maximum weight of points                     =    0.21616
 GePol: Number of points with low weight             =      21
 GePol: Fraction of low-weight points (<1% of avg)   =       2.33%
 GePol: Cavity surface area                          =    141.362 Ang**2
 GePol: Cavity volume                                =    121.723 Ang**3
 Leave Link  301 at Fri Oct 18 03:36:54 2019, MaxMem=   104857600 cpu:               2.9 elap:               0.1
 (Enter /share/home/wli/program/opt/Chem_soft/g16/l302.exe)
 NPDir=0 NMtPBC=     1 NCelOv=     1 NCel=       1 NClECP=     1 NCelD=      1
         NCelK=      1 NCelE2=     1 NClLst=     1 CellRange=     0.0.
 One-electron integrals computed using PRISM.
 PrsmSu:  requested number of processors reduced to:  13 ShMem   1 Linda.
   1 Symmetry operations used in ECPInt.
 ECPInt:  NShTT=    1378 NPrTT=    5593 LenC2=    1311 LenP2D=    4194.
 LDataN:  DoStor=T MaxTD1= 6 Len=  172
 NBasis=   134 RedAO= T EigKep=  1.61D-03  NBF=   134
 NBsUse=   134 1.00D-06 EigRej= -1.00D+00 NBFU=   134
 Precomputing XC quadrature grid using
 IXCGrd= 4 IRadAn=           5 IRanWt=          -1 IRanGd=           0 AccXCQ= 0.00D+00.
 Generated NRdTot=       0 NPtTot=           0 NUsed=           0 NTot=          32
 NSgBfM=   150   150   150   150   150 MxSgAt=     6 MxSgA2=     6.
 Leave Link  302 at Fri Oct 18 03:36:55 2019, MaxMem=   104857600 cpu:               7.1 elap:               0.3
 (Enter /share/home/wli/program/opt/Chem_soft/g16/l303.exe)
 DipDrv:  MaxL=1.
 Leave Link  303 at Fri Oct 18 03:36:55 2019, MaxMem=   104857600 cpu:               2.3 elap:               0.1
 (Enter /share/home/wli/program/opt/Chem_soft/g16/l401.exe)
 Initial guess from the checkpoint file:  "irc_cpcm_benzene.chk"
 B after Tr=    -0.000000    0.000000    0.000000
         Rot=    1.000000   -0.000001    0.000000    0.000000 Ang=  -0.00 deg.
 Guess basis will be translated and rotated to current coordinates.
 JPrj=2 DoOrth=T DoCkMO=T.
 Generating alternative initial guess.
 ExpMin= 9.52D-02 ExpMax= 5.65D+05 ExpMxC= 5.46D+03 IAcc=2 IRadAn=         4 AccDes= 0.00D+00
 Harris functional with IExCor=  402 and IRadAn=       4 diagonalized for initial guess.
 HarFok:  IExCor=  402 AccDes= 0.00D+00 IRadAn=         4 IDoV= 1 UseB2=F ITyADJ=14
 ICtDFT=  3500011 ScaDFX=  1.000000  1.000000  1.000000  1.000000
 FoFCou: FMM=F IPFlag=           0 FMFlag=      100000 FMFlg1=           0
         NFxFlg=           0 DoJE=T BraDBF=F KetDBF=T FulRan=T
         wScrn=  0.000000 ICntrl=       500 IOpCl=  0 I1Cent=   200000004 NGrid=           0
         NMat0=    1 NMatS0=      1 NMatT0=    0 NMatD0=    1 NMtDS0=    0 NMtDT0=    0
 Symmetry not used in FoFCou.
 Harris En= -3074.57101221632    
 Leave Link  401 at Fri Oct 18 03:36:56 2019, MaxMem=   104857600 cpu:              27.7 elap:               1.2
 (Enter /share/home/wli/program/opt/Chem_soft/g16/l502.exe)
 Keep R1 ints in memory in canonical form, NReq=64314760.
 FoFCou: FMM=F IPFlag=           0 FMFlag=           0 FMFlg1=           0
         NFxFlg=           0 DoJE=F BraDBF=F KetDBF=F FulRan=T
         wScrn=  0.000000 ICntrl=       600 IOpCl=  0 I1Cent=           0 NGrid=           0
         NMat0=    1 NMatS0=   9045 NMatT0=    0 NMatD0=    1 NMtDS0=    0 NMtDT0=    0
 Symmetry not used in FoFCou.
 Two-electron integral symmetry not used.
 Closed shell SCF:
 Using DIIS extrapolation, IDIIS=  1040.
 NGot=   104857600 LenX=    63896738 LenY=    63873496
 Requested convergence on RMS density matrix=1.00D-08 within 128 cycles.
 Requested convergence on MAX density matrix=1.00D-06.
 Requested convergence on             energy=1.00D-06.
 No special actions if energy rises.

 Cycle   1  Pass 1  IDiag  1:
 Inv3:  Mode=1 IEnd=     2435403.
 Iteration    1 A*A^-1 deviation from unit magnitude is 4.66D-15 for    888.
 Iteration    1 A*A^-1 deviation from orthogonality  is 2.61D-15 for    432    255.
 Iteration    1 A^-1*A deviation from unit magnitude is 4.44D-15 for    888.
 Iteration    1 A^-1*A deviation from orthogonality  is 1.50D-15 for    753     75.
 E= -3074.48473495684    
 DIIS: error= 1.37D-07 at cycle   1 NSaved=   1.
 NSaved= 1 IEnMin= 1 EnMin= -3074.48473495684     IErMin= 1 ErrMin= 1.37D-07
 ErrMax= 1.37D-07  0.00D+00 EMaxC= 1.00D-01 BMatC= 1.32D-12 BMatP= 1.32D-12
 IDIUse=1 WtCom= 1.00D+00 WtEn= 0.00D+00
 Coeff-Com:  0.100D+01
 Coeff:      0.100D+01
 Gap=     0.597 Goal=   None    Shift=    0.000
 RMSDP=1.31D-08 MaxDP=3.19D-07              OVMax= 1.05D-06

 Cycle   2  Pass 1  IDiag  1:
 E= -3074.48473495684     Delta-E=       -0.000000000004 Rises=F Damp=F
 DIIS: error= 1.93D-07 at cycle   2 NSaved=   2.
 NSaved= 2 IEnMin= 2 EnMin= -3074.48473495684     IErMin= 1 ErrMin= 1.37D-07
 ErrMax= 1.93D-07  0.00D+00 EMaxC= 1.00D-01 BMatC= 2.66D-12 BMatP= 1.32D-12
 IDIUse=1 WtCom= 1.00D+00 WtEn= 0.00D+00
 Coeff-Com:  0.590D+00 0.410D+00
 Coeff:      0.590D+00 0.410D+00
 Gap=     0.193 Goal=   None    Shift=    0.000
 RMSDP=8.11D-09 MaxDP=2.21D-07 DE=-3.64D-12 OVMax= 7.57D-07

 Error on total polarization charges =  0.01191
 SCF Done:  E(RB3LYP) =  -3074.48473496     A.U. after    2 cycles
            NFock=  2  Conv=0.81D-08     -V/T= 2.0015
 KE= 3.069820247721D+03 PE=-7.698599089446D+03 EE= 1.380672167173D+03
 Leave Link  502 at Fri Oct 18 03:36:58 2019, MaxMem=   104857600 cpu:              44.0 elap:               2.1
 (Enter /share/home/wli/program/opt/Chem_soft/g16/l801.exe)
 DoSCS=F DFT=T ScalE2(SS,OS)=  1.000000  1.000000
 Range of M.O.s used for correlation:     1   134
 NBasis=   134 NAE=    31 NBE=    31 NFC=     0 NFV=     0
 NROrb=    134 NOA=    31 NOB=    31 NVA=   103 NVB=   103
 Leave Link  801 at Fri Oct 18 03:36:58 2019, MaxMem=   104857600 cpu:               1.1 elap:               0.1
 (Enter /share/home/wli/program/opt/Chem_soft/g16/l1101.exe)
 Leave Link 1101 at Fri Oct 18 03:36:58 2019, MaxMem=   104857600 cpu:               1.4 elap:               0.1
 (Enter /share/home/wli/program/opt/Chem_soft/g16/l1102.exe)
 Symmetrizing basis deriv contribution to polar:
 IMax=3 JMax=2 DiffMx= 0.00D+00
 Leave Link 1102 at Fri Oct 18 03:36:59 2019, MaxMem=   104857600 cpu:               2.5 elap:               0.1
 (Enter /share/home/wli/program/opt/Chem_soft/g16/l1110.exe)
 Leave Link 1110 at Fri Oct 18 03:36:59 2019, MaxMem=   104857600 cpu:               1.1 elap:               0.1
 (Enter /share/home/wli/program/opt/Chem_soft/g16/l1002.exe)
 Minotr:  Closed shell wavefunction.
 Leave Link 1002 at Fri Oct 18 03:36:59 2019, MaxMem=   104857600 cpu:               1.4 elap:               0.1
 (Enter /share/home/wli/program/opt/Chem_soft/g16/l701.exe)
 ... and contract with generalized density number  0.
 Compute integral first derivatives.
 R6Disp: Adding Grimme-D3(BJ) dispersion energy 1st derivatives to the gradient.
 PrsmSu:  requested number of processors reduced to:  11 ShMem   1 Linda.
   1 Symmetry operations used in ECPInt.
 ECPInt:  NShTT=    1378 NPrTT=    5593 LenC2=    1311 LenP2D=    4194.
 LDataN:  DoStor=T MaxTD1= 7 Len=  274
 D1PCM: C-PCM CHGder 1st derivatives, ID1Alg=3 FixD1E=F DoIter=F DoCFld=F I1PDM=0.
 GePol: Maximum number of non-zero 1st derivatives   =     372
 Leave Link  701 at Fri Oct 18 03:36:59 2019, MaxMem=   104857600 cpu:              10.5 elap:               0.5
 (Enter /share/home/wli/program/opt/Chem_soft/g16/l702.exe)
 L702 exits ... SP integral derivatives will be done elsewhere.
 Leave Link  702 at Fri Oct 18 03:36:59 2019, MaxMem=   104857600 cpu:               1.0 elap:               0.1
 (Enter /share/home/wli/program/opt/Chem_soft/g16/l703.exe)
 Integral derivatives from FoFJK, PRISM(SPDF).
 Compute integral first derivatives, UseDBF=F ICtDFT=           0.
 Calling FoFJK, ICntrl=      2147 FMM=F ISym2X=0 I1Cent= 0 IOpClX= 0 NMat=1 NMatS=1 NMatT=0.
 FoFJK:  IHMeth= 1 ICntrl=    2147 DoSepK=F KAlg= 0 I1Cent=           0 FoldK=F
 IRaf=         0 NMat=       1 IRICut=       1 DoRegI=T DoRafI=F ISym2E= 0 IDoP0=0 IntGTp=1.
 FoFCou: FMM=F IPFlag=           0 FMFlag=      100000 FMFlg1=         800
         NFxFlg=           0 DoJE=F BraDBF=F KetDBF=F FulRan=T
         wScrn=  0.000000 ICntrl=      2147 IOpCl=  0 I1Cent=           0 NGrid=           0
         NMat0=    1 NMatS0=      1 NMatT0=    0 NMatD0=    1 NMtDS0=    0 NMtDT0=    0
 Symmetry not used in FoFCou.
 Leave Link  703 at Fri Oct 18 03:37:00 2019, MaxMem=   104857600 cpu:              21.9 elap:               0.9
 (Enter /share/home/wli/program/opt/Chem_soft/g16/l716.exe)
 Dipole        = 5.03593817D+00 1.08854123D-03-5.38196580D-03
 Polarizability= 0.00000000D+00 0.00000000D+00 0.00000000D+00
                 0.00000000D+00 0.00000000D+00 0.00000000D+00
 -------------------------------------------------------------------
 Center     Atomic                   Forces (Hartrees/Bohr)
 Number     Number              X              Y              Z
 -------------------------------------------------------------------
      1        6           0.000036531   -0.000003966   -0.000019256
      2        1           0.000003118    0.000002986    0.000003699
      3        1           0.000003499    0.000002667   -0.000007498
      4        1           0.000002143   -0.000006860   -0.000001708
      5       17          -0.000271452    0.000000030    0.000038378
      6       35           0.000226162    0.000005143   -0.000013615
 -------------------------------------------------------------------
 Cartesian Forces:  Max     0.000271452 RMS     0.000084460
 Z-matrix is all fixed cartesians, so copy forces.
 Leave Link  716 at Fri Oct 18 03:37:00 2019, MaxMem=   104857600 cpu:               1.4 elap:               0.1
 (Enter /share/home/wli/program/opt/Chem_soft/g16/l123.exe)
 IRC-IRC-IRC-IRC-IRC-IRC-IRC-IRC-IRC-IRC-IRC-IRC-IRC-IRC-IRC-IRC-IRC-IRC
 Error in corrector energy =           0.0000000000
 Magnitude of corrector gradient =     0.0003583459
 Magnitude of analytic gradient =      0.0003583348
 Magnitude of difference =             0.0000003098
 Angle between gradients (degrees)=    0.0495
 Pt 39 Step number  20 out of a maximum of  20
 Using modified Bulirsch-Stoer corrector integration.
   Using distance weighted interpolants to fit PES.
 PreDWI: IReCr0= 2 IReCr1= 1 IReCr2= 1 IReCr3= 1
 Modified Bulirsch-Stoer Extrapolation Cycles:
    EPS =    0.000010000000000
    Cycle     1 NS=    48
      PEZero:  N= 2 I= 1 D=  1.84D-03 Err=  4.14D-03
    Cycle     2 NS=    64 Truncation Error =  0.004141784
      PEZero:  N= 3 I= 2 D=  1.84D-03 Err=  2.73D-02
      PEZero:  N= 3 I= 1 D=  3.69D-03 Err=  3.68D-02
    Cycle     3 NS=    96 Truncation Error =  0.027310900
      PEZero:  N= 4 I= 3 D=  9.21D-04 Err=  4.52D-02
      PEZero:  N= 4 I= 2 D=  2.76D-03 Err=  3.30D-02
      PEZero:  N= 4 I= 1 D=  4.61D-03 Err=  2.32D-02
    Cycle     4 NS=   128 Truncation Error =  0.023177017
      PEZero:  N= 5 I= 4 D=  9.21D-04 Err=  6.06D-02
      PEZero:  N= 5 I= 3 D=  1.84D-03 Err=  4.56D-02
      PEZero:  N= 5 I= 2 D=  3.69D-03 Err=  2.91D-02
      PEZero:  N= 5 I= 1 D=  5.53D-03 Err=  2.14D-02
    Cycle     5 NS=   192 Truncation Error =  0.021418872
      PEZero:  N= 6 I= 5 D=  4.61D-04 Err=  8.61D-02
      PEZero:  N= 6 I= 4 D=  1.38D-03 Err=  5.43D-02
      PEZero:  N= 6 I= 3 D=  2.30D-03 Err=  3.78D-02
      PEZero:  N= 6 I= 2 D=  4.15D-03 Err=  2.39D-02
      PEZero:  N= 6 I= 1 D=  5.99D-03 Err=  1.71D-02
    Cycle     6 NS=   256 Truncation Error =  0.017084519
      PEZero:  N= 7 I= 6 D=  4.61D-04 Err=  1.03D-01
      PEZero:  N= 7 I= 5 D=  9.21D-04 Err=  6.81D-02
      PEZero:  N= 7 I= 4 D=  1.84D-03 Err=  4.10D-02
      PEZero:  N= 7 I= 3 D=  2.76D-03 Err=  2.84D-02
      PEZero:  N= 7 I= 2 D=  4.61D-03 Err=  1.80D-02
      PEZero:  N= 7 I= 1 D=  6.45D-03 Err=  1.29D-02
    Cycle     7 NS=   384 Truncation Error =  0.012946302
      PEZero:  N= 8 I= 7 D=  2.30D-04 Err=  1.30D-01
      PEZero:  N= 8 I= 6 D=  6.91D-04 Err=  7.01D-02
      PEZero:  N= 8 I= 5 D=  1.15D-03 Err=  4.32D-02
      PEZero:  N= 8 I= 4 D=  2.07D-03 Err=  2.47D-02
      PEZero:  N= 8 I= 3 D=  2.99D-03 Err=  1.63D-02
      PEZero:  N= 8 I= 2 D=  4.84D-03 Err=  9.84D-03
      PEZero:  N= 8 I= 1 D=  6.68D-03 Err=  6.81D-03
    Cycle     8 NS=   512 Truncation Error =  0.006808030
      PEZero:  N= 9 I= 8 D=  2.30D-04 Err=  8.02D-02
      PEZero:  N= 9 I= 7 D=  4.61D-04 Err=  9.44D-03
      PEZero:  N= 9 I= 6 D=  9.21D-04 Err=  4.45D-02
    Cycle     9 NS=   768 Truncation Error =  0.009443987
      PEZero:  N=10 I= 9 D=  1.15D-04 Err=  4.26D-02
      PEZero:  N=10 I= 8 D=  3.45D-04 Err=  2.34D-02
      PEZero:  N=10 I= 7 D=  5.76D-04 Err=  2.24D-02
      PEZero:  N=10 I= 6 D=  1.04D-03 Err=  3.43D-02
    Cycle    10 NS=  1024 Truncation Error =  0.022434258
      PEZero:  N=11 I=10 D=  1.15D-04 Err=  1.82D-03
      PEZero:  N=11 I= 9 D=  2.30D-04 Err=  3.98D-02
    Cycle    11 NS=  1536 Truncation Error =  0.001815622
 Maximum DWI energy   std dev =  0.000000102 at pt   159
 Maximum DWI gradient std dev =  0.476364313 at pt   932
 WARNING: Bulirsch-Stoer Method is not Converging
 SUMMARY OF CORRECTOR INTEGRATION:
   Predictor End Point Energy = -3074.484735
   Old End Point Energy       = -3074.484735
   Corrected End Point Energy = -3074.484735
   Predictor End-Start Dist.  =     0.353787
   Old End-Start Dist.        =     0.353521
   New End-Start Dist.        =     0.353521
   New End-Old End Dist.      =     0.000006
 CORRECTOR INTEGRATION CONVERGENCE:
   Recorrection delta-x convergence threshold:    0.010000
   Delta-x Convergence NOT Met
 Maximum number of corrector steps exceded.
 Error termination via Lnk1e in /share/home/wli/program/opt/Chem_soft/g16/l123.exe at Fri Oct 18 03:37:08 2019.
 Job cpu time:       0 days  5 hours  3 minutes 20.8 seconds.
 Elapsed time:       0 days  0 hours 14 minutes 23.6 seconds.
 File lengths (MBytes):  RWF=    272 Int=      0 D2E=      0 Chk=     32 Scr=     32
