 Entering Gaussian System, Link 0=g16
 Input=ts_def2tzvp_scrf_cpcm_benzene.gjf
 Output=ts_def2tzvp_scrf_cpcm_benzene.log
 Initial command:
 /share/home/wli/program/opt/Chem_soft/g16/l1.exe "/scratch/wli/Gau-28389.inp" -scrdir="/scratch/wli/"
 Entering Link 1 = /share/home/wli/program/opt/Chem_soft/g16/l1.exe PID=     28390.
  
 Copyright (c) 1988,1990,1992,1993,1995,1998,2003,2009,2016,
            Gaussian, Inc.  All Rights Reserved.
  
 This is part of the Gaussian(R) 16 program.  It is based on
 the Gaussian(R) 09 system (copyright 2009, Gaussian, Inc.),
 the Gaussian(R) 03 system (copyright 2003, Gaussian, Inc.),
 the Gaussian(R) 98 system (copyright 1998, Gaussian, Inc.),
 the Gaussian(R) 94 system (copyright 1995, Gaussian, Inc.),
 the Gaussian 92(TM) system (copyright 1992, Gaussian, Inc.),
 the Gaussian 90(TM) system (copyright 1990, Gaussian, Inc.),
 the Gaussian 88(TM) system (copyright 1988, Gaussian, Inc.),
 the Gaussian 86(TM) system (copyright 1986, Carnegie Mellon
 University), and the Gaussian 82(TM) system (copyright 1983,
 Carnegie Mellon University). Gaussian is a federally registered
 trademark of Gaussian, Inc.
  
 This software contains proprietary and confidential information,
 including trade secrets, belonging to Gaussian, Inc.
  
 This software is provided under written license and may be
 used, copied, transmitted, or stored only in accord with that
 written license.
  
 The following legend is applicable only to US Government
 contracts under FAR:
  
                    RESTRICTED RIGHTS LEGEND
  
 Use, reproduction and disclosure by the US Government is
 subject to restrictions as set forth in subparagraphs (a)
 and (c) of the Commercial Computer Software - Restricted
 Rights clause in FAR 52.227-19.
  
 Gaussian, Inc.
 340 Quinnipiac St., Bldg. 40, Wallingford CT 06492
  
  
 ---------------------------------------------------------------
 Warning -- This program may not be used in any manner that
 competes with the business of Gaussian, Inc. or will provide
 assistance to any competitor of Gaussian, Inc.  The licensee
 of this program is prohibited from giving any competitor of
 Gaussian, Inc. access to this program.  By using this program,
 the user acknowledges that Gaussian, Inc. is engaged in the
 business of creating and licensing software in the field of
 computational chemistry and represents and warrants to the
 licensee that it is not a competitor of Gaussian, Inc. and that
 it will not use this program in any manner prohibited above.
 ---------------------------------------------------------------
  

 Cite this work as:
 Gaussian 16, Revision A.03,
 M. J. Frisch, G. W. Trucks, H. B. Schlegel, G. E. Scuseria, 
 M. A. Robb, J. R. Cheeseman, G. Scalmani, V. Barone, 
 G. A. Petersson, H. Nakatsuji, X. Li, M. Caricato, A. V. Marenich, 
 J. Bloino, B. G. Janesko, R. Gomperts, B. Mennucci, H. P. Hratchian, 
 J. V. Ortiz, A. F. Izmaylov, J. L. Sonnenberg, D. Williams-Young, 
 F. Ding, F. Lipparini, F. Egidi, J. Goings, B. Peng, A. Petrone, 
 T. Henderson, D. Ranasinghe, V. G. Zakrzewski, J. Gao, N. Rega, 
 G. Zheng, W. Liang, M. Hada, M. Ehara, K. Toyota, R. Fukuda, 
 J. Hasegawa, M. Ishida, T. Nakajima, Y. Honda, O. Kitao, H. Nakai, 
 T. Vreven, K. Throssell, J. A. Montgomery, Jr., J. E. Peralta, 
 F. Ogliaro, M. J. Bearpark, J. J. Heyd, E. N. Brothers, K. N. Kudin, 
 V. N. Staroverov, T. A. Keith, R. Kobayashi, J. Normand, 
 K. Raghavachari, A. P. Rendell, J. C. Burant, S. S. Iyengar, 
 J. Tomasi, M. Cossi, J. M. Millam, M. Klene, C. Adamo, R. Cammi, 
 J. W. Ochterski, R. L. Martin, K. Morokuma, O. Farkas, 
 J. B. Foresman, and D. J. Fox, Gaussian, Inc., Wallingford CT, 2016.
 
 ******************************************
 Gaussian 16:  ES64L-G16RevA.03 25-Dec-2016
                18-Oct-2019 
 ******************************************
 %chk=ts_cpcm_benzene_maugccpvtz.chk
 %nprocshared=24
 Will use up to   24 processors via shared memory.
 ----------------------------------------------------------------------
 #p opt=(calcall,ts,noeigen) freq b3lyp def2tzvp em=gd3bj scrf=(cpcm,so
 lvent=benzene)
 ----------------------------------------------------------------------
 1/5=1,10=4,11=1,18=20,26=3,38=1/1,3;
 2/9=110,12=2,17=6,18=5,40=1/2;
 3/5=44,7=101,11=2,25=1,30=1,70=2101,71=2,72=12,74=-5,124=41,140=1/1,2,3;
 4//1;
 5/5=2,38=5,53=12/2;
 8/6=4,10=90,11=11/1;
 11/6=1,8=1,9=11,15=111,16=1/1,2,10;
 10/6=1/2;
 6/7=2,8=2,9=2,10=2,18=1,28=1/1;
 7/10=1,25=1/1,2,3,16;
 1/5=1,10=4,11=1,18=20,26=3/3(3);
 2/9=110/2;
 7/8=1,9=1,25=1,44=-1/16;
 99//99;
 2/9=110/2;
 3/5=44,7=101,11=2,25=1,30=1,70=2105,71=2,72=12,74=-5,124=41,140=1/1,2,3;
 4/5=5,16=3,69=1/1;
 5/5=2,38=5,53=12/2;
 8/6=4,10=90,11=11/1;
 11/6=1,8=1,9=11,15=111,16=1/1,2,10;
 10/6=1/2;
 7/10=1,25=1/1,2,3,16;
 1/5=1,10=4,11=1,18=20,26=3/3(-8);
 2/9=110/2;
 6/7=2,8=2,9=2,10=2,18=1,19=2,28=1/1;
 7/8=1,9=1,25=1,44=-1/16;
 99//99;
 Leave Link    1 at Fri Oct 18 00:59:54 2019, MaxMem=           0 cpu:               9.6 elap:               0.4
 (Enter /share/home/wli/program/opt/Chem_soft/g16/l101.exe)
 -------------------
 Title Card Required
 -------------------
 Symbolic Z-matrix:
 Charge = -1 Multiplicity = 1
 C                     0.7043    0.00002   0.00027 
 H                     0.7584   -0.9393   -0.50874 
 H                     0.7584    0.91052  -0.55864 
 H                     0.75836   0.02883   1.06826 
 Cl                    3.14574  0.        -0.00007 
 Br                   -1.71367  0.        -0.00004 
 
 Add virtual bond connecting atoms Br6        and C1         Dist= 4.57D+00.
 Add virtual bond connecting atoms Cl5        and C1         Dist= 4.61D+00.
 ITRead=  0  0  0  0  0  0
 MicOpt= -1 -1 -1 -1 -1 -1
 NAtoms=      6 NQM=        6 NQMF=       0 NMMI=      0 NMMIF=      0
                NMic=       0 NMicF=      0.
                    Isotopes and Nuclear Properties:
 (Nuclear quadrupole moments (NQMom) in fm**2, nuclear magnetic moments (NMagM)
  in nuclear magnetons)

  Atom         1           2           3           4           5           6
 IAtWgt=          12           1           1           1          35          79
 AtmWgt=  12.0000000   1.0078250   1.0078250   1.0078250  34.9688527  78.9183361
 NucSpn=           0           1           1           1           3           3
 AtZEff=  -0.0000000  -0.0000000  -0.0000000  -0.0000000  -0.0000000  -0.0000000
 NQMom=    0.0000000   0.0000000   0.0000000   0.0000000  -8.1650000  31.3000000
 NMagM=    0.0000000   2.7928460   2.7928460   2.7928460   0.8218740   2.1063990
 AtZNuc=   6.0000000   1.0000000   1.0000000   1.0000000  17.0000000  35.0000000
 Leave Link  101 at Fri Oct 18 00:59:54 2019, MaxMem=   104857600 cpu:               2.9 elap:               0.1
 (Enter /share/home/wli/program/opt/Chem_soft/g16/l103.exe)

 GradGradGradGradGradGradGradGradGradGradGradGradGradGradGradGradGradGrad
 Berny optimization.
 Initialization pass.
                           ----------------------------
                           !    Initial Parameters    !
                           ! (Angstroms and Degrees)  !
 --------------------------                            --------------------------
 ! Name  Definition              Value          Derivative Info.                !
 --------------------------------------------------------------------------------
 ! R1    R(1,2)                  1.0697         calculate D2E/DX2 analytically  !
 ! R2    R(1,3)                  1.0697         calculate D2E/DX2 analytically  !
 ! R3    R(1,4)                  1.0697         calculate D2E/DX2 analytically  !
 ! R4    R(1,5)                  2.4414         calculate D2E/DX2 analytically  !
 ! R5    R(1,6)                  2.418          calculate D2E/DX2 analytically  !
 ! A1    A(2,1,3)              119.75           calculate D2E/DX2 analytically  !
 ! A2    A(2,1,4)              119.7451         calculate D2E/DX2 analytically  !
 ! A3    A(2,1,5)               87.097          calculate D2E/DX2 analytically  !
 ! A4    A(2,1,6)               92.895          calculate D2E/DX2 analytically  !
 ! A5    A(3,1,4)              119.7448         calculate D2E/DX2 analytically  !
 ! A6    A(3,1,5)               87.0974         calculate D2E/DX2 analytically  !
 ! A7    A(3,1,6)               92.8953         calculate D2E/DX2 analytically  !
 ! A8    A(4,1,5)               87.1112         calculate D2E/DX2 analytically  !
 ! A9    A(4,1,6)               92.9041         calculate D2E/DX2 analytically  !
 ! A10   L(5,1,6,2,-1)         179.9919         calculate D2E/DX2 analytically  !
 ! A11   L(5,1,6,2,-2)         180.0131         calculate D2E/DX2 analytically  !
 ! D1    D(2,1,4,3)            169.9907         calculate D2E/DX2 analytically  !
 ! D2    D(2,1,5,3)            120.0042         calculate D2E/DX2 analytically  !
 ! D3    D(2,1,6,3)           -120.0028         calculate D2E/DX2 analytically  !
 ! D4    D(2,1,5,4)           -119.998          calculate D2E/DX2 analytically  !
 ! D5    D(2,1,6,4)            119.9987         calculate D2E/DX2 analytically  !
 ! D6    D(3,1,5,4)            119.9978         calculate D2E/DX2 analytically  !
 ! D7    D(3,1,6,4)           -119.9985         calculate D2E/DX2 analytically  !
 --------------------------------------------------------------------------------
 Trust Radius=3.00D-01 FncErr=1.00D-07 GrdErr=1.00D-06 EigMax=2.50D+02 EigMin=1.00D-04
 Number of steps in this run=     33 maximum allowed number of steps=    100.
 Search for a saddle point of order  1.
 GradGradGradGradGradGradGradGradGradGradGradGradGradGradGradGradGradGrad

 Leave Link  103 at Fri Oct 18 00:59:55 2019, MaxMem=   104857600 cpu:               0.9 elap:               0.1
 (Enter /share/home/wli/program/opt/Chem_soft/g16/l202.exe)
                          Input orientation:                          
 ---------------------------------------------------------------------
 Center     Atomic      Atomic             Coordinates (Angstroms)
 Number     Number       Type             X           Y           Z
 ---------------------------------------------------------------------
      1          6           0        0.704300    0.000015    0.000271
      2          1           0        0.758398   -0.939298   -0.508737
      3          1           0        0.758398    0.910520   -0.558639
      4          1           0        0.758363    0.028828    1.068261
      5         17           0        3.145737   -0.000004   -0.000074
      6         35           0       -1.713671   -0.000002   -0.000036
 ---------------------------------------------------------------------
                    Distance matrix (angstroms):
                    1          2          3          4          5
     1  C    0.000000
     2  H    1.069731   0.000000
     3  H    1.069732   1.850491   0.000000
     4  H    1.069746   1.850457   1.850455   0.000000
     5  Cl   2.441437   2.615416   2.615423   2.615669   0.000000
     6  Br   2.417971   2.692987   2.692993   2.693147   4.859408
                    6
     6  Br   0.000000
 This structure is nearly, but not quite of a higher symmetry.
 Consider Symm=Loose if the higher symmetry is desired.
 Stoichiometry    CH3BrCl(1-)
 Framework group  C1[X(CH3BrCl)]
 Deg. of freedom    12
 Full point group                 C1      NOp   1
 Largest Abelian subgroup         C1      NOp   1
 Largest concise Abelian subgroup C1      NOp   1
                         Standard orientation:                         
 ---------------------------------------------------------------------
 Center     Atomic      Atomic             Coordinates (Angstroms)
 Number     Number       Type             X           Y           Z
 ---------------------------------------------------------------------
      1          6           0        0.000249    0.003906    0.704289
      2          1           0       -0.513980    0.940658    0.753158
      3          1           0       -0.553586   -0.909380    0.763454
      4          1           0        1.068382   -0.018660    0.758512
      5         17           0       -0.000171    0.017512    3.145688
      6         35           0        0.000017   -0.009536   -1.713645
 ---------------------------------------------------------------------
 Rotational constants (GHZ):         146.4430850           0.8630335           0.8630334
 Leave Link  202 at Fri Oct 18 00:59:55 2019, MaxMem=   104857600 cpu:               1.8 elap:               0.1
 (Enter /share/home/wli/program/opt/Chem_soft/g16/l301.exe)
 Standard basis: def2TZVP (5D, 7F)
 Ernie: Thresh=  0.10000D-02 Tol=  0.10000D-05 Strict=F.
 There are   151 symmetry adapted cartesian basis functions of A   symmetry.
 There are   134 symmetry adapted basis functions of A   symmetry.
   134 basis functions,   258 primitive gaussians,   151 cartesian basis functions
    31 alpha electrons       31 beta electrons
       nuclear repulsion energy       173.5741035171 Hartrees.
 IExCor=  402 DFT=T Ex+Corr=B3LYP ExCW=0 ScaHFX=  0.200000
 ScaDFX=  0.800000  0.720000  1.000000  0.810000 ScalE2=  1.000000  1.000000
 IRadAn=      5 IRanWt=     -1 IRanGd=            0 ICorTp=0 IEmpDi=141
 NAtoms=    6 NActive=    6 NUniq=    6 SFac= 1.00D+00 NAtFMM=   60 NAOKFM=F Big=F
 Integral buffers will be    131072 words long.
 Raffenetti 2 integral format.
 Two-electron integral symmetry is turned on.
 R6Disp:  Grimme-D3(BJ) Dispersion energy=       -0.0069969608 Hartrees.
 Nuclear repulsion after empirical dispersion term =      173.5671065563 Hartrees.
 Force inversion solution in PCM.
 ------------------------------------------------------------------------------
 Polarizable Continuum Model (PCM)
 =================================
 Model                : C-PCM.
 Atomic radii         : UFF (Universal Force Field).
 Polarization charges : Total charges.
 Charge compensation  : None.
 Solution method      : Matrix inversion.
 Cavity type          : Scaled VdW (van der Waals Surface) (Alpha=1.100).
 Cavity algorithm     : GePol (No added spheres)
                        Default sphere list used, NSphG=    6.
                        Lebedev-Laikov grids with approx.  5.0 points / Ang**2.
                        Smoothing algorithm: York/Karplus (Gamma=1.0000).
                        Polarization charges: spherical gaussians, with
                                              point-specific exponents (IZeta= 3).
                        Self-potential: point-specific (ISelfS= 7).
                        Self-field    : sphere-specific E.n sum rule (ISelfD= 2).
 1st derivatives      : Analytical E(r).r(x)/FMM algorithm (CHGder, D1EAlg=3).
                        Cavity 1st derivative terms included.
 2nd derivatives      : Analytical E(r).r(xy)/FMM algorithm (CHGder, D2EAlg=3).
                        Cavity 2nd derivative terms included.
 Solvent              : Benzene, Eps=   2.270600 Eps(inf)=   2.253301
 ------------------------------------------------------------------------------
 Spheres list:
 ISph  on   Nord     Re0    Alpha      Xe            Ye            Ze
    1   C      1    1.9255  1.100      0.000249      0.003906      0.704289
    2   H      2    1.4430  1.100     -0.513980      0.940658      0.753158
    3   H      3    1.4430  1.100     -0.553586     -0.909380      0.763454
    4   H      4    1.4430  1.100      1.068382     -0.018660      0.758512
    5  Cl      5    1.9735  1.100     -0.000171      0.017512      3.145688
    6  Br      6    2.0945  1.100      0.000017     -0.009536     -1.713645
 ------------------------------------------------------------------------------
 GePol: Number of generator spheres                  =       6
 GePol: Total number of spheres                      =       6
 GePol: Number of exposed spheres                    =       6 (100.00%)
 GePol: Number of points                             =     873
 GePol: Average weight of points                     =       0.16
 GePol: Minimum weight of points                     =   0.22D-10
 GePol: Maximum weight of points                     =    0.21616
 GePol: Number of points with low weight             =      25
 GePol: Fraction of low-weight points (<1% of avg)   =       2.86%
 GePol: Cavity surface area                          =    136.563 Ang**2
 GePol: Cavity volume                                =    119.900 Ang**3
 Leave Link  301 at Fri Oct 18 00:59:55 2019, MaxMem=   104857600 cpu:               2.9 elap:               0.1
 (Enter /share/home/wli/program/opt/Chem_soft/g16/l302.exe)
 NPDir=0 NMtPBC=     1 NCelOv=     1 NCel=       1 NClECP=     1 NCelD=      1
         NCelK=      1 NCelE2=     1 NClLst=     1 CellRange=     0.0.
 One-electron integrals computed using PRISM.
 One-electron integral symmetry used in STVInt
 PrsmSu:  requested number of processors reduced to:  13 ShMem   1 Linda.
   1 Symmetry operations used in ECPInt.
 ECPInt:  NShTT=    1378 NPrTT=    5593 LenC2=    1324 LenP2D=    4259.
 LDataN:  DoStor=T MaxTD1= 6 Len=  172
 NBasis=   134 RedAO= T EigKep=  1.43D-03  NBF=   134
 NBsUse=   134 1.00D-06 EigRej= -1.00D+00 NBFU=   134
 Precomputing XC quadrature grid using
 IXCGrd= 4 IRadAn=           5 IRanWt=          -1 IRanGd=           0 AccXCQ= 0.00D+00.
 Generated NRdTot=       0 NPtTot=           0 NUsed=           0 NTot=          32
 NSgBfM=   150   150   150   150   150 MxSgAt=     6 MxSgA2=     6.
 Leave Link  302 at Fri Oct 18 00:59:55 2019, MaxMem=   104857600 cpu:              12.4 elap:               0.6
 (Enter /share/home/wli/program/opt/Chem_soft/g16/l303.exe)
 DipDrv:  MaxL=1.
 Leave Link  303 at Fri Oct 18 00:59:56 2019, MaxMem=   104857600 cpu:               5.1 elap:               0.2
 (Enter /share/home/wli/program/opt/Chem_soft/g16/l401.exe)
 ExpMin= 9.52D-02 ExpMax= 5.65D+05 ExpMxC= 5.46D+03 IAcc=3 IRadAn=         5 AccDes= 0.00D+00
 Harris functional with IExCor=  402 and IRadAn=       5 diagonalized for initial guess.
 HarFok:  IExCor=  402 AccDes= 0.00D+00 IRadAn=         5 IDoV= 1 UseB2=F ITyADJ=14
 ICtDFT=  3500011 ScaDFX=  1.000000  1.000000  1.000000  1.000000
 FoFCou: FMM=F IPFlag=           0 FMFlag=      100000 FMFlg1=           0
         NFxFlg=           0 DoJE=T BraDBF=F KetDBF=T FulRan=T
         wScrn=  0.000000 ICntrl=       500 IOpCl=  0 I1Cent=   200000004 NGrid=           0
         NMat0=    1 NMatS0=      1 NMatT0=    0 NMatD0=    1 NMtDS0=    0 NMtDT0=    0
 Petite list used in FoFCou.
 Harris En= -3074.56577756357    
 JPrj=0 DoOrth=F DoCkMO=F.
 Leave Link  401 at Fri Oct 18 00:59:56 2019, MaxMem=   104857600 cpu:               8.9 elap:               0.4
 (Enter /share/home/wli/program/opt/Chem_soft/g16/l502.exe)
 Keep R1 ints in memory in canonical form, NReq=64315121.
 FoFCou: FMM=F IPFlag=           0 FMFlag=           0 FMFlg1=           0
         NFxFlg=           0 DoJE=F BraDBF=F KetDBF=F FulRan=T
         wScrn=  0.000000 ICntrl=       600 IOpCl=  0 I1Cent=           0 NGrid=           0
         NMat0=    1 NMatS0=   9045 NMatT0=    0 NMatD0=    1 NMtDS0=    0 NMtDT0=    0
 Symmetry not used in FoFCou.
 Two-electron integral symmetry not used.
 Closed shell SCF:
 Using DIIS extrapolation, IDIIS=  1040.
 NGot=   104857600 LenX=    63896377 LenY=    63873135
 Requested convergence on RMS density matrix=1.00D-08 within 128 cycles.
 Requested convergence on MAX density matrix=1.00D-06.
 Requested convergence on             energy=1.00D-06.
 No special actions if energy rises.

 Cycle   1  Pass 1  IDiag  1:
 Inv3:  Mode=1 IEnd=     2286387.
 Iteration    1 A*A^-1 deviation from unit magnitude is 3.89D-15 for    865.
 Iteration    1 A*A^-1 deviation from orthogonality  is 1.32D-15 for    335    104.
 Iteration    1 A^-1*A deviation from unit magnitude is 3.89D-15 for    865.
 Iteration    1 A^-1*A deviation from orthogonality  is 1.07D-15 for    228     81.
 E= -3074.37884409383    
 DIIS: error= 5.06D-02 at cycle   1 NSaved=   1.
 NSaved= 1 IEnMin= 1 EnMin= -3074.37884409383     IErMin= 1 ErrMin= 5.06D-02
 ErrMax= 5.06D-02  0.00D+00 EMaxC= 1.00D-01 BMatC= 2.14D-01 BMatP= 2.14D-01
 IDIUse=3 WtCom= 4.94D-01 WtEn= 5.06D-01
 Coeff-Com:  0.100D+01
 Coeff-En:   0.100D+01
 Coeff:      0.100D+01
 Gap=     0.308 Goal=   None    Shift=    0.000
 GapD=    0.308 DampG=1.000 DampE=0.500 DampFc=0.5000 IDamp=-1.
 Damping current iteration by 5.00D-01
 RMSDP=4.43D-03 MaxDP=1.31D-01              OVMax= 2.72D-01

 Cycle   2  Pass 1  IDiag  1:
 E= -3074.42278088273     Delta-E=       -0.043936788890 Rises=F Damp=T
 DIIS: error= 2.04D-02 at cycle   2 NSaved=   2.
 NSaved= 2 IEnMin= 2 EnMin= -3074.42278088273     IErMin= 2 ErrMin= 2.04D-02
 ErrMax= 2.04D-02  0.00D+00 EMaxC= 1.00D-01 BMatC= 2.56D-02 BMatP= 2.14D-01
 IDIUse=3 WtCom= 7.96D-01 WtEn= 2.04D-01
 Coeff-Com: -0.196D+00 0.120D+01
 Coeff-En:   0.942D-02 0.991D+00
 Coeff:     -0.154D+00 0.115D+01
 Gap=     0.189 Goal=   None    Shift=    0.000
 RMSDP=1.46D-03 MaxDP=3.87D-02 DE=-4.39D-02 OVMax= 1.99D-01

 Cycle   3  Pass 1  IDiag  1:
 E= -3074.45085441504     Delta-E=       -0.028073532312 Rises=F Damp=F
 DIIS: error= 1.37D-02 at cycle   3 NSaved=   3.
 NSaved= 3 IEnMin= 3 EnMin= -3074.45085441504     IErMin= 3 ErrMin= 1.37D-02
 ErrMax= 1.37D-02  0.00D+00 EMaxC= 1.00D-01 BMatC= 1.98D-02 BMatP= 2.56D-02
 IDIUse=3 WtCom= 8.63D-01 WtEn= 1.37D-01
 Coeff-Com: -0.196D+00 0.649D+00 0.546D+00
 Coeff-En:   0.000D+00 0.000D+00 0.100D+01
 Coeff:     -0.169D+00 0.560D+00 0.609D+00
 Gap=     0.207 Goal=   None    Shift=    0.000
 RMSDP=1.02D-03 MaxDP=2.62D-02 DE=-2.81D-02 OVMax= 1.17D-01

 Cycle   4  Pass 1  IDiag  1:
 E= -3074.46944081220     Delta-E=       -0.018586397165 Rises=F Damp=F
 DIIS: error= 5.25D-03 at cycle   4 NSaved=   4.
 NSaved= 4 IEnMin= 4 EnMin= -3074.46944081220     IErMin= 4 ErrMin= 5.25D-03
 ErrMax= 5.25D-03  0.00D+00 EMaxC= 1.00D-01 BMatC= 3.20D-03 BMatP= 1.98D-02
 IDIUse=3 WtCom= 9.47D-01 WtEn= 5.25D-02
 Coeff-Com: -0.193D-01 0.697D-01 0.302D+00 0.647D+00
 Coeff-En:   0.000D+00 0.000D+00 0.164D+00 0.836D+00
 Coeff:     -0.183D-01 0.660D-01 0.295D+00 0.657D+00
 Gap=     0.196 Goal=   None    Shift=    0.000
 RMSDP=3.75D-04 MaxDP=1.06D-02 DE=-1.86D-02 OVMax= 3.41D-02

 Cycle   5  Pass 1  IDiag  1:
 E= -3074.47305810874     Delta-E=       -0.003617296534 Rises=F Damp=F
 DIIS: error= 8.42D-04 at cycle   5 NSaved=   5.
 NSaved= 5 IEnMin= 5 EnMin= -3074.47305810874     IErMin= 5 ErrMin= 8.42D-04
 ErrMax= 8.42D-04  0.00D+00 EMaxC= 1.00D-01 BMatC= 1.06D-04 BMatP= 3.20D-03
 IDIUse=3 WtCom= 9.92D-01 WtEn= 8.42D-03
 Coeff-Com: -0.102D-01 0.205D-01 0.142D+00 0.327D+00 0.521D+00
 Coeff-En:   0.000D+00 0.000D+00 0.000D+00 0.000D+00 0.100D+01
 Coeff:     -0.101D-01 0.203D-01 0.141D+00 0.324D+00 0.525D+00
 Gap=     0.197 Goal=   None    Shift=    0.000
 RMSDP=9.15D-05 MaxDP=3.76D-03 DE=-3.62D-03 OVMax= 5.23D-03

 Cycle   6  Pass 1  IDiag  1:
 E= -3074.47313494411     Delta-E=       -0.000076835370 Rises=F Damp=F
 DIIS: error= 1.41D-04 at cycle   6 NSaved=   6.
 NSaved= 6 IEnMin= 6 EnMin= -3074.47313494411     IErMin= 6 ErrMin= 1.41D-04
 ErrMax= 1.41D-04  0.00D+00 EMaxC= 1.00D-01 BMatC= 5.32D-06 BMatP= 1.06D-04
 IDIUse=3 WtCom= 9.99D-01 WtEn= 1.41D-03
 Coeff-Com: -0.115D-02 0.944D-03 0.270D-01 0.649D-01 0.213D+00 0.696D+00
 Coeff-En:   0.000D+00 0.000D+00 0.000D+00 0.000D+00 0.000D+00 0.100D+01
 Coeff:     -0.114D-02 0.943D-03 0.269D-01 0.648D-01 0.212D+00 0.696D+00
 Gap=     0.197 Goal=   None    Shift=    0.000
 RMSDP=2.47D-05 MaxDP=6.82D-04 DE=-7.68D-05 OVMax= 2.06D-03

 Cycle   7  Pass 1  IDiag  1:
 E= -3074.47313957483     Delta-E=       -0.000004630721 Rises=F Damp=F
 DIIS: error= 1.05D-04 at cycle   7 NSaved=   7.
 NSaved= 7 IEnMin= 7 EnMin= -3074.47313957483     IErMin= 7 ErrMin= 1.05D-04
 ErrMax= 1.05D-04  0.00D+00 EMaxC= 1.00D-01 BMatC= 8.49D-07 BMatP= 5.32D-06
 IDIUse=3 WtCom= 9.99D-01 WtEn= 1.05D-03
 Coeff-Com:  0.511D-03-0.141D-02-0.440D-02-0.109D-01 0.373D-01 0.355D+00
 Coeff-Com:  0.624D+00
 Coeff-En:   0.000D+00 0.000D+00 0.000D+00 0.000D+00 0.000D+00 0.929D-01
 Coeff-En:   0.907D+00
 Coeff:      0.510D-03-0.141D-02-0.439D-02-0.109D-01 0.373D-01 0.354D+00
 Coeff:      0.625D+00
 Gap=     0.197 Goal=   None    Shift=    0.000
 RMSDP=8.09D-06 MaxDP=3.32D-04 DE=-4.63D-06 OVMax= 5.23D-04

 Cycle   8  Pass 1  IDiag  1:
 E= -3074.47314041577     Delta-E=       -0.000000840940 Rises=F Damp=F
 DIIS: error= 7.16D-06 at cycle   8 NSaved=   8.
 NSaved= 8 IEnMin= 8 EnMin= -3074.47314041577     IErMin= 8 ErrMin= 7.16D-06
 ErrMax= 7.16D-06  0.00D+00 EMaxC= 1.00D-01 BMatC= 7.56D-09 BMatP= 8.49D-07
 IDIUse=1 WtCom= 1.00D+00 WtEn= 0.00D+00
 Coeff-Com:  0.125D-03-0.238D-03-0.127D-02-0.342D-02-0.182D-02 0.282D-01
 Coeff-Com:  0.128D+00 0.850D+00
 Coeff:      0.125D-03-0.238D-03-0.127D-02-0.342D-02-0.182D-02 0.282D-01
 Coeff:      0.128D+00 0.850D+00
 Gap=     0.197 Goal=   None    Shift=    0.000
 RMSDP=9.13D-07 MaxDP=3.10D-05 DE=-8.41D-07 OVMax= 6.38D-05

 Cycle   9  Pass 1  IDiag  1:
 E= -3074.47314042492     Delta-E=       -0.000000009155 Rises=F Damp=F
 DIIS: error= 1.92D-06 at cycle   9 NSaved=   9.
 NSaved= 9 IEnMin= 9 EnMin= -3074.47314042492     IErMin= 9 ErrMin= 1.92D-06
 ErrMax= 1.92D-06  0.00D+00 EMaxC= 1.00D-01 BMatC= 3.93D-10 BMatP= 7.56D-09
 IDIUse=1 WtCom= 1.00D+00 WtEn= 0.00D+00
 Coeff-Com:  0.478D-04-0.860D-04-0.358D-03-0.995D-03-0.171D-02 0.377D-03
 Coeff-Com:  0.239D-01 0.301D+00 0.678D+00
 Coeff:      0.478D-04-0.860D-04-0.358D-03-0.995D-03-0.171D-02 0.377D-03
 Coeff:      0.239D-01 0.301D+00 0.678D+00
 Gap=     0.197 Goal=   None    Shift=    0.000
 RMSDP=1.25D-07 MaxDP=3.21D-06 DE=-9.16D-09 OVMax= 5.06D-06

 Cycle  10  Pass 1  IDiag  1:
 E= -3074.47314042530     Delta-E=       -0.000000000382 Rises=F Damp=F
 DIIS: error= 4.97D-07 at cycle  10 NSaved=  10.
 NSaved=10 IEnMin=10 EnMin= -3074.47314042530     IErMin=10 ErrMin= 4.97D-07
 ErrMax= 4.97D-07  0.00D+00 EMaxC= 1.00D-01 BMatC= 2.03D-11 BMatP= 3.93D-10
 IDIUse=1 WtCom= 1.00D+00 WtEn= 0.00D+00
 Coeff-Com:  0.521D-05-0.105D-04 0.257D-05-0.241D-04-0.432D-03-0.225D-02
 Coeff-Com: -0.508D-02 0.238D-01 0.171D+00 0.813D+00
 Coeff:      0.521D-05-0.105D-04 0.257D-05-0.241D-04-0.432D-03-0.225D-02
 Coeff:     -0.508D-02 0.238D-01 0.171D+00 0.813D+00
 Gap=     0.197 Goal=   None    Shift=    0.000
 RMSDP=4.20D-08 MaxDP=1.14D-06 DE=-3.82D-10 OVMax= 2.65D-06

 Cycle  11  Pass 1  IDiag  1:
 E= -3074.47314042534     Delta-E=       -0.000000000036 Rises=F Damp=F
 DIIS: error= 4.36D-08 at cycle  11 NSaved=  11.
 NSaved=11 IEnMin=11 EnMin= -3074.47314042534     IErMin=11 ErrMin= 4.36D-08
 ErrMax= 4.36D-08  0.00D+00 EMaxC= 1.00D-01 BMatC= 2.87D-13 BMatP= 2.03D-11
 IDIUse=1 WtCom= 1.00D+00 WtEn= 0.00D+00
 Coeff-Com:  0.147D-06-0.373D-06 0.472D-05 0.777D-05-0.514D-04-0.390D-03
 Coeff-Com: -0.119D-02-0.275D-03 0.210D-01 0.191D+00 0.790D+00
 Coeff:      0.147D-06-0.373D-06 0.472D-05 0.777D-05-0.514D-04-0.390D-03
 Coeff:     -0.119D-02-0.275D-03 0.210D-01 0.191D+00 0.790D+00
 Gap=     0.197 Goal=   None    Shift=    0.000
 RMSDP=3.94D-09 MaxDP=9.90D-08 DE=-3.64D-11 OVMax= 2.85D-07

 Error on total polarization charges =  0.01255
 SCF Done:  E(RB3LYP) =  -3074.47314043     A.U. after   11 cycles
            NFock= 11  Conv=0.39D-08     -V/T= 2.0015
 KE= 3.069818837287D+03 PE=-7.700145250942D+03 EE= 1.382286166673D+03
 Leave Link  502 at Fri Oct 18 01:00:01 2019, MaxMem=   104857600 cpu:             106.7 elap:               5.1
 (Enter /share/home/wli/program/opt/Chem_soft/g16/l801.exe)
 DoSCS=F DFT=T ScalE2(SS,OS)=  1.000000  1.000000
 Range of M.O.s used for correlation:     1   134
 NBasis=   134 NAE=    31 NBE=    31 NFC=     0 NFV=     0
 NROrb=    134 NOA=    31 NOB=    31 NVA=   103 NVB=   103
 Leave Link  801 at Fri Oct 18 01:00:01 2019, MaxMem=   104857600 cpu:               1.0 elap:               0.1
 (Enter /share/home/wli/program/opt/Chem_soft/g16/l1101.exe)
 Using compressed storage, NAtomX=     6.
 Will process      7 centers per pass.
 PrsmSu:  requested number of processors reduced to:  11 ShMem   1 Linda.
   1 Symmetry operations used in ECPInt.
 ECPInt:  NShTT=    1378 NPrTT=    5593 LenC2=    1324 LenP2D=    4259.
 LDataN:  DoStor=T MaxTD1= 7 Len=  274
 Number of processors reduced to  18 by ecpmxn.
 R6Disp: Adding Grimme-D3(BJ) dispersion energy 1st derivatives to the gradient.
 Leave Link 1101 at Fri Oct 18 01:00:02 2019, MaxMem=   104857600 cpu:              15.5 elap:               0.7
 (Enter /share/home/wli/program/opt/Chem_soft/g16/l1102.exe)
 Symmetrizing basis deriv contribution to polar:
 IMax=3 JMax=2 DiffMx= 0.00D+00
 Leave Link 1102 at Fri Oct 18 01:00:02 2019, MaxMem=   104857600 cpu:               1.9 elap:               0.1
 (Enter /share/home/wli/program/opt/Chem_soft/g16/l1110.exe)
 Forming Gx(P) for the SCF density, NAtomX=     6.
 Integral derivatives from FoFJK, PRISM(SPDF).
 Do as many integral derivatives as possible in FoFJK.
 G2DrvN: MDV=     104857020.
 G2DrvN: will do     7 centers at a time, making    1 passes.
 Calling FoFCou, ICntrl=  3107 FMM=F I1Cent=   0 AccDes= 0.00D+00.
 FoFJK:  IHMeth= 1 ICntrl=    3107 DoSepK=F KAlg= 0 I1Cent=           0 FoldK=F
 IRaf=         0 NMat=       1 IRICut=       1 DoRegI=T DoRafI=F ISym2E= 0 IDoP0=0 IntGTp=1.
 FoFCou: FMM=F IPFlag=           0 FMFlag=      100000 FMFlg1=           0
         NFxFlg=           0 DoJE=F BraDBF=F KetDBF=F FulRan=T
         wScrn=  0.000000 ICntrl=      3107 IOpCl=  0 I1Cent=           0 NGrid=           0
         NMat0=    1 NMatS0=      1 NMatT0=    0 NMatD0=    1 NMtDS0=    0 NMtDT0=    0
 Symmetry not used in FoFCou.
 NEqPCM:  Using equilibrium solvation (IEInf=0, Eps=   2.2706, EpsInf=   2.2533)
 G2PCM: DoFxE=T DoFxN=T DoGrad=T DoDP/DQ/DG/TGxP=FFFF NFrqRd=   0 IEInf=0 SqF1=F DoCFld=F IF1Alg=4.
 GePol: Maximum number of non-zero 1st derivatives   =     380
 CoulSu:  requested number of processors reduced to:  17 ShMem   1 Linda.
 CoulSu:  requested number of processors reduced to:  23 ShMem   1 Linda.
 End of G2Drv F.D. properties file   721 does not exist.
 End of G2Drv F.D. properties file   722 does not exist.
 End of G2Drv F.D. properties file   788 does not exist.
 Leave Link 1110 at Fri Oct 18 01:00:06 2019, MaxMem=   104857600 cpu:             105.0 elap:               4.5
 (Enter /share/home/wli/program/opt/Chem_soft/g16/l1002.exe)
 Minotr:  Closed shell wavefunction.
          IDoAtm=111111
 NEqPCM:  Using equilibrium solvation (IEInf=0, Eps=   2.2706, EpsInf=   2.2533)
          Direct CPHF calculation.
          Differentiating once with respect to electric field.
                with respect to dipole field.
          Differentiating once with respect to nuclear coordinates.
          Requested convergence is 1.0D-08 RMS, and 1.0D-07 maximum.
          Secondary convergence is 1.0D-12 RMS, and 1.0D-12 maximum.
          NewPWx=T KeepS1=F KeepF1=F KeepIn=T MapXYZ=F SortEE=F KeepMc=T.
         1761 words used for storage of precomputed grid.
 Keep R1 ints in memory in canonical form, NReq=64236638.
 FoFCou: FMM=F IPFlag=           0 FMFlag=           0 FMFlg1=           0
         NFxFlg=           0 DoJE=F BraDBF=F KetDBF=F FulRan=T
         wScrn=  0.000000 ICntrl=       600 IOpCl=  0 I1Cent=           0 NGrid=           0
         NMat0=    1 NMatS0=   9045 NMatT0=    0 NMatD0=    1 NMtDS0=    0 NMtDT0=    0
 Symmetry not used in FoFCou.
 Two-electron integral symmetry not used.
          MDV=     104857600 using IRadAn=       1.
          Solving linear equations simultaneously, MaxMat=       0.
 CoulSu:  requested number of processors reduced to:  13 ShMem   1 Linda.
 CoulSu:  requested number of processors reduced to:  13 ShMem   1 Linda.
          There are    21 degrees of freedom in the 1st order CPHF.  IDoFFX=6 NUNeed=     3.
     18 vectors produced by pass  0 Test12= 1.52D-14 4.76D-09 XBig12= 2.24D+02 1.43D+01.
 AX will form    18 AO Fock derivatives at one time.
 CoulSu:  requested number of processors reduced to:  15 ShMem   1 Linda.
 CoulSu:  requested number of processors reduced to:  14 ShMem   1 Linda.
     18 vectors produced by pass  1 Test12= 1.52D-14 4.76D-09 XBig12= 3.48D+01 2.06D+00.
 CoulSu:  requested number of processors reduced to:  15 ShMem   1 Linda.
 CoulSu:  requested number of processors reduced to:  14 ShMem   1 Linda.
     18 vectors produced by pass  2 Test12= 1.52D-14 4.76D-09 XBig12= 1.70D+00 2.97D-01.
 CoulSu:  requested number of processors reduced to:  15 ShMem   1 Linda.
 CoulSu:  requested number of processors reduced to:  14 ShMem   1 Linda.
     18 vectors produced by pass  3 Test12= 1.52D-14 4.76D-09 XBig12= 4.01D-02 4.33D-02.
 CoulSu:  requested number of processors reduced to:  15 ShMem   1 Linda.
 CoulSu:  requested number of processors reduced to:  14 ShMem   1 Linda.
     18 vectors produced by pass  4 Test12= 1.52D-14 4.76D-09 XBig12= 8.58D-04 9.86D-03.
 CoulSu:  requested number of processors reduced to:  15 ShMem   1 Linda.
 CoulSu:  requested number of processors reduced to:  14 ShMem   1 Linda.
     16 vectors produced by pass  5 Test12= 1.52D-14 4.76D-09 XBig12= 4.55D-06 5.90D-04.
 CoulSu:  requested number of processors reduced to:  15 ShMem   1 Linda.
 CoulSu:  requested number of processors reduced to:  15 ShMem   1 Linda.
      5 vectors produced by pass  6 Test12= 1.52D-14 4.76D-09 XBig12= 4.65D-09 1.21D-05.
      1 vectors produced by pass  7 Test12= 1.52D-14 4.76D-09 XBig12= 5.14D-12 3.54D-07.
      1 vectors produced by pass  8 Test12= 1.52D-14 4.76D-09 XBig12= 1.28D-14 1.94D-08.
 InvSVY:  IOpt=1 It=  1 EMax= 7.11D-15
 Solved reduced A of dimension   113 with    21 vectors.
 FullF1:  Do perturbations      1 to       3.
 Isotropic polarizability for W=    0.000000       82.89 Bohr**3.
 End of Minotr F.D. properties file   721 does not exist.
 End of Minotr F.D. properties file   722 does not exist.
 End of Minotr F.D. properties file   788 does not exist.
 Leave Link 1002 at Fri Oct 18 01:00:12 2019, MaxMem=   104857600 cpu:             121.2 elap:               5.7
 (Enter /share/home/wli/program/opt/Chem_soft/g16/l601.exe)
 Copying SCF densities to generalized density rwf, IOpCl= 0 IROHF=0.

 **********************************************************************

            Population analysis using the SCF density.

 **********************************************************************

 Orbital symmetries:
       Occupied  (A) (A) (A) (A) (A) (A) (A) (A) (A) (A) (A) (A)
                 (A) (A) (A) (A) (A) (A) (A) (A) (A) (A) (A) (A)
                 (A) (A) (A) (A) (A) (A) (A)
       Virtual   (A) (A) (A) (A) (A) (A) (A) (A) (A) (A) (A) (A)
                 (A) (A) (A) (A) (A) (A) (A) (A) (A) (A) (A) (A)
                 (A) (A) (A) (A) (A) (A) (A) (A) (A) (A) (A) (A)
                 (A) (A) (A) (A) (A) (A) (A) (A) (A) (A) (A) (A)
                 (A) (A) (A) (A) (A) (A) (A) (A) (A) (A) (A) (A)
                 (A) (A) (A) (A) (A) (A) (A) (A) (A) (A) (A) (A)
                 (A) (A) (A) (A) (A) (A) (A) (A) (A) (A) (A) (A)
                 (A) (A) (A) (A) (A) (A) (A) (A) (A) (A) (A) (A)
                 (A) (A) (A) (A) (A) (A) (A)
 The electronic state is 1-A.
 Alpha  occ. eigenvalues -- -482.72975-101.35905 -62.37823 -56.19311 -56.19140
 Alpha  occ. eigenvalues --  -56.19140 -10.16481  -9.29113  -8.56904  -7.04893
 Alpha  occ. eigenvalues --   -7.04600  -7.04600  -6.39471  -6.38946  -6.38946
 Alpha  occ. eigenvalues --   -2.50979  -2.50838  -2.50838  -2.50420  -2.50420
 Alpha  occ. eigenvalues --   -0.67569  -0.64393  -0.59925  -0.38176  -0.38176
 Alpha  occ. eigenvalues --   -0.25315  -0.19164  -0.19164  -0.18236  -0.18235
 Alpha  occ. eigenvalues --   -0.17214
 Alpha virt. eigenvalues --    0.02499   0.11661   0.17832   0.17833   0.25623
 Alpha virt. eigenvalues --    0.26509   0.26510   0.33029   0.33484   0.33485
 Alpha virt. eigenvalues --    0.38819   0.38820   0.40395   0.41391   0.41391
 Alpha virt. eigenvalues --    0.46996   0.47085   0.47086   0.49966   0.53142
 Alpha virt. eigenvalues --    0.53144   0.55384   0.57908   0.57909   0.58288
 Alpha virt. eigenvalues --    0.58288   0.60841   0.83931   0.83932   0.84569
 Alpha virt. eigenvalues --    1.02463   1.02464   1.03289   1.16811   1.41045
 Alpha virt. eigenvalues --    1.43727   1.43727   1.45050   1.45050   1.51195
 Alpha virt. eigenvalues --    1.51934   1.51935   1.51995   1.53409   1.62345
 Alpha virt. eigenvalues --    1.62345   1.63744   1.63789   1.68687   1.68688
 Alpha virt. eigenvalues --    1.70087   1.73302   1.73305   1.86026   1.86026
 Alpha virt. eigenvalues --    1.88222   1.89568   1.89569   2.00036   2.00038
 Alpha virt. eigenvalues --    2.02893   2.09745   2.11756   2.11756   2.21492
 Alpha virt. eigenvalues --    2.21492   2.22822   2.22930   2.31977   2.31978
 Alpha virt. eigenvalues --    2.34813   2.34813   2.35965   2.39944   2.50939
 Alpha virt. eigenvalues --    2.50949   2.68143   2.72331   2.72335   2.84572
 Alpha virt. eigenvalues --    3.13056   3.13057   3.26331   3.26333   3.29277
 Alpha virt. eigenvalues --    3.35512   3.35513   3.67685   3.89782   4.09231
 Alpha virt. eigenvalues --    4.09235   4.12816   4.12816   4.21533   4.21535
 Alpha virt. eigenvalues --    4.33253   4.75558   7.47619  10.81943  10.81943
 Alpha virt. eigenvalues --   10.93098  22.16114  24.62428
          Condensed to atoms (all electrons):
               1          2          3          4          5          6
     1  C    4.859763   0.409501   0.409499   0.409474   0.019929   0.043711
     2  H    0.409501   0.497147  -0.021920  -0.021919  -0.004383  -0.015267
     3  H    0.409499  -0.021920   0.497161  -0.021919  -0.004380  -0.015266
     4  H    0.409474  -0.021919  -0.021919   0.497197  -0.004347  -0.015250
     5  Cl   0.019929  -0.004383  -0.004380  -0.004347  17.688858   0.009800
     6  Br   0.043711  -0.015267  -0.015266  -0.015250   0.009800  35.605345
 Mulliken charges:
               1
     1  C   -0.151877
     2  H    0.156840
     3  H    0.156825
     4  H    0.156764
     5  Cl  -0.705478
     6  Br  -0.613074
 Sum of Mulliken charges =  -1.00000
 Mulliken charges with hydrogens summed into heavy atoms:
               1
     1  C    0.318552
     5  Cl  -0.705478
     6  Br  -0.613074
 APT charges:
               1
     1  C    1.317804
     2  H   -0.021946
     3  H   -0.021896
     4  H   -0.022279
     5  Cl  -1.173290
     6  Br  -1.078392
 Sum of APT charges =  -1.00000
 APT charges with hydrogens summed into heavy atoms:
               1
     1  C    1.251683
     5  Cl  -1.173290
     6  Br  -1.078392
 Electronic spatial extent (au):  <R**2>=           1123.5493
 Charge=             -1.0000 electrons
 Dipole moment (field-independent basis, Debye):
    X=              0.0008    Y=             -0.0248    Z=             -4.4577  Tot=              4.4577
 Quadrupole moment (field-independent basis, Debye-Ang):
   XX=            -42.4622   YY=            -42.4627   ZZ=            -85.5423
   XY=             -0.0000   XZ=              0.0022   YZ=             -0.2398
 Traceless Quadrupole moment (field-independent basis, Debye-Ang):
   XX=             14.3602   YY=             14.3597   ZZ=            -28.7199
   XY=             -0.0000   XZ=              0.0022   YZ=             -0.2398
 Octapole moment (field-independent basis, Debye-Ang**2):
  XXX=              1.0714  YYY=             -0.1873  ZZZ=           -143.8672  XYY=             -1.0693
  XXY=             -0.1541  XXZ=            -15.3413  XZZ=              0.0040  YZZ=             -0.6300
  YYZ=            -15.3440  XYZ=              0.0059
 Hexadecapole moment (field-independent basis, Debye-Ang**3):
 XXXX=            -61.1674 YYYY=            -61.2053 ZZZZ=          -1673.5573 XXXY=              0.0045
 XXXZ=              0.8199 YYYX=             -0.0132 YYYZ=             -3.5407 ZZZX=              0.0367
 ZZZY=             -5.3829 XXYY=            -20.3970 XXZZ=           -235.5010 YYZZ=           -235.5167
 XXYZ=             -1.2486 YYXZ=             -0.7895 ZZXY=              0.0089
 N-N= 1.735671065563D+02 E-N=-7.700145248767D+03  KE= 3.069818837287D+03
  Exact polarizability:  44.846   0.001  44.841  -0.004   0.636 158.992
 Approx polarizability:  60.449   0.000  60.453  -0.004   0.801 204.299
 No NMR shielding tensors so no spin-rotation constants.
 Leave Link  601 at Fri Oct 18 01:00:13 2019, MaxMem=   104857600 cpu:              13.1 elap:               0.6
 (Enter /share/home/wli/program/opt/Chem_soft/g16/l701.exe)
 ... and contract with generalized density number  0.
 Compute integral second derivatives.
 R6Disp: Adding Grimme-D3(BJ) dispersion energy 2nd derivatives to the Hessian.
 PrsmSu:  requested number of processors reduced to:   9 ShMem   1 Linda.
 PrsmSu:  requested number of processors reduced to:  13 ShMem   1 Linda.
   1 Symmetry operations used in ECPInt.
 ECPInt:  NShTT=    1378 NPrTT=    5593 LenC2=    1324 LenP2D=    4259.
 LDataN:  DoStor=T MaxTD1= 8 Len=  415
 D2PCM: C-PCM CHGder 2nd derivatives, FixD1E=F FixD2E=F DoIter=F DoCFld=F I1PDM=0
 GePol: Maximum number of non-zero 2nd derivatives   =     380
 CoulSu:  requested number of processors reduced to:  13 ShMem   1 Linda.
 CoulSu:  requested number of processors reduced to:  13 ShMem   1 Linda.
 CoulSu:  requested number of processors reduced to:  13 ShMem   1 Linda.
 CoulSu:  requested number of processors reduced to:  13 ShMem   1 Linda.
 Leave Link  701 at Fri Oct 18 01:00:14 2019, MaxMem=   104857600 cpu:              25.5 elap:               1.6
 (Enter /share/home/wli/program/opt/Chem_soft/g16/l702.exe)
 L702 exits ... SP integral derivatives will be done elsewhere.
 Leave Link  702 at Fri Oct 18 01:00:14 2019, MaxMem=   104857600 cpu:               1.1 elap:               0.1
 (Enter /share/home/wli/program/opt/Chem_soft/g16/l703.exe)
 Integral derivatives from FoFJK, PRISM(SPDF).
 Compute integral second derivatives, UseDBF=F ICtDFT=           0.
 Calling FoFJK, ICntrl=    100127 FMM=F ISym2X=0 I1Cent= 0 IOpClX= 0 NMat=1 NMatS=1 NMatT=0.
 FoFJK:  IHMeth= 1 ICntrl=  100127 DoSepK=F KAlg= 0 I1Cent=           0 FoldK=F
 IRaf=         0 NMat=       1 IRICut=       1 DoRegI=T DoRafI=F ISym2E= 0 IDoP0=0 IntGTp=1.
 FoFCou: FMM=F IPFlag=           0 FMFlag=      100000 FMFlg1=         800
         NFxFlg=           0 DoJE=F BraDBF=F KetDBF=F FulRan=T
         wScrn=  0.000000 ICntrl=    100127 IOpCl=  0 I1Cent=           0 NGrid=           0
         NMat0=    1 NMatS0=      1 NMatT0=    0 NMatD0=    1 NMtDS0=    0 NMtDT0=    0
 Symmetry not used in FoFCou.
 CoulSu:  requested number of processors reduced to:  13 ShMem   1 Linda.
 Leave Link  703 at Fri Oct 18 01:00:21 2019, MaxMem=   104857600 cpu:             115.0 elap:               6.1
 (Enter /share/home/wli/program/opt/Chem_soft/g16/l716.exe)
 Dipole        = 3.08137157D-04-9.75792484D-03-1.75378263D+00
 Polarizability= 4.48456799D+01 1.11905016D-03 4.48408097D+01
                -3.97526961D-03 6.35586470D-01 1.58991961D+02
 ***** Axes restored to original set *****
 -------------------------------------------------------------------
 Center     Atomic                   Forces (Hartrees/Bohr)
 Number     Number              X              Y              Z
 -------------------------------------------------------------------
      1        6          -0.003223151    0.000002735    0.000006892
      2        1          -0.000034709   -0.000479353   -0.000256642
      3        1          -0.000034577    0.000465068   -0.000282020
      4        1          -0.000028855    0.000012158    0.000547700
      5       17           0.001398426   -0.000000707   -0.000011364
      6       35           0.001922866    0.000000098   -0.000004566
 -------------------------------------------------------------------
 Cartesian Forces:  Max     0.003223151 RMS     0.000970015
 Force constants in Cartesian coordinates: 
                1             2             3             4             5 
      1 -0.433373D-01
      2 -0.125167D-04  0.678346D+00
      3 -0.887337D-04 -0.565028D-05  0.678245D+00
      4 -0.976800D-02  0.158777D-01  0.860895D-02  0.331863D-01
      5  0.141699D-01 -0.308336D+00 -0.137678D+00 -0.147447D-01  0.312004D+00
      6  0.768021D-02 -0.137670D+00 -0.128882D+00 -0.800480D-02  0.144820D+00
      7 -0.976268D-02 -0.153851D-01  0.945425D-02  0.273745D-02  0.147643D-02
      8 -0.137265D-01 -0.292993D+00  0.146536D+00 -0.152152D-02 -0.120139D-01
      9  0.842571D-02  0.146527D+00 -0.144215D+00 -0.780637D-03 -0.128894D-01
     10 -0.979548D-02 -0.495297D-03 -0.180494D-01  0.274064D-02  0.871396D-04
     11 -0.446511D-03 -0.545324D-01 -0.886913D-02 -0.148278D-02  0.428892D-02
     12 -0.160969D-01 -0.886055D-02 -0.382663D+00 -0.850232D-03  0.348011D-02
     13  0.358749D-01  0.195987D-04  0.776345D-04 -0.132802D-01  0.161673D-02
     14  0.195824D-04 -0.944626D-02  0.221193D-04 -0.483163D-02  0.177502D-02
     15  0.550486D-04  0.121062D-04 -0.946033D-02 -0.259690D-02  0.101812D-02
     16  0.367885D-01 -0.434152D-05 -0.270517D-05 -0.156162D-01 -0.260555D-02
     17 -0.393271D-05 -0.130385D-01 -0.558103D-05  0.670295D-02  0.228213D-02
     18  0.246189D-04 -0.365576D-05 -0.130246D-01  0.362362D-02  0.124908D-02
                6             7             8             9            10 
      6  0.123268D+00
      7 -0.861041D-03  0.332268D-01
      8  0.141004D-01  0.142847D-01  0.295844D+00
      9  0.104201D-01 -0.881955D-02 -0.154117D+00  0.139423D+00
     10  0.170358D-02  0.274127D-02  0.505310D-05  0.170541D-02  0.333090D-01
     11 -0.235182D-01  0.143549D-02  0.533895D-02  0.229128D-01  0.455808D-03
     12 -0.588839D-02 -0.929493D-03 -0.408707D-02 -0.694014D-02  0.167377D-01
     13  0.893907D-03 -0.133114D-01 -0.157329D-02  0.102298D-02 -0.133772D-01
     14  0.101858D-02  0.467852D-02  0.167214D-02 -0.110342D-02  0.150221D-03
     15  0.440785D-03 -0.282019D-02 -0.110176D-02  0.539990D-03  0.550658D-02
     16 -0.141186D-02 -0.156314D-01  0.253164D-02 -0.155391D-02 -0.156182D-01
     17  0.124866D-02 -0.649002D-02  0.215183D-02 -0.133020D-02 -0.202925D-03
     18  0.641418D-03  0.397602D-02 -0.133076D-02  0.772294D-03 -0.760389D-02
               11            12            13            14            15 
     11  0.450604D-01
     12  0.931576D-02  0.390340D+00
     13 -0.462772D-04 -0.183421D-02  0.276192D-01
     14 -0.140416D-03  0.708382D-04 -0.173393D-04  0.462767D-02
     15  0.793748D-04  0.217542D-02 -0.154202D-03 -0.806056D-05  0.479054D-02
     16  0.842721D-04  0.297307D-02 -0.235253D-01  0.000000D+00  0.966317D-05
     17 -0.154171D-04  0.809097D-04  0.000000D+00  0.151185D-02  0.000000D+00
     18  0.793935D-04  0.297588D-02 -0.610934D-05  0.000000D+00  0.151360D-02
               16            17            18 
     16  0.336027D-01
     17 -0.665928D-05  0.710811D-02
     18 -0.142650D-04  0.599457D-05  0.712138D-02
 FormGI is forming the generalized inverse of G from B-inverse, IUseBI=4.
 Force constants in internal coordinates: 
                1             2             3             4             5 
      1  0.391271D+00
      2 -0.137477D-03  0.391242D+00
      3 -0.136113D-03 -0.135452D-03  0.391368D+00
      4 -0.251607D-02 -0.254631D-02 -0.250946D-02  0.276193D-01
      5 -0.216966D-02 -0.217603D-02 -0.218161D-02  0.235253D-01  0.336027D-01
      6  0.167468D-02  0.167261D-02 -0.326915D-02  0.449341D-03 -0.524220D-03
      7  0.172080D-02 -0.324508D-02  0.173401D-02  0.953493D-03 -0.113896D-02
      8 -0.285101D-02  0.187642D-02  0.189504D-02  0.436095D-02 -0.532326D-02
      9 -0.390463D-02  0.154052D-02  0.141042D-02 -0.447569D-02  0.533863D-02
     10 -0.324569D-02  0.172147D-02  0.173676D-02  0.946445D-03 -0.113783D-02
     11  0.185791D-02 -0.287551D-02  0.187898D-02  0.440612D-02 -0.534158D-02
     12  0.152979D-02 -0.390443D-02  0.139939D-02 -0.449282D-02  0.534337D-02
     13  0.185194D-02  0.185337D-02 -0.261911D-02  0.469746D-02 -0.538873D-02
     14  0.151659D-02  0.151014D-02 -0.396584D-02 -0.449607D-02  0.537167D-02
     15 -0.675565D-02  0.341694D-02  0.330545D-02 -0.114745D-03  0.153704D-04
     16 -0.105765D-04  0.586396D-02 -0.570255D-02  0.166453D-03 -0.107820D-04
     17  0.114634D-02  0.114098D-02  0.985946D-03  0.153753D-01 -0.183306D-01
     18  0.177049D-02  0.176896D-02 -0.361741D-02 -0.318409D-03  0.409837D-03
     19 -0.147518D-02 -0.147408D-02  0.303969D-02  0.334003D-03 -0.408842D-03
     20 -0.181678D-02  0.358843D-02 -0.180663D-02 -0.164694D-03  0.206253D-03
     21  0.151986D-02 -0.299407D-02  0.151896D-02  0.171317D-03 -0.205223D-03
     22 -0.358727D-02  0.181947D-02  0.181078D-02  0.153715D-03 -0.203584D-03
     23  0.299504D-02 -0.151998D-02 -0.152073D-02 -0.162686D-03  0.203619D-03
                6             7             8             9            10 
      6  0.686741D-02
      7 -0.343033D-02  0.699811D-02
      8  0.797055D-03  0.116849D-02  0.248075D-01
      9 -0.929904D-03 -0.129631D-02 -0.153549D-01  0.309726D-01
     10 -0.343152D-02 -0.336788D-02 -0.120735D-02  0.146560D-02  0.699914D-02
     11  0.808228D-03 -0.120932D-02 -0.102145D-01  0.554907D-02  0.116111D-02
     12 -0.933258D-03  0.146474D-02  0.556422D-02 -0.133239D-01 -0.129362D-02
     13 -0.157249D-02  0.118610D-02 -0.102483D-01  0.544687D-02  0.119057D-02
     14  0.183195D-02 -0.131447D-02  0.544560D-02 -0.132902D-01 -0.131716D-02
     15 -0.132849D-03 -0.127817D-03  0.945261D-02  0.156177D-01  0.258245D-03
     16  0.223207D-03 -0.222377D-03 -0.888076D-04 -0.399951D-04  0.296758D-05
     17  0.728977D-03  0.958436D-03  0.502789D-02 -0.505709D-02  0.957305D-03
     18  0.676164D-02 -0.344433D-02 -0.480566D-03 -0.734192D-04 -0.344507D-02
     19 -0.673924D-02  0.343308D-02  0.565748D-04 -0.611452D-03  0.343396D-02
     20  0.337973D-02 -0.682754D-02  0.986114D-04  0.436340D-03  0.338377D-02
     21 -0.336888D-02  0.680489D-02  0.304199D-03  0.250325D-03 -0.337196D-02
     22 -0.338191D-02 -0.338320D-02  0.579177D-03  0.509759D-03  0.682884D-02
     23  0.337036D-02  0.337181D-02  0.247624D-03  0.861777D-03 -0.680592D-02
               11            12            13            14            15 
     11  0.247999D-01
     12 -0.153725D-01  0.309810D-01
     13 -0.102301D-01  0.544052D-02  0.250886D-01
     14  0.546778D-02 -0.132897D-01 -0.154972D-01  0.311646D-01
     15 -0.466542D-02 -0.775965D-02 -0.480142D-02 -0.784456D-02  0.250703D-01
     16 -0.820275D-02 -0.135605D-01  0.831387D-02  0.135794D-01 -0.128803D-03
     17  0.504094D-02 -0.506733D-02  0.508897D-02 -0.503342D-02 -0.291984D-04
     18 -0.468806D-03 -0.764959D-04  0.218159D-03  0.882775D-03 -0.553985D-03
     19  0.481351D-04 -0.608655D-03  0.626786D-03  0.487081D-03 -0.554877D-03
     20 -0.575733D-03 -0.508061D-03  0.110615D-03  0.439011D-03  0.534951D-03
     21 -0.249045D-03 -0.862464D-03  0.311466D-03  0.244790D-03  0.554524D-03
     22 -0.106927D-03 -0.431566D-03 -0.107544D-03 -0.443764D-03  0.108894D-02
     23 -0.297180D-03 -0.253809D-03 -0.315320D-03 -0.242291D-03  0.110940D-02
               16            17            18            19            20 
     16  0.252376D-01
     17  0.472939D-04  0.173313D-01
     18  0.952657D-03 -0.151680D-03  0.687971D-02
     19  0.967028D-03  0.154197D-03 -0.678301D-02  0.688051D-02
     20  0.944748D-03 -0.769467D-04  0.343898D-02 -0.339069D-02  0.688072D-02
     21  0.963605D-03  0.781412D-04 -0.339100D-02  0.343969D-02 -0.678569D-02
     22 -0.790980D-05  0.747330D-04 -0.344074D-02  0.339232D-02  0.344174D-02
     23 -0.342299D-05 -0.760558D-04  0.339201D-02 -0.344082D-02 -0.339499D-02
               21            22            23 
     21  0.688315D-02
     22 -0.339468D-02  0.688248D-02
     23  0.344346D-02 -0.678700D-02  0.688428D-02
 Leave Link  716 at Fri Oct 18 01:00:21 2019, MaxMem=   104857600 cpu:               2.6 elap:               0.1
 (Enter /share/home/wli/program/opt/Chem_soft/g16/l103.exe)

 GradGradGradGradGradGradGradGradGradGradGradGradGradGradGradGradGradGrad
 Berny optimization.
 Red2BG is reusing G-inverse.
 Internal  Forces:  Max     0.001922865 RMS     0.000533453
 Search for a saddle point.
 Step number   1 out of a maximum of   33
 All quantities printed in internal units (Hartrees-Bohrs-Radians)
 Swapping is turned off.
 Second derivative matrix not updated -- analytic derivatives used.
 ITU=  0
     Eigenvalues ---   -0.01423   0.03025   0.03037   0.04103   0.04155
     Eigenvalues ---    0.04596   0.05584   0.06338   0.06347   0.39113
     Eigenvalues ---    0.39195   0.39201
 Eigenvectors required to have negative eigenvalues:
                          R4        R5        D1        A8        A7
   1                   -0.58253   0.56310   0.47578   0.13994  -0.13890
                          A4        A6        A9        A3        A2
   1                   -0.13886   0.13827  -0.13826   0.13781   0.02583
 RFO step:  Lambda0=2.367870769D-04 Lambda=-4.72778124D-05.
 Linear search not attempted -- option 19 set.
 Iteration  1 RMS(Cart)=  0.01066482 RMS(Int)=  0.00039848
 Iteration  2 RMS(Cart)=  0.00020066 RMS(Int)=  0.00034421
 Iteration  3 RMS(Cart)=  0.00000000 RMS(Int)=  0.00034421
 ITry= 1 IFail=0 DXMaxC= 4.39D-02 DCOld= 1.00D+10 DXMaxT= 3.00D-01 DXLimC= 3.00D+00 Rises=F
 Variable       Old X    -DE/DX   Delta X   Delta X   Delta X     New X
                                 (Linear)    (Quad)   (Total)
    R1        2.02150   0.00054   0.00000   0.00092   0.00092   2.02242
    R2        2.02150   0.00054   0.00000   0.00092   0.00092   2.02242
    R3        2.02153   0.00055   0.00000   0.00097   0.00097   2.02249
    R4        4.61365   0.00140   0.00000  -0.06561  -0.06561   4.54804
    R5        4.56930  -0.00192   0.00000   0.05610   0.05610   4.62541
    A1        2.09003   0.00000   0.00000   0.00418   0.00323   2.09326
    A2        2.08995   0.00000   0.00000   0.00404   0.00309   2.09304
    A3        1.52013   0.00002   0.00000   0.02324   0.02320   1.54333
    A4        1.62132  -0.00003   0.00000  -0.02361  -0.02357   1.59775
    A5        2.08994   0.00000   0.00000   0.00406   0.00311   2.09306
    A6        1.52014   0.00002   0.00000   0.02330   0.02326   1.54340
    A7        1.62133  -0.00003   0.00000  -0.02360  -0.02356   1.59777
    A8        1.52038   0.00003   0.00000   0.02383   0.02379   1.54417
    A9        1.62148  -0.00001   0.00000  -0.02316  -0.02312   1.59837
   A10        3.14145  -0.00001   0.00000  -0.00037  -0.00037   3.14108
   A11        3.14182   0.00002   0.00000   0.00056   0.00057   3.14239
    D1        2.96690   0.00007   0.00000   0.08054   0.08068   3.04758
    D2        2.09447   0.00000   0.00000   0.00011   0.00009   2.09456
    D3       -2.09444   0.00000   0.00000  -0.00006  -0.00007  -2.09452
    D4       -2.09436   0.00000   0.00000   0.00006   0.00006  -2.09430
    D5        2.09437   0.00000   0.00000  -0.00004  -0.00005   2.09433
    D6        2.09436   0.00000   0.00000  -0.00005  -0.00004   2.09432
    D7       -2.09437  -0.00000   0.00000   0.00002   0.00003  -2.09434
         Item               Value     Threshold  Converged?
 Maximum Force            0.001923     0.000450     NO 
 RMS     Force            0.000533     0.000300     NO 
 Maximum Displacement     0.043923     0.001800     NO 
 RMS     Displacement     0.010649     0.001200     NO 
 Predicted change in Energy= 9.666963D-05
 Lowest energy point so far.  Saving SCF results.
 GradGradGradGradGradGradGradGradGradGradGradGradGradGradGradGradGradGrad

 Leave Link  103 at Fri Oct 18 01:00:22 2019, MaxMem=   104857600 cpu:              21.6 elap:               1.0
 (Enter /share/home/wli/program/opt/Chem_soft/g16/l202.exe)
                          Input orientation:                          
 ---------------------------------------------------------------------
 Center     Atomic      Atomic             Coordinates (Angstroms)
 Number     Number       Type             X           Y           Z
 ---------------------------------------------------------------------
      1          6           0        0.727543    0.000040    0.000526
      2          1           0        0.756651   -0.940579   -0.509135
      3          1           0        0.756626    0.911811   -0.559112
      4          1           0        0.756560    0.028886    1.070001
      5         17           0        3.134261   -0.000055   -0.000651
      6         35           0       -1.720116   -0.000042   -0.000583
 ---------------------------------------------------------------------
                    Distance matrix (angstroms):
                    1          2          3          4          5
     1  C    0.000000
     2  H    1.070218   0.000000
     3  H    1.070218   1.853064   0.000000
     4  H    1.070257   1.852979   1.852989   0.000000
     5  Cl   2.406719   2.606947   2.607015   2.607796   0.000000
     6  Br   2.447659   2.697705   2.697718   2.698316   4.854378
                    6
     6  Br   0.000000
 Stoichiometry    CH3BrCl(1-)
 Framework group  C1[X(CH3BrCl)]
 Deg. of freedom    12
 Full point group                 C1      NOp   1
 RotChk:  IX=3 Diff= 2.00D+00
 Largest Abelian subgroup         C1      NOp   1
 Largest concise Abelian subgroup C1      NOp   1
                         Standard orientation:                         
 ---------------------------------------------------------------------
 Center     Atomic      Atomic             Coordinates (Angstroms)
 Number     Number       Type             X           Y           Z
 ---------------------------------------------------------------------
      1          6           0       -0.732240   -0.000001    0.000955
      2          1           0       -0.761342    0.898939   -0.579068
      3          1           0       -0.761315   -0.951857   -0.487404
      4          1           0       -0.761272    0.052929    1.069507
      5         17           0       -3.138959   -0.000000   -0.000260
      6         35           0        1.715419    0.000000   -0.000124
 ---------------------------------------------------------------------
 Rotational constants (GHZ):         146.0407354           0.8638062           0.8638059
 Leave Link  202 at Fri Oct 18 01:00:22 2019, MaxMem=   104857600 cpu:               1.8 elap:               0.1
 (Enter /share/home/wli/program/opt/Chem_soft/g16/l301.exe)
 Standard basis: def2TZVP (5D, 7F)
 Ernie: Thresh=  0.10000D-02 Tol=  0.10000D-05 Strict=F.
 There are   151 symmetry adapted cartesian basis functions of A   symmetry.
 There are   134 symmetry adapted basis functions of A   symmetry.
   134 basis functions,   258 primitive gaussians,   151 cartesian basis functions
    31 alpha electrons       31 beta electrons
       nuclear repulsion energy       173.3928342108 Hartrees.
 IExCor=  402 DFT=T Ex+Corr=B3LYP ExCW=0 ScaHFX=  0.200000
 ScaDFX=  0.800000  0.720000  1.000000  0.810000 ScalE2=  1.000000  1.000000
 IRadAn=      5 IRanWt=     -1 IRanGd=            0 ICorTp=0 IEmpDi=141
 NAtoms=    6 NActive=    6 NUniq=    6 SFac= 1.00D+00 NAtFMM=   60 NAOKFM=F Big=F
 Integral buffers will be    131072 words long.
 Raffenetti 2 integral format.
 Two-electron integral symmetry is turned on.
 R6Disp:  Grimme-D3(BJ) Dispersion energy=       -0.0069983945 Hartrees.
 Nuclear repulsion after empirical dispersion term =      173.3858358163 Hartrees.
 Force inversion solution in PCM.
 ------------------------------------------------------------------------------
 Polarizable Continuum Model (PCM)
 =================================
 Model                : C-PCM.
 Atomic radii         : UFF (Universal Force Field).
 Polarization charges : Total charges.
 Charge compensation  : None.
 Solution method      : Matrix inversion.
 Cavity type          : Scaled VdW (van der Waals Surface) (Alpha=1.100).
 Cavity algorithm     : GePol (No added spheres)
                        Default sphere list used, NSphG=    6.
                        Lebedev-Laikov grids with approx.  5.0 points / Ang**2.
                        Smoothing algorithm: York/Karplus (Gamma=1.0000).
                        Polarization charges: spherical gaussians, with
                                              point-specific exponents (IZeta= 3).
                        Self-potential: point-specific (ISelfS= 7).
                        Self-field    : sphere-specific E.n sum rule (ISelfD= 2).
 1st derivatives      : Analytical E(r).r(x)/FMM algorithm (CHGder, D1EAlg=3).
                        Cavity 1st derivative terms included.
 2nd derivatives      : Analytical E(r).r(xy)/FMM algorithm (CHGder, D2EAlg=3).
                        Cavity 2nd derivative terms included.
 Solvent              : Benzene, Eps=   2.270600 Eps(inf)=   2.253301
 ------------------------------------------------------------------------------
 Spheres list:
 ISph  on   Nord     Re0    Alpha      Xe            Ye            Ze
    1   C      1    1.9255  1.100     -0.732240     -0.000001      0.000955
    2   H      2    1.4430  1.100     -0.761342      0.898939     -0.579068
    3   H      3    1.4430  1.100     -0.761315     -0.951857     -0.487404
    4   H      4    1.4430  1.100     -0.761272      0.052929      1.069507
    5  Cl      5    1.9735  1.100     -3.138959     -0.000000     -0.000260
    6  Br      6    2.0945  1.100      1.715419      0.000000     -0.000124
 ------------------------------------------------------------------------------
 GePol: Number of generator spheres                  =       6
 GePol: Total number of spheres                      =       6
 GePol: Number of exposed spheres                    =       6 (100.00%)
 GePol: Number of points                             =     874
 GePol: Average weight of points                     =       0.16
 GePol: Minimum weight of points                     =   0.35D-06
 GePol: Maximum weight of points                     =    0.21616
 GePol: Number of points with low weight             =      22
 GePol: Fraction of low-weight points (<1% of avg)   =       2.52%
 GePol: Cavity surface area                          =    136.426 Ang**2
 GePol: Cavity volume                                =    119.822 Ang**3
 Leave Link  301 at Fri Oct 18 01:00:22 2019, MaxMem=   104857600 cpu:               3.1 elap:               0.2
 (Enter /share/home/wli/program/opt/Chem_soft/g16/l302.exe)
 NPDir=0 NMtPBC=     1 NCelOv=     1 NCel=       1 NClECP=     1 NCelD=      1
         NCelK=      1 NCelE2=     1 NClLst=     1 CellRange=     0.0.
 One-electron integrals computed using PRISM.
 One-electron integral symmetry used in STVInt
 PrsmSu:  requested number of processors reduced to:  13 ShMem   1 Linda.
   1 Symmetry operations used in ECPInt.
 ECPInt:  NShTT=    1378 NPrTT=    5593 LenC2=    1324 LenP2D=    4260.
 LDataN:  DoStor=T MaxTD1= 6 Len=  172
 NBasis=   134 RedAO= T EigKep=  1.43D-03  NBF=   134
 NBsUse=   134 1.00D-06 EigRej= -1.00D+00 NBFU=   134
 Precomputing XC quadrature grid using
 IXCGrd= 4 IRadAn=           5 IRanWt=          -1 IRanGd=           0 AccXCQ= 0.00D+00.
 Generated NRdTot=       0 NPtTot=           0 NUsed=           0 NTot=          32
 NSgBfM=   150   150   150   150   150 MxSgAt=     6 MxSgA2=     6.
 Leave Link  302 at Fri Oct 18 01:00:23 2019, MaxMem=   104857600 cpu:              25.5 elap:               1.1
 (Enter /share/home/wli/program/opt/Chem_soft/g16/l303.exe)
 DipDrv:  MaxL=1.
 Leave Link  303 at Fri Oct 18 01:00:23 2019, MaxMem=   104857600 cpu:               2.9 elap:               0.1
 (Enter /share/home/wli/program/opt/Chem_soft/g16/l401.exe)
 Initial guess from the checkpoint file:  "ts_cpcm_benzene_maugccpvtz.chk"
 B after Tr=     0.000000   -0.000000    0.000000
         Rot=    0.706740    0.023093    0.706579   -0.027026 Ang=  90.06 deg.
 Guess basis will be translated and rotated to current coordinates.
 JPrj=2 DoOrth=T DoCkMO=T.
 Generating alternative initial guess.
 ExpMin= 9.52D-02 ExpMax= 5.65D+05 ExpMxC= 5.46D+03 IAcc=2 IRadAn=         4 AccDes= 0.00D+00
 Harris functional with IExCor=  402 and IRadAn=       4 diagonalized for initial guess.
 HarFok:  IExCor=  402 AccDes= 0.00D+00 IRadAn=         4 IDoV= 1 UseB2=F ITyADJ=14
 ICtDFT=  3500011 ScaDFX=  1.000000  1.000000  1.000000  1.000000
 FoFCou: FMM=F IPFlag=           0 FMFlag=      100000 FMFlg1=           0
         NFxFlg=           0 DoJE=T BraDBF=F KetDBF=T FulRan=T
         wScrn=  0.000000 ICntrl=       500 IOpCl=  0 I1Cent=   200000004 NGrid=           0
         NMat0=    1 NMatS0=      1 NMatT0=    0 NMatD0=    1 NMtDS0=    0 NMtDT0=    0
 Petite list used in FoFCou.
 Harris En= -3074.56985042472    
 Leave Link  401 at Fri Oct 18 01:00:24 2019, MaxMem=   104857600 cpu:              21.0 elap:               0.9
 (Enter /share/home/wli/program/opt/Chem_soft/g16/l502.exe)
 Keep R1 ints in memory in canonical form, NReq=64315121.
 FoFCou: FMM=F IPFlag=           0 FMFlag=           0 FMFlg1=           0
         NFxFlg=           0 DoJE=F BraDBF=F KetDBF=F FulRan=T
         wScrn=  0.000000 ICntrl=       600 IOpCl=  0 I1Cent=           0 NGrid=           0
         NMat0=    1 NMatS0=   9045 NMatT0=    0 NMatD0=    1 NMtDS0=    0 NMtDT0=    0
 Symmetry not used in FoFCou.
 Two-electron integral symmetry not used.
 Closed shell SCF:
 Using DIIS extrapolation, IDIIS=  1040.
 NGot=   104857600 LenX=    63896377 LenY=    63873135
 Requested convergence on RMS density matrix=1.00D-08 within 128 cycles.
 Requested convergence on MAX density matrix=1.00D-06.
 Requested convergence on             energy=1.00D-06.
 No special actions if energy rises.

 Cycle   1  Pass 1  IDiag  1:
 Inv3:  Mode=1 IEnd=     2291628.
 Iteration    1 A*A^-1 deviation from unit magnitude is 3.11D-15 for    252.
 Iteration    1 A*A^-1 deviation from orthogonality  is 1.03D-15 for    224    117.
 Iteration    1 A^-1*A deviation from unit magnitude is 3.11D-15 for    862.
 Iteration    1 A^-1*A deviation from orthogonality  is 2.22D-15 for    459    256.
 E= -3074.47270379654    
 DIIS: error= 1.46D-03 at cycle   1 NSaved=   1.
 NSaved= 1 IEnMin= 1 EnMin= -3074.47270379654     IErMin= 1 ErrMin= 1.46D-03
 ErrMax= 1.46D-03  0.00D+00 EMaxC= 1.00D-01 BMatC= 1.76D-04 BMatP= 1.76D-04
 IDIUse=3 WtCom= 9.85D-01 WtEn= 1.46D-02
 Coeff-Com:  0.100D+01
 Coeff-En:   0.100D+01
 Coeff:      0.100D+01
 Gap=     0.633 Goal=   None    Shift=    0.000
 GapD=    0.633 DampG=2.000 DampE=1.000 DampFc=2.0000 IDamp=-1.
 RMSDP=1.99D-04 MaxDP=4.08D-03              OVMax= 1.95D-02

 Cycle   2  Pass 1  IDiag  1:
 E= -3074.47300852572     Delta-E=       -0.000304729175 Rises=F Damp=F
 DIIS: error= 3.61D-04 at cycle   2 NSaved=   2.
 NSaved= 2 IEnMin= 2 EnMin= -3074.47300852572     IErMin= 2 ErrMin= 3.61D-04
 ErrMax= 3.61D-04  0.00D+00 EMaxC= 1.00D-01 BMatC= 2.56D-05 BMatP= 1.76D-04
 IDIUse=3 WtCom= 9.96D-01 WtEn= 3.61D-03
 Coeff-Com:  0.100D+00 0.900D+00
 Coeff-En:   0.000D+00 0.100D+01
 Coeff:      0.100D+00 0.900D+00
 Gap=     0.198 Goal=   None    Shift=    0.000
 RMSDP=1.10D-04 MaxDP=2.74D-03 DE=-3.05D-04 OVMax= 7.07D-03

 Cycle   3  Pass 1  IDiag  1:
 E= -3074.47299817081     Delta-E=        0.000010354911 Rises=F Damp=F
 DIIS: error= 4.61D-04 at cycle   3 NSaved=   3.
 NSaved= 3 IEnMin= 2 EnMin= -3074.47300852572     IErMin= 2 ErrMin= 3.61D-04
 ErrMax= 4.61D-04  0.00D+00 EMaxC= 1.00D-01 BMatC= 4.20D-05 BMatP= 2.56D-05
 IDIUse=3 WtCom= 3.18D-01 WtEn= 6.82D-01
 Coeff-Com: -0.202D-01 0.577D+00 0.443D+00
 Coeff-En:   0.000D+00 0.556D+00 0.444D+00
 Coeff:     -0.642D-02 0.563D+00 0.443D+00
 Gap=     0.198 Goal=   None    Shift=    0.000
 RMSDP=5.33D-05 MaxDP=1.48D-03 DE= 1.04D-05 OVMax= 4.52D-03

 Cycle   4  Pass 1  IDiag  1:
 E= -3074.47304561935     Delta-E=       -0.000047448544 Rises=F Damp=F
 DIIS: error= 4.68D-05 at cycle   4 NSaved=   4.
 NSaved= 4 IEnMin= 4 EnMin= -3074.47304561935     IErMin= 4 ErrMin= 4.68D-05
 ErrMax= 4.68D-05  0.00D+00 EMaxC= 1.00D-01 BMatC= 3.79D-07 BMatP= 2.56D-05
 IDIUse=1 WtCom= 1.00D+00 WtEn= 0.00D+00
 Coeff-Com: -0.126D-01 0.156D+00 0.136D+00 0.720D+00
 Coeff:     -0.126D-01 0.156D+00 0.136D+00 0.720D+00
 Gap=     0.198 Goal=   None    Shift=    0.000
 RMSDP=4.03D-06 MaxDP=9.80D-05 DE=-4.74D-05 OVMax= 3.97D-04

 Cycle   5  Pass 1  IDiag  1:
 E= -3074.47304579585     Delta-E=       -0.000000176499 Rises=F Damp=F
 DIIS: error= 1.85D-05 at cycle   5 NSaved=   5.
 NSaved= 5 IEnMin= 5 EnMin= -3074.47304579585     IErMin= 5 ErrMin= 1.85D-05
 ErrMax= 1.85D-05  0.00D+00 EMaxC= 1.00D-01 BMatC= 4.84D-08 BMatP= 3.79D-07
 IDIUse=1 WtCom= 1.00D+00 WtEn= 0.00D+00
 Coeff-Com: -0.409D-02 0.269D-01 0.354D-01 0.258D+00 0.684D+00
 Coeff:     -0.409D-02 0.269D-01 0.354D-01 0.258D+00 0.684D+00
 Gap=     0.198 Goal=   None    Shift=    0.000
 RMSDP=2.01D-06 MaxDP=6.38D-05 DE=-1.76D-07 OVMax= 1.68D-04

 Cycle   6  Pass 1  IDiag  1:
 E= -3074.47304582249     Delta-E=       -0.000000026639 Rises=F Damp=F
 DIIS: error= 1.35D-05 at cycle   6 NSaved=   6.
 NSaved= 6 IEnMin= 6 EnMin= -3074.47304582249     IErMin= 6 ErrMin= 1.35D-05
 ErrMax= 1.35D-05  0.00D+00 EMaxC= 1.00D-01 BMatC= 1.97D-08 BMatP= 4.84D-08
 IDIUse=1 WtCom= 1.00D+00 WtEn= 0.00D+00
 Coeff-Com: -0.397D-03-0.888D-02 0.286D-02 0.445D-01 0.414D+00 0.548D+00
 Coeff:     -0.397D-03-0.888D-02 0.286D-02 0.445D-01 0.414D+00 0.548D+00
 Gap=     0.198 Goal=   None    Shift=    0.000
 RMSDP=8.62D-07 MaxDP=1.86D-05 DE=-2.66D-08 OVMax= 8.88D-05

 Cycle   7  Pass 1  IDiag  1:
 E= -3074.47304584429     Delta-E=       -0.000000021798 Rises=F Damp=F
 DIIS: error= 1.83D-06 at cycle   7 NSaved=   7.
 NSaved= 7 IEnMin= 7 EnMin= -3074.47304584429     IErMin= 7 ErrMin= 1.83D-06
 ErrMax= 1.83D-06  0.00D+00 EMaxC= 1.00D-01 BMatC= 4.49D-10 BMatP= 1.97D-08
 IDIUse=1 WtCom= 1.00D+00 WtEn= 0.00D+00
 Coeff-Com:  0.975D-04-0.560D-02-0.609D-03 0.423D-02 0.115D+00 0.225D+00
 Coeff-Com:  0.662D+00
 Coeff:      0.975D-04-0.560D-02-0.609D-03 0.423D-02 0.115D+00 0.225D+00
 Coeff:      0.662D+00
 Gap=     0.198 Goal=   None    Shift=    0.000
 RMSDP=1.37D-07 MaxDP=2.78D-06 DE=-2.18D-08 OVMax= 1.00D-05

 Cycle   8  Pass 1  IDiag  1:
 E= -3074.47304584478     Delta-E=       -0.000000000492 Rises=F Damp=F
 DIIS: error= 2.84D-07 at cycle   8 NSaved=   8.
 NSaved= 8 IEnMin= 8 EnMin= -3074.47304584478     IErMin= 8 ErrMin= 2.84D-07
 ErrMax= 2.84D-07  0.00D+00 EMaxC= 1.00D-01 BMatC= 9.72D-12 BMatP= 4.49D-10
 IDIUse=1 WtCom= 1.00D+00 WtEn= 0.00D+00
 Coeff-Com:  0.371D-04-0.126D-02-0.113D-03 0.843D-03 0.138D-01 0.400D-01
 Coeff-Com:  0.184D+00 0.762D+00
 Coeff:      0.371D-04-0.126D-02-0.113D-03 0.843D-03 0.138D-01 0.400D-01
 Coeff:      0.184D+00 0.762D+00
 Gap=     0.198 Goal=   None    Shift=    0.000
 RMSDP=2.89D-08 MaxDP=9.60D-07 DE=-4.92D-10 OVMax= 8.84D-07

 Cycle   9  Pass 1  IDiag  1:
 E= -3074.47304584477     Delta-E=        0.000000000005 Rises=F Damp=F
 DIIS: error= 5.76D-08 at cycle   9 NSaved=   9.
 NSaved= 9 IEnMin= 8 EnMin= -3074.47304584478     IErMin= 9 ErrMin= 5.76D-08
 ErrMax= 5.76D-08  0.00D+00 EMaxC= 1.00D-01 BMatC= 6.98D-13 BMatP= 9.72D-12
 IDIUse=1 WtCom= 1.00D+00 WtEn= 0.00D+00
 Coeff-Com:  0.475D-05-0.608D-04 0.375D-04 0.454D-05-0.213D-02-0.267D-02
 Coeff-Com:  0.342D-02 0.237D+00 0.764D+00
 Coeff:      0.475D-05-0.608D-04 0.375D-04 0.454D-05-0.213D-02-0.267D-02
 Coeff:      0.342D-02 0.237D+00 0.764D+00
 Gap=     0.198 Goal=   None    Shift=    0.000
 RMSDP=9.30D-09 MaxDP=3.65D-07 DE= 5.46D-12 OVMax= 3.63D-07

 Error on total polarization charges =  0.01262
 SCF Done:  E(RB3LYP) =  -3074.47304584     A.U. after    9 cycles
            NFock=  9  Conv=0.93D-08     -V/T= 2.0015
 KE= 3.069819393039D+03 PE=-7.699883078613D+03 EE= 1.382204803913D+03
 Leave Link  502 at Fri Oct 18 01:00:28 2019, MaxMem=   104857600 cpu:              90.0 elap:               4.3
 (Enter /share/home/wli/program/opt/Chem_soft/g16/l801.exe)
 DoSCS=F DFT=T ScalE2(SS,OS)=  1.000000  1.000000
 Range of M.O.s used for correlation:     1   134
 NBasis=   134 NAE=    31 NBE=    31 NFC=     0 NFV=     0
 NROrb=    134 NOA=    31 NOB=    31 NVA=   103 NVB=   103
 Leave Link  801 at Fri Oct 18 01:00:28 2019, MaxMem=   104857600 cpu:               1.1 elap:               0.1
 (Enter /share/home/wli/program/opt/Chem_soft/g16/l1101.exe)
 Using compressed storage, NAtomX=     6.
 Will process      7 centers per pass.
 PrsmSu:  requested number of processors reduced to:  11 ShMem   1 Linda.
   1 Symmetry operations used in ECPInt.
 ECPInt:  NShTT=    1378 NPrTT=    5593 LenC2=    1324 LenP2D=    4260.
 LDataN:  DoStor=T MaxTD1= 7 Len=  274
 Number of processors reduced to  18 by ecpmxn.
 R6Disp: Adding Grimme-D3(BJ) dispersion energy 1st derivatives to the gradient.
 Leave Link 1101 at Fri Oct 18 01:00:29 2019, MaxMem=   104857600 cpu:               8.7 elap:               0.4
 (Enter /share/home/wli/program/opt/Chem_soft/g16/l1102.exe)
 Symmetrizing basis deriv contribution to polar:
 IMax=3 JMax=2 DiffMx= 0.00D+00
 Leave Link 1102 at Fri Oct 18 01:00:29 2019, MaxMem=   104857600 cpu:               2.1 elap:               0.1
 (Enter /share/home/wli/program/opt/Chem_soft/g16/l1110.exe)
 Forming Gx(P) for the SCF density, NAtomX=     6.
 Integral derivatives from FoFJK, PRISM(SPDF).
 Do as many integral derivatives as possible in FoFJK.
 G2DrvN: MDV=     104857020.
 G2DrvN: will do     7 centers at a time, making    1 passes.
 Calling FoFCou, ICntrl=  3107 FMM=F I1Cent=   0 AccDes= 0.00D+00.
 FoFJK:  IHMeth= 1 ICntrl=    3107 DoSepK=F KAlg= 0 I1Cent=           0 FoldK=F
 IRaf=         0 NMat=       1 IRICut=       1 DoRegI=T DoRafI=F ISym2E= 0 IDoP0=0 IntGTp=1.
 FoFCou: FMM=F IPFlag=           0 FMFlag=      100000 FMFlg1=           0
         NFxFlg=           0 DoJE=F BraDBF=F KetDBF=F FulRan=T
         wScrn=  0.000000 ICntrl=      3107 IOpCl=  0 I1Cent=           0 NGrid=           0
         NMat0=    1 NMatS0=      1 NMatT0=    0 NMatD0=    1 NMtDS0=    0 NMtDT0=    0
 Symmetry not used in FoFCou.
 NEqPCM:  Using equilibrium solvation (IEInf=0, Eps=   2.2706, EpsInf=   2.2533)
 G2PCM: DoFxE=T DoFxN=T DoGrad=T DoDP/DQ/DG/TGxP=FFFF NFrqRd=   0 IEInf=0 SqF1=F DoCFld=F IF1Alg=4.
 GePol: Maximum number of non-zero 1st derivatives   =     378
 CoulSu:  requested number of processors reduced to:  17 ShMem   1 Linda.
 CoulSu:  requested number of processors reduced to:  23 ShMem   1 Linda.
 End of G2Drv F.D. properties file   721 does not exist.
 End of G2Drv F.D. properties file   722 does not exist.
 End of G2Drv F.D. properties file   788 does not exist.
 Leave Link 1110 at Fri Oct 18 01:00:33 2019, MaxMem=   104857600 cpu:              96.8 elap:               4.1
 (Enter /share/home/wli/program/opt/Chem_soft/g16/l1002.exe)
 Minotr:  Closed shell wavefunction.
          IDoAtm=111111
 NEqPCM:  Using equilibrium solvation (IEInf=0, Eps=   2.2706, EpsInf=   2.2533)
          Direct CPHF calculation.
          Differentiating once with respect to electric field.
                with respect to dipole field.
          Differentiating once with respect to nuclear coordinates.
          Requested convergence is 1.0D-08 RMS, and 1.0D-07 maximum.
          Secondary convergence is 1.0D-12 RMS, and 1.0D-12 maximum.
          NewPWx=T KeepS1=F KeepF1=F KeepIn=T MapXYZ=F SortEE=F KeepMc=T.
         1761 words used for storage of precomputed grid.
 Keep R1 ints in memory in canonical form, NReq=64236638.
 FoFCou: FMM=F IPFlag=           0 FMFlag=           0 FMFlg1=           0
         NFxFlg=           0 DoJE=F BraDBF=F KetDBF=F FulRan=T
         wScrn=  0.000000 ICntrl=       600 IOpCl=  0 I1Cent=           0 NGrid=           0
         NMat0=    1 NMatS0=   9045 NMatT0=    0 NMatD0=    1 NMtDS0=    0 NMtDT0=    0
 Symmetry not used in FoFCou.
 Two-electron integral symmetry not used.
          MDV=     104857600 using IRadAn=       1.
          Solving linear equations simultaneously, MaxMat=       0.
 CoulSu:  requested number of processors reduced to:  13 ShMem   1 Linda.
 CoulSu:  requested number of processors reduced to:  13 ShMem   1 Linda.
          There are    21 degrees of freedom in the 1st order CPHF.  IDoFFX=6 NUNeed=     3.
     18 vectors produced by pass  0 Test12= 1.52D-14 4.76D-09 XBig12= 2.25D+02 1.44D+01.
 AX will form    18 AO Fock derivatives at one time.
 CoulSu:  requested number of processors reduced to:  15 ShMem   1 Linda.
 CoulSu:  requested number of processors reduced to:  14 ShMem   1 Linda.
     18 vectors produced by pass  1 Test12= 1.52D-14 4.76D-09 XBig12= 3.53D+01 2.20D+00.
 CoulSu:  requested number of processors reduced to:  15 ShMem   1 Linda.
 CoulSu:  requested number of processors reduced to:  14 ShMem   1 Linda.
     18 vectors produced by pass  2 Test12= 1.52D-14 4.76D-09 XBig12= 1.81D+00 3.03D-01.
 CoulSu:  requested number of processors reduced to:  15 ShMem   1 Linda.
 CoulSu:  requested number of processors reduced to:  14 ShMem   1 Linda.
     18 vectors produced by pass  3 Test12= 1.52D-14 4.76D-09 XBig12= 4.19D-02 4.23D-02.
 CoulSu:  requested number of processors reduced to:  15 ShMem   1 Linda.
 CoulSu:  requested number of processors reduced to:  14 ShMem   1 Linda.
     18 vectors produced by pass  4 Test12= 1.52D-14 4.76D-09 XBig12= 9.36D-04 1.07D-02.
 CoulSu:  requested number of processors reduced to:  15 ShMem   1 Linda.
 CoulSu:  requested number of processors reduced to:  14 ShMem   1 Linda.
     17 vectors produced by pass  5 Test12= 1.52D-14 4.76D-09 XBig12= 6.59D-06 8.01D-04.
 CoulSu:  requested number of processors reduced to:  15 ShMem   1 Linda.
 CoulSu:  requested number of processors reduced to:  14 ShMem   1 Linda.
      6 vectors produced by pass  6 Test12= 1.52D-14 4.76D-09 XBig12= 7.80D-09 1.83D-05.
 CoulSu:  requested number of processors reduced to:  23 ShMem   1 Linda.
 CoulSu:  requested number of processors reduced to:  22 ShMem   1 Linda.
      1 vectors produced by pass  7 Test12= 1.52D-14 4.76D-09 XBig12= 6.51D-12 5.37D-07.
      1 vectors produced by pass  8 Test12= 1.52D-14 4.76D-09 XBig12= 1.45D-14 3.16D-08.
 InvSVY:  IOpt=1 It=  1 EMax= 6.22D-15
 Solved reduced A of dimension   115 with    21 vectors.
 FullF1:  Do perturbations      1 to       3.
 Isotropic polarizability for W=    0.000000       83.17 Bohr**3.
 End of Minotr F.D. properties file   721 does not exist.
 End of Minotr F.D. properties file   722 does not exist.
 End of Minotr F.D. properties file   788 does not exist.
 Leave Link 1002 at Fri Oct 18 01:00:39 2019, MaxMem=   104857600 cpu:             126.7 elap:               5.9
 (Enter /share/home/wli/program/opt/Chem_soft/g16/l701.exe)
 ... and contract with generalized density number  0.
 Compute integral second derivatives.
 R6Disp: Adding Grimme-D3(BJ) dispersion energy 2nd derivatives to the Hessian.
 PrsmSu:  requested number of processors reduced to:   9 ShMem   1 Linda.
 PrsmSu:  requested number of processors reduced to:  13 ShMem   1 Linda.
   1 Symmetry operations used in ECPInt.
 ECPInt:  NShTT=    1378 NPrTT=    5593 LenC2=    1324 LenP2D=    4260.
 LDataN:  DoStor=T MaxTD1= 8 Len=  415
 D2PCM: C-PCM CHGder 2nd derivatives, FixD1E=F FixD2E=F DoIter=F DoCFld=F I1PDM=0
 GePol: Maximum number of non-zero 2nd derivatives   =     378
 CoulSu:  requested number of processors reduced to:  13 ShMem   1 Linda.
 CoulSu:  requested number of processors reduced to:  13 ShMem   1 Linda.
 CoulSu:  requested number of processors reduced to:  13 ShMem   1 Linda.
 CoulSu:  requested number of processors reduced to:  13 ShMem   1 Linda.
 Leave Link  701 at Fri Oct 18 01:00:41 2019, MaxMem=   104857600 cpu:              24.9 elap:               1.6
 (Enter /share/home/wli/program/opt/Chem_soft/g16/l702.exe)
 L702 exits ... SP integral derivatives will be done elsewhere.
 Leave Link  702 at Fri Oct 18 01:00:41 2019, MaxMem=   104857600 cpu:               1.1 elap:               0.1
 (Enter /share/home/wli/program/opt/Chem_soft/g16/l703.exe)
 Integral derivatives from FoFJK, PRISM(SPDF).
 Compute integral second derivatives, UseDBF=F ICtDFT=           0.
 Calling FoFJK, ICntrl=    100127 FMM=F ISym2X=0 I1Cent= 0 IOpClX= 0 NMat=1 NMatS=1 NMatT=0.
 FoFJK:  IHMeth= 1 ICntrl=  100127 DoSepK=F KAlg= 0 I1Cent=           0 FoldK=F
 IRaf=         0 NMat=       1 IRICut=       1 DoRegI=T DoRafI=F ISym2E= 0 IDoP0=0 IntGTp=1.
 FoFCou: FMM=F IPFlag=           0 FMFlag=      100000 FMFlg1=         800
[...]
     14 -0.199625D-04 -0.106140D-01 -0.890755D-05 -0.535736D-02  0.192826D-02
     15 -0.276821D-04  0.883200D-05 -0.105892D-01 -0.281599D-02  0.108018D-02
     16  0.361565D-01  0.678062D-05 -0.615619D-05 -0.151272D-01 -0.238933D-02
     17  0.657081D-05 -0.118676D-01  0.000000D+00  0.625639D-02  0.213538D-02
     18  0.405594D-04  0.000000D+00 -0.118588D-01  0.337435D-02  0.117107D-02
                6             7             8             9            10 
      6  0.123330D+00
      7 -0.485505D-03  0.328496D-01
      8  0.140755D-01  0.772458D-02  0.295588D+00
      9  0.104398D-01 -0.473222D-02 -0.153854D+00  0.139409D+00
     10  0.934904D-03  0.266623D-02  0.162292D-04  0.936140D-03  0.329292D-01
     11 -0.234455D-01  0.795887D-03  0.538449D-02  0.228424D-01  0.243830D-03
     12 -0.578858D-02 -0.497861D-03 -0.411515D-02 -0.682908D-02  0.902441D-02
     13  0.104361D-02 -0.141352D-01 -0.172164D-02  0.104580D-02 -0.141711D-01
     14  0.108934D-02  0.517388D-02  0.178670D-02 -0.113918D-02  0.162028D-03
     15  0.477316D-03 -0.317287D-02 -0.113405D-02  0.623668D-03  0.609267D-02
     16 -0.129975D-02 -0.151249D-01  0.230315D-02 -0.142503D-02 -0.150959D-01
     17  0.117057D-02 -0.607400D-02  0.198882D-02 -0.123877D-02 -0.197086D-03
     18  0.577393D-03  0.370778D-02 -0.123851D-02  0.710761D-03 -0.710820D-02
               11            12            13            14            15 
     11  0.452189D-01
     12  0.930293D-02  0.389794D+00
     13 -0.622007D-04 -0.200158D-02  0.278235D-01
     14 -0.812037D-04  0.530791D-04  0.353962D-04  0.545038D-02
     15  0.396061D-04  0.237608D-02 -0.996045D-04  0.564741D-05  0.558163D-02
     16  0.636496D-04  0.271035D-02 -0.238346D-01  0.602134D-05  0.234730D-04
     17 -0.257559D-04  0.812569D-04 -0.160406D-05  0.152987D-02  0.000000D+00
     18  0.805879D-04  0.276321D-02 -0.116042D-04  0.000000D+00  0.153051D-02
               16            17            18 
     16  0.330262D-01
     17  0.973009D-05  0.623927D-02
     18 -0.288583D-05 -0.126707D-04  0.627690D-02
 FormGI is forming the generalized inverse of G from B-inverse, IUseBI=4.
 Force constants in internal coordinates: 
                1             2             3             4             5 
      1  0.390219D+00
      2 -0.160543D-03  0.390264D+00
      3 -0.156426D-03 -0.157007D-03  0.390272D+00
      4 -0.243032D-02 -0.239709D-02 -0.238736D-02  0.278236D-01
      5 -0.230689D-02 -0.229578D-02 -0.230198D-02  0.238346D-01  0.330262D-01
      6  0.164423D-02  0.164904D-02 -0.328899D-02  0.264790D-03 -0.266680D-03
      7  0.167502D-02 -0.327853D-02  0.167322D-02  0.528641D-03 -0.587470D-03
      8 -0.321249D-02  0.180980D-02  0.180412D-02  0.476452D-02 -0.514304D-02
      9 -0.364832D-02  0.160818D-02  0.153028D-02 -0.478071D-02  0.512919D-02
     10 -0.327888D-02  0.167067D-02  0.167182D-02  0.550189D-03 -0.592603D-03
     11  0.184246D-02 -0.316382D-02  0.181621D-02  0.466896D-02 -0.512667D-02
     12  0.162761D-02 -0.363537D-02  0.153197D-02 -0.477094D-02  0.514387D-02
     13  0.180057D-02  0.179322D-02 -0.302599D-02  0.486222D-02 -0.512327D-02
     14  0.159199D-02  0.158968D-02 -0.366013D-02 -0.474418D-02  0.512009D-02
     15 -0.686080D-02  0.341798D-02  0.333440D-02 -0.161941D-04 -0.138450D-04
     16 -0.432531D-04  0.588142D-02 -0.579759D-02  0.126887D-03 -0.115494D-04
     17  0.583106D-03  0.593481D-03  0.507246D-03  0.164535D-01 -0.177155D-01
     18  0.171173D-02  0.171600D-02 -0.346605D-02 -0.183278D-03  0.221141D-03
     19 -0.155219D-02 -0.155675D-02  0.315071D-02  0.181072D-03 -0.212883D-03
     20 -0.174240D-02  0.345214D-02 -0.173410D-02 -0.783375D-04  0.107315D-03
     21  0.157946D-02 -0.313237D-02  0.157604D-02  0.795729D-04 -0.104282D-03
     22 -0.345413D-02  0.173614D-02  0.173196D-02  0.104941D-03 -0.113826D-03
     23  0.313165D-02 -0.157561D-02 -0.157467D-02 -0.101499D-03  0.108600D-03
                6             7             8             9            10 
      6  0.682984D-02
      7 -0.341475D-02  0.686775D-02
      8  0.455246D-03  0.630351D-03  0.264158D-01
      9 -0.516308D-03 -0.685203D-03 -0.155046D-01  0.299209D-01
     10 -0.341342D-02 -0.339645D-02 -0.678662D-03  0.794406D-03  0.686691D-02
     11  0.439625D-03 -0.678639D-03 -0.110368D-01  0.565424D-02  0.642799D-03
     12 -0.496192D-03  0.788596D-03  0.559756D-02 -0.127793D-01 -0.699018D-03
     13 -0.874021D-03  0.648575D-03 -0.110508D-01  0.551958D-02  0.640936D-03
     14  0.997223D-03 -0.706238D-03  0.557809D-02 -0.128116D-01 -0.703505D-03
     15 -0.610621D-04 -0.548512D-04  0.109112D-01  0.144163D-01  0.115745D-03
     16  0.107224D-03 -0.986701D-04 -0.210681D-04 -0.975078D-04 -0.523088D-05
     17  0.391146D-03  0.506487D-03  0.500356D-02 -0.500894D-02  0.512533D-03
     18  0.679758D-02 -0.341757D-02 -0.274435D-03 -0.492232D-04 -0.341688D-02
     19 -0.679247D-02  0.341489D-02  0.702264D-05 -0.283950D-03  0.341392D-02
     20  0.339980D-02 -0.681787D-02  0.794959D-04  0.223497D-03  0.339997D-02
     21 -0.339738D-02  0.681224D-02  0.158741D-03  0.129394D-03 -0.339694D-02
     22 -0.339778D-02 -0.340030D-02  0.353931D-03  0.272721D-03  0.681685D-02
     23  0.339508D-02  0.339735D-02  0.151718D-03  0.413343D-03 -0.681086D-02
               11            12            13            14            15 
     11  0.264253D-01
     12 -0.154841D-01  0.298871D-01
     13 -0.110941D-01  0.556124D-02  0.265688D-01
     14  0.553467D-02 -0.127834D-01 -0.155034D-01  0.299874D-01
     15 -0.538256D-02 -0.718169D-02 -0.553119D-02 -0.723347D-02  0.253275D-01
     16 -0.952964D-02 -0.124894D-01  0.958753D-02  0.125530D-01 -0.118576D-03
     17  0.496416D-02 -0.500185D-02  0.503606D-02 -0.499304D-02 -0.537862D-05
     18 -0.292035D-03 -0.265078D-04  0.177436D-03  0.470424D-03 -0.323659D-03
     19  0.189002D-04 -0.302186D-03  0.357604D-03  0.197104D-03 -0.276927D-03
     20 -0.357309D-03 -0.266922D-03  0.867407D-04  0.237086D-03  0.302993D-03
     21 -0.151190D-03 -0.417517D-03  0.181742D-03  0.963254D-04  0.288134D-03
     22 -0.652738D-04 -0.240414D-03 -0.906948D-04 -0.233338D-03  0.626652D-03
     23 -0.170091D-03 -0.115330D-03 -0.175862D-03 -0.100778D-03  0.565061D-03
               16            17            18            19            20 
     16  0.255055D-01
     17  0.464718D-04  0.172746D-01
     18  0.561618D-03 -0.821308D-04  0.683474D-02
     19  0.480625D-03  0.759827D-04 -0.680392D-02  0.682973D-02
     20  0.549388D-03 -0.368223D-04  0.341814D-02 -0.340272D-02  0.683563D-02
     21  0.487197D-03  0.348579D-04 -0.340285D-02  0.341578D-02 -0.680625D-02
     22 -0.122297D-04  0.453084D-04 -0.341661D-02  0.340121D-02  0.341750D-02
     23  0.657277D-05 -0.411247D-04  0.340107D-02 -0.341394D-02 -0.340353D-02
               21            22            23 
     21  0.683303D-02
     22 -0.340340D-02  0.683410D-02
     23  0.341725D-02 -0.680461D-02  0.683120D-02
 Leave Link  716 at Fri Oct 18 01:01:13 2019, MaxMem=   104857600 cpu:               6.0 elap:               0.3
 (Enter /share/home/wli/program/opt/Chem_soft/g16/l103.exe)

 GradGradGradGradGradGradGradGradGradGradGradGradGradGradGradGradGradGrad
 Berny optimization.
 Red2BG is reusing G-inverse.
 Internal  Forces:  Max     0.000042023 RMS     0.000018783
 Search for a saddle point.
 Step number   1 out of a maximum of    2
 All quantities printed in internal units (Hartrees-Bohrs-Radians)
 Swapping is turned off.
 Second derivative matrix not updated -- analytic derivatives used.
 ITU=  0
     Eigenvalues ---   -0.01493   0.03040   0.03043   0.04304   0.04355
     Eigenvalues ---    0.04676   0.05496   0.06213   0.06218   0.39004
     Eigenvalues ---    0.39095   0.39098
 Eigenvectors required to have negative eigenvalues:
                          R4        R5        D1        A7        A8
   1                   -0.58785   0.55764   0.47769  -0.13859   0.13857
                          A3        A4        A9        A6        A5
   1                    0.13846  -0.13843  -0.13787   0.13785   0.01402
 Angle between quadratic step and forces=  71.66 degrees.
 Linear search not attempted -- option 19 set.
 Iteration  1 RMS(Cart)=  0.00024677 RMS(Int)=  0.00000001
 Iteration  2 RMS(Cart)=  0.00000001 RMS(Int)=  0.00000001
 ITry= 1 IFail=0 DXMaxC= 1.04D-03 DCOld= 1.00D+10 DXMaxT= 3.00D-01 DXLimC= 3.00D+00 Rises=F
 Variable       Old X    -DE/DX   Delta X   Delta X   Delta X     New X
                                 (Linear)    (Quad)   (Total)
    R1        2.02242   0.00004   0.00000   0.00009   0.00009   2.02251
    R2        2.02242   0.00004   0.00000   0.00010   0.00010   2.02252
    R3        2.02249   0.00004   0.00000   0.00010   0.00010   2.02259
    R4        4.54804  -0.00004   0.00000   0.00015   0.00015   4.54819
    R5        4.62541  -0.00003   0.00000  -0.00142  -0.00142   4.62398
    A1        2.09326  -0.00000   0.00000  -0.00003  -0.00003   2.09323
    A2        2.09304   0.00000   0.00000   0.00000   0.00000   2.09304
    A3        1.54333   0.00001   0.00000  -0.00006  -0.00006   1.54326
    A4        1.59775  -0.00001   0.00000   0.00004   0.00004   1.59779
    A5        2.09306   0.00000   0.00000  -0.00001  -0.00001   2.09305
    A6        1.54340   0.00000   0.00000  -0.00013  -0.00013   1.54326
    A7        1.59777  -0.00000   0.00000   0.00015   0.00015   1.59792
    A8        1.54417   0.00000   0.00000  -0.00016  -0.00016   1.54402
    A9        1.59837  -0.00000   0.00000   0.00016   0.00016   1.59852
   A10        3.14108  -0.00000   0.00000  -0.00002  -0.00002   3.14106
   A11        3.14239  -0.00000   0.00000  -0.00001  -0.00001   3.14238
    D1        3.04758   0.00002   0.00000  -0.00040  -0.00040   3.04718
    D2        2.09456  -0.00000   0.00000  -0.00002  -0.00002   2.09454
    D3       -2.09452   0.00000   0.00000   0.00002   0.00002  -2.09450
    D4       -2.09430  -0.00000   0.00000  -0.00001  -0.00001  -2.09432
    D5        2.09433   0.00000   0.00000   0.00001   0.00001   2.09434
    D6        2.09432   0.00000   0.00000   0.00001   0.00001   2.09432
    D7       -2.09434  -0.00000   0.00000  -0.00001  -0.00001  -2.09435
         Item               Value     Threshold  Converged?
 Maximum Force            0.000042     0.000450     YES
 RMS     Force            0.000019     0.000300     YES
 Maximum Displacement     0.001043     0.001800     YES
 RMS     Displacement     0.000247     0.001200     YES
 Predicted change in Energy=-2.168393D-08
 Optimization completed.
    -- Stationary point found.
                           ----------------------------
                           !   Optimized Parameters   !
                           ! (Angstroms and Degrees)  !
 --------------------------                            --------------------------
 ! Name  Definition              Value          Derivative Info.                !
 --------------------------------------------------------------------------------
 ! R1    R(1,2)                  1.0702         -DE/DX =    0.0                 !
 ! R2    R(1,3)                  1.0702         -DE/DX =    0.0                 !
 ! R3    R(1,4)                  1.0703         -DE/DX =    0.0                 !
 ! R4    R(1,5)                  2.4067         -DE/DX =    0.0                 !
 ! R5    R(1,6)                  2.4477         -DE/DX =    0.0                 !
 ! A1    A(2,1,3)              119.9349         -DE/DX =    0.0                 !
 ! A2    A(2,1,4)              119.9223         -DE/DX =    0.0                 !
 ! A3    A(2,1,5)               88.4261         -DE/DX =    0.0                 !
 ! A4    A(2,1,6)               91.5445         -DE/DX =    0.0                 !
 ! A5    A(3,1,4)              119.9232         -DE/DX =    0.0                 !
 ! A6    A(3,1,5)               88.4301         -DE/DX =    0.0                 !
 ! A7    A(3,1,6)               91.5453         -DE/DX =    0.0                 !
 ! A8    A(4,1,5)               88.4745         -DE/DX =    0.0                 !
 ! A9    A(4,1,6)               91.5796         -DE/DX =    0.0                 !
 ! A10   L(5,1,6,2,-1)         179.9706         -DE/DX =    0.0                 !
 ! A11   L(5,1,6,2,-2)         180.0455         -DE/DX =    0.0                 !
 ! D1    D(2,1,4,3)            174.6134         -DE/DX =    0.0                 !
 ! D2    D(2,1,5,3)            120.0096         -DE/DX =    0.0                 !
 ! D3    D(2,1,6,3)           -120.007          -DE/DX =    0.0                 !
 ! D4    D(2,1,5,4)           -119.9948         -DE/DX =    0.0                 !
 ! D5    D(2,1,6,4)            119.996          -DE/DX =    0.0                 !
 ! D6    D(3,1,5,4)            119.9956         -DE/DX =    0.0                 !
 ! D7    D(3,1,6,4)           -119.997          -DE/DX =    0.0                 !
 --------------------------------------------------------------------------------
 GradGradGradGradGradGradGradGradGradGradGradGradGradGradGradGradGradGrad

 Leave Link  103 at Fri Oct 18 01:01:14 2019, MaxMem=   104857600 cpu:              13.1 elap:               0.6
 (Enter /share/home/wli/program/opt/Chem_soft/g16/l9999.exe)

 ----------------------------------------------------------------------

 Electric dipole moment (input orientation):
 (Debye = 10**-18 statcoulomb cm , SI units = C m)
                  (au)            (Debye)         (10**-30 SI)
   Tot        0.151591D+01      0.385307D+01      0.128524D+02
   x         -0.151591D+01     -0.385307D+01     -0.128524D+02
   y          0.121658D-03      0.309225D-03      0.103146D-02
   z          0.891424D-03      0.226577D-02      0.755781D-02

 Dipole polarizability, Alpha (input orientation).
 (esu units = cm**3 , SI units = C**2 m**2 J**-1)
 Alpha(0;0):
               (au)            (10**-24 esu)      (10**-40 SI)
   iso        0.831707D+02      0.123246D+02      0.137130D+02
   aniso      0.114738D+03      0.170024D+02      0.189178D+02
   xx         0.159663D+03      0.236596D+02      0.263248D+02
   yx        -0.640872D-03     -0.949675D-04     -0.105666D-03
   yy         0.449211D+02      0.665662D+01      0.740649D+01
   zx         0.521760D-03      0.773169D-04      0.860266D-04
   zy         0.277555D-02      0.411294D-03      0.457626D-03
   zz         0.449282D+02      0.665767D+01      0.740765D+01

 ----------------------------------------------------------------------

 Dipole orientation:
     6          0.00180343          0.00018554         -1.37485596
     1         -0.96142691         -1.77724559         -1.43057173
     1         -1.05559025          1.72327180         -1.43029843
     1          2.02285351          0.05453873         -1.42849699
    17          0.00225212          0.00037028         -5.92289542
    35         -0.00301290         -0.00034078          3.25054713

 Electric dipole moment (dipole orientation):
 (Debye = 10**-18 statcoulomb cm , SI units = C m)
                  (au)            (Debye)         (10**-30 SI)
   Tot        0.151591D+01      0.385307D+01      0.128524D+02
   x          0.000000D+00      0.000000D+00      0.000000D+00
   y          0.000000D+00      0.000000D+00      0.000000D+00
   z          0.151591D+01      0.385307D+01      0.128524D+02

 Dipole polarizability, Alpha (dipole orientation).
 (esu units = cm**3 , SI units = C**2 m**2 J**-1)
 Alpha(0;0):
               (au)            (10**-24 esu)      (10**-40 SI)
   iso        0.831707D+02      0.123246D+02      0.137130D+02
   aniso      0.114738D+03      0.170024D+02      0.189178D+02
   xx         0.449282D+02      0.665767D+01      0.740766D+01
   yx         0.278006D-02      0.411963D-03      0.458370D-03
   yy         0.449211D+02      0.665662D+01      0.740649D+01
   zx        -0.679912D-01     -0.100753D-01     -0.112102D-01
   zy        -0.856054D-02     -0.126854D-02     -0.141144D-02
   zz         0.159663D+03      0.236596D+02      0.263248D+02

 ----------------------------------------------------------------------
 1\1\GINC-C01N07\Freq\RB3LYP\def2TZVP\C1H3Br1Cl1(1-)\ROOT\18-Oct-2019\0
 \\#P Geom=AllCheck Guess=TCheck SCRF=Check GenChk RB3LYP/def2TZVP Freq
 \\Title Card Required\\-1,1\C,0.727542883,0.0000398728,0.0005264974\H,
 0.7566512115,-0.9405794209,-0.5091348089\H,0.7566258634,0.911810613,-0
 .559112469\H,0.756559715,0.028885845,1.070000953\Cl,3.134261441,-0.000
 0554981,-0.000651333\Br,-1.7201161139,-0.0000424118,-0.0005828395\\Ver
 sion=ES64L-G16RevA.03\State=1-A\HF=-3074.4730458\RMSD=1.393e-09\RMSF=2
 .448e-05\ZeroPoint=0.0366573\Thermal=0.0414731\Dipole=-1.5159126,0.000
 1217,0.0008914\DipoleDeriv=3.9286865,0.0001388,0.0000263,0.0000566,0.0
 356139,0.0002134,-0.0001115,0.0000901,0.0366502,-0.2179554,0.0049975,0
 .0026115,-0.0203145,0.0736879,-0.0021926,-0.0110533,-0.0022723,0.07633
 51,-0.2181676,-0.0050891,0.0030103,0.0196069,0.0736969,0.002296,-0.012
 0779,0.0025774,0.0757134,-0.2177122,-0.0003171,-0.0063531,0.0004758,0.
 077455,-0.0003003,0.0227347,-0.000299,0.0710143,-2.2119102,0.0003154,0
 .0004432,0.0002403,-0.6533441,0.0001177,0.0013032,0.0000149,-0.6530692
 ,-2.0629411,-0.0000455,0.0002618,-0.0000651,-0.6071097,-0.0001343,-0.0
 007951,-0.0001111,-0.6066438\Polar=159.6627102,-0.0006409,44.9211283,0
 .0005218,0.0027755,44.9281552\Quadrupole=-20.9499749,10.4753739,10.474
 601,0.0001611,0.0019111,-0.0000759\PG=C01 [X(C1H3Br1Cl1)]\NImag=1\\-0.
 04780957,-0.00001934,0.67838285,-0.00005251,-0.00001351,0.67815369,-0.
 00893332,0.00870658,0.00473453,0.03291351,0.00774362,-0.30818687,-0.13
 742387,-0.00795301,0.31165368,0.00420129,-0.13742015,-0.12903597,-0.00
 439455,0.14453019,0.12333005,-0.00891510,-0.00842377,0.00518068,0.0026
 5944,0.00080342,-0.00048551,0.03284959,-0.00749244,-0.29287645,0.14626
 648,-0.00082988,-0.01187198,0.01407549,0.00772458,0.29558843,0.0046178
 0,0.14626046,-0.14435396,-0.00044249,-0.01287060,0.01043980,-0.0047322
 2,-0.15385427,0.13940881,-0.00899677,-0.00025860,-0.00987992,0.0026683
 7,0.00003360,0.00093490,0.00266623,0.00001623,0.00093614,0.03292915,-0
 .00021845,-0.05483794,-0.00882003,-0.00082272,0.00434152,-0.02344545,0
 .00079589,0.00538449,0.02284235,0.00024383,0.04521889,-0.00877946,-0.0
 0883514,-0.38231577,-0.00045585,0.00351303,-0.00578858,-0.00049786,-0.
 00411515,-0.00682908,0.00902441,0.00930293,0.38979414,0.03849821,-0.00
 001166,0.00002338,-0.01418078,0.00176171,0.00104361,-0.01413524,-0.001
 72164,0.00104580,-0.01417106,-0.00006220,-0.00200158,0.02782348,-0.000
 01996,-0.01061401,-0.00000891,-0.00535736,0.00192826,0.00108934,0.0051
 7388,0.00178670,-0.00113918,0.00016203,-0.00008120,0.00005308,0.000035
 40,0.00545038,-0.00002768,0.00000883,-0.01058921,-0.00281599,0.0010801
 8,0.00047732,-0.00317287,-0.00113405,0.00062367,0.00609267,0.00003961,
 0.00237608,-0.00009960,0.00000565,0.00558163,0.03615654,0.00000678,-0.
 00000616,-0.01512722,-0.00238933,-0.00129975,-0.01512493,0.00230315,-0
 .00142503,-0.01509593,0.00006365,0.00271035,-0.02383462,0.00000602,0.0
 0002347,0.03302616,0.00000657,-0.01186759,-0.00000017,0.00625639,0.002
 13538,0.00117057,-0.00607400,0.00198882,-0.00123877,-0.00019709,-0.000
 02576,0.00008126,-0.00000160,0.00152987,-0.00000021,0.00000973,0.00623
 927,0.00004056,-0.00000050,-0.01185878,0.00337435,0.00117107,0.0005773
 9,0.00370778,-0.00123851,0.00071076,-0.00710820,0.00008059,0.00276321,
 -0.00001160,0.00000002,0.00153051,-0.00000289,-0.00001267,0.00627690\\
 -0.00004860,0.00000301,-0.00000216,0.00001981,0.00003417,0.00001798,0.
 00001311,-0.00003446,0.00002489,0.00000867,-0.00000362,-0.00004072,0.0
 0004037,0.00000076,0.00000546,-0.00003335,0.00000014,-0.00000545\\\@


 Not by the face shall a man be known, but by the mask.
                               -- Karen Blixen
 Job cpu time:       0 days  0 hours  8 minutes 43.2 seconds.
 Elapsed time:       0 days  0 hours  0 minutes 25.2 seconds.
 File lengths (MBytes):  RWF=    272 Int=      0 D2E=      0 Chk=     32 Scr=     32
 Normal termination of Gaussian 16 at Fri Oct 18 01:01:14 2019.
