 Entering Gaussian System, Link 0=g16
 Input=ts_def2tzvp_scrf_smd_benzene.gjf
 Output=ts_def2tzvp_scrf_smd_benzene.log
 Initial command:
 /share/home/wli/program/opt/Chem_soft/g16/l1.exe "/scratch/wli/Gau-16691.inp" -scrdir="/scratch/wli/"
 Entering Link 1 = /share/home/wli/program/opt/Chem_soft/g16/l1.exe PID=     16692.
  
 Copyright (c) 1988,1990,1992,1993,1995,1998,2003,2009,2016,
            Gaussian, Inc.  All Rights Reserved.
  
 This is part of the Gaussian(R) 16 program.  It is based on
 the Gaussian(R) 09 system (copyright 2009, Gaussian, Inc.),
 the Gaussian(R) 03 system (copyright 2003, Gaussian, Inc.),
 the Gaussian(R) 98 system (copyright 1998, Gaussian, Inc.),
 the Gaussian(R) 94 system (copyright 1995, Gaussian, Inc.),
 the Gaussian 92(TM) system (copyright 1992, Gaussian, Inc.),
 the Gaussian 90(TM) system (copyright 1990, Gaussian, Inc.),
 the Gaussian 88(TM) system (copyright 1988, Gaussian, Inc.),
 the Gaussian 86(TM) system (copyright 1986, Carnegie Mellon
 University), and the Gaussian 82(TM) system (copyright 1983,
 Carnegie Mellon University). Gaussian is a federally registered
 trademark of Gaussian, Inc.
  
 This software contains proprietary and confidential information,
 including trade secrets, belonging to Gaussian, Inc.
  
 This software is provided under written license and may be
 used, copied, transmitted, or stored only in accord with that
 written license.
  
 The following legend is applicable only to US Government
 contracts under FAR:
  
                    RESTRICTED RIGHTS LEGEND
  
 Use, reproduction and disclosure by the US Government is
 subject to restrictions as set forth in subparagraphs (a)
 and (c) of the Commercial Computer Software - Restricted
 Rights clause in FAR 52.227-19.
  
 Gaussian, Inc.
 340 Quinnipiac St., Bldg. 40, Wallingford CT 06492
  
  
 ---------------------------------------------------------------
 Warning -- This program may not be used in any manner that
 competes with the business of Gaussian, Inc. or will provide
 assistance to any competitor of Gaussian, Inc.  The licensee
 of this program is prohibited from giving any competitor of
 Gaussian, Inc. access to this program.  By using this program,
 the user acknowledges that Gaussian, Inc. is engaged in the
 business of creating and licensing software in the field of
 computational chemistry and represents and warrants to the
 licensee that it is not a competitor of Gaussian, Inc. and that
 it will not use this program in any manner prohibited above.
 ---------------------------------------------------------------
  

 Cite this work as:
 Gaussian 16, Revision A.03,
 M. J. Frisch, G. W. Trucks, H. B. Schlegel, G. E. Scuseria, 
 M. A. Robb, J. R. Cheeseman, G. Scalmani, V. Barone, 
 G. A. Petersson, H. Nakatsuji, X. Li, M. Caricato, A. V. Marenich, 
 J. Bloino, B. G. Janesko, R. Gomperts, B. Mennucci, H. P. Hratchian, 
 J. V. Ortiz, A. F. Izmaylov, J. L. Sonnenberg, D. Williams-Young, 
 F. Ding, F. Lipparini, F. Egidi, J. Goings, B. Peng, A. Petrone, 
 T. Henderson, D. Ranasinghe, V. G. Zakrzewski, J. Gao, N. Rega, 
 G. Zheng, W. Liang, M. Hada, M. Ehara, K. Toyota, R. Fukuda, 
 J. Hasegawa, M. Ishida, T. Nakajima, Y. Honda, O. Kitao, H. Nakai, 
 T. Vreven, K. Throssell, J. A. Montgomery, Jr., J. E. Peralta, 
 F. Ogliaro, M. J. Bearpark, J. J. Heyd, E. N. Brothers, K. N. Kudin, 
 V. N. Staroverov, T. A. Keith, R. Kobayashi, J. Normand, 
 K. Raghavachari, A. P. Rendell, J. C. Burant, S. S. Iyengar, 
 J. Tomasi, M. Cossi, J. M. Millam, M. Klene, C. Adamo, R. Cammi, 
 J. W. Ochterski, R. L. Martin, K. Morokuma, O. Farkas, 
 J. B. Foresman, and D. J. Fox, Gaussian, Inc., Wallingford CT, 2016.
 
 ******************************************
 Gaussian 16:  ES64L-G16RevA.03 25-Dec-2016
                18-Oct-2019 
 ******************************************
 %chk=ts_smd_benzene_maugccpvtz.chk
 %nprocshared=24
 Will use up to   24 processors via shared memory.
 ----------------------------------------------------------------------
 #p opt=(gdiis,calcall,maxcycle=50,ts,noeigen) b3lyp def2tzvp em=gd3bj 
 scrf=(smd,solvent=benzene)
 ----------------------------------------------------------------------

 Warning!  Use of Opt=GDIIS is deprecated since it is seldom a good choice.

 1/5=1,6=50,10=4,11=1,18=20,19=11,26=3,38=1/1,3;
 2/9=110,12=2,17=6,18=5,40=1/2;
 3/5=44,7=101,11=2,25=1,30=1,70=32201,71=2,72=12,74=-5,124=41,140=1/1,2,3;
 4//1;
 5/5=2,38=5,53=12/2;
 8/6=4,10=90,11=11/1;
 11/6=1,8=1,9=11,15=111,16=1/1,2,10;
 10/6=1/2;
 6/7=2,8=2,9=2,10=2,18=1,28=1/1;
 7/10=1,25=1/1,2,3,16;
 1/5=1,6=50,10=4,11=1,18=20,19=11,26=3/3(3);
 2/9=110/2;
 7/8=1,9=1,25=1,44=-1/16;
 99//99;
 2/9=110/2;
 3/5=44,7=101,11=2,25=1,30=1,70=32205,71=2,72=12,74=-5,124=41,140=1/1,2,3;
 4/5=5,16=3,69=1/1;
 5/5=2,38=5,53=12/2;
 8/6=4,10=90,11=11/1;
 11/6=1,8=1,9=11,15=111,16=1/1,2,10;
 10/6=1/2;
 7/10=1,25=1/1,2,3,16;
 1/5=1,6=50,10=4,11=1,18=20,19=11,26=3/3(-8);
 2/9=110/2;
 6/7=2,8=2,9=2,10=2,18=1,19=2,28=1/1;
 7/8=1,9=1,25=1,44=-1/16;
 99//99;
 Leave Link    1 at Fri Oct 18 03:07:14 2019, MaxMem=           0 cpu:               8.8 elap:               0.4
 (Enter /share/home/wli/program/opt/Chem_soft/g16/l101.exe)
 -------------------
 Title Card Required
 -------------------
 Symbolic Z-matrix:
 Charge = -1 Multiplicity = 1
 C                     0.7043    0.00002   0.00027 
 H                     0.7584   -0.9393   -0.50874 
 H                     0.7584    0.91052  -0.55864 
 H                     0.75836   0.02883   1.06826 
 Cl                    3.14574  0.        -0.00007 
 Br                   -1.71367  0.        -0.00004 
 
 Add virtual bond connecting atoms Br6        and C1         Dist= 4.57D+00.
 Add virtual bond connecting atoms Cl5        and C1         Dist= 4.61D+00.
 ITRead=  0  0  0  0  0  0
 MicOpt= -1 -1 -1 -1 -1 -1
 NAtoms=      6 NQM=        6 NQMF=       0 NMMI=      0 NMMIF=      0
                NMic=       0 NMicF=      0.
                    Isotopes and Nuclear Properties:
 (Nuclear quadrupole moments (NQMom) in fm**2, nuclear magnetic moments (NMagM)
  in nuclear magnetons)

  Atom         1           2           3           4           5           6
 IAtWgt=          12           1           1           1          35          79
 AtmWgt=  12.0000000   1.0078250   1.0078250   1.0078250  34.9688527  78.9183361
 NucSpn=           0           1           1           1           3           3
 AtZEff=  -0.0000000  -0.0000000  -0.0000000  -0.0000000  -0.0000000  -0.0000000
 NQMom=    0.0000000   0.0000000   0.0000000   0.0000000  -8.1650000  31.3000000
 NMagM=    0.0000000   2.7928460   2.7928460   2.7928460   0.8218740   2.1063990
 AtZNuc=   6.0000000   1.0000000   1.0000000   1.0000000  17.0000000  35.0000000
 Leave Link  101 at Fri Oct 18 03:07:14 2019, MaxMem=   104857600 cpu:               5.7 elap:               0.3
 (Enter /share/home/wli/program/opt/Chem_soft/g16/l103.exe)

 GradGradGradGradGradGradGradGradGradGradGradGradGradGradGradGradGradGrad
 Berny optimization.
 Initialization pass.
                           ----------------------------
                           !    Initial Parameters    !
                           ! (Angstroms and Degrees)  !
 --------------------------                            --------------------------
 ! Name  Definition              Value          Derivative Info.                !
 --------------------------------------------------------------------------------
 ! R1    R(1,2)                  1.0697         calculate D2E/DX2 analytically  !
 ! R2    R(1,3)                  1.0697         calculate D2E/DX2 analytically  !
 ! R3    R(1,4)                  1.0697         calculate D2E/DX2 analytically  !
 ! R4    R(1,5)                  2.4414         calculate D2E/DX2 analytically  !
 ! R5    R(1,6)                  2.418          calculate D2E/DX2 analytically  !
 ! A1    A(2,1,3)              119.75           calculate D2E/DX2 analytically  !
 ! A2    A(2,1,4)              119.7451         calculate D2E/DX2 analytically  !
 ! A3    A(2,1,5)               87.097          calculate D2E/DX2 analytically  !
 ! A4    A(2,1,6)               92.895          calculate D2E/DX2 analytically  !
 ! A5    A(3,1,4)              119.7448         calculate D2E/DX2 analytically  !
 ! A6    A(3,1,5)               87.0974         calculate D2E/DX2 analytically  !
 ! A7    A(3,1,6)               92.8953         calculate D2E/DX2 analytically  !
 ! A8    A(4,1,5)               87.1112         calculate D2E/DX2 analytically  !
 ! A9    A(4,1,6)               92.9041         calculate D2E/DX2 analytically  !
 ! A10   L(5,1,6,2,-1)         179.9919         calculate D2E/DX2 analytically  !
 ! A11   L(5,1,6,2,-2)         180.0131         calculate D2E/DX2 analytically  !
 ! D1    D(2,1,4,3)            169.9907         calculate D2E/DX2 analytically  !
 ! D2    D(2,1,5,3)            120.0042         calculate D2E/DX2 analytically  !
 ! D3    D(2,1,6,3)           -120.0028         calculate D2E/DX2 analytically  !
 ! D4    D(2,1,5,4)           -119.998          calculate D2E/DX2 analytically  !
 ! D5    D(2,1,6,4)            119.9987         calculate D2E/DX2 analytically  !
 ! D6    D(3,1,5,4)            119.9978         calculate D2E/DX2 analytically  !
 ! D7    D(3,1,6,4)           -119.9985         calculate D2E/DX2 analytically  !
 --------------------------------------------------------------------------------
 Trust Radius=3.00D-01 FncErr=1.00D-07 GrdErr=1.00D-06 EigMax=2.50D+02 EigMin=1.00D-04
 Number of steps in this run=     50 maximum allowed number of steps=    100.
 Search for a saddle point of order  1.
 GradGradGradGradGradGradGradGradGradGradGradGradGradGradGradGradGradGrad

 Leave Link  103 at Fri Oct 18 03:07:14 2019, MaxMem=   104857600 cpu:               1.0 elap:               0.1
 (Enter /share/home/wli/program/opt/Chem_soft/g16/l202.exe)
                          Input orientation:                          
 ---------------------------------------------------------------------
 Center     Atomic      Atomic             Coordinates (Angstroms)
 Number     Number       Type             X           Y           Z
 ---------------------------------------------------------------------
      1          6           0        0.704300    0.000015    0.000271
      2          1           0        0.758398   -0.939298   -0.508737
      3          1           0        0.758398    0.910520   -0.558639
      4          1           0        0.758363    0.028828    1.068261
      5         17           0        3.145737   -0.000004   -0.000074
      6         35           0       -1.713671   -0.000002   -0.000036
 ---------------------------------------------------------------------
                    Distance matrix (angstroms):
                    1          2          3          4          5
     1  C    0.000000
     2  H    1.069731   0.000000
     3  H    1.069732   1.850491   0.000000
     4  H    1.069746   1.850457   1.850455   0.000000
     5  Cl   2.441437   2.615416   2.615423   2.615669   0.000000
     6  Br   2.417971   2.692987   2.692993   2.693147   4.859408
                    6
     6  Br   0.000000
 This structure is nearly, but not quite of a higher symmetry.
 Consider Symm=Loose if the higher symmetry is desired.
 Stoichiometry    CH3BrCl(1-)
 Framework group  C1[X(CH3BrCl)]
 Deg. of freedom    12
 Full point group                 C1      NOp   1
 Largest Abelian subgroup         C1      NOp   1
 Largest concise Abelian subgroup C1      NOp   1
                         Standard orientation:                         
 ---------------------------------------------------------------------
 Center     Atomic      Atomic             Coordinates (Angstroms)
 Number     Number       Type             X           Y           Z
 ---------------------------------------------------------------------
      1          6           0        0.000249    0.003906    0.704289
      2          1           0       -0.513980    0.940658    0.753158
      3          1           0       -0.553586   -0.909380    0.763454
      4          1           0        1.068382   -0.018660    0.758512
      5         17           0       -0.000171    0.017512    3.145688
      6         35           0        0.000017   -0.009536   -1.713645
 ---------------------------------------------------------------------
 Rotational constants (GHZ):         146.4430850           0.8630335           0.8630334
 Leave Link  202 at Fri Oct 18 03:07:15 2019, MaxMem=   104857600 cpu:               2.1 elap:               0.1
 (Enter /share/home/wli/program/opt/Chem_soft/g16/l301.exe)
 Standard basis: def2TZVP (5D, 7F)
 Ernie: Thresh=  0.10000D-02 Tol=  0.10000D-05 Strict=F.
 There are   151 symmetry adapted cartesian basis functions of A   symmetry.
 There are   134 symmetry adapted basis functions of A   symmetry.
   134 basis functions,   258 primitive gaussians,   151 cartesian basis functions
    31 alpha electrons       31 beta electrons
       nuclear repulsion energy       173.5741035171 Hartrees.
 IExCor=  402 DFT=T Ex+Corr=B3LYP ExCW=0 ScaHFX=  0.200000
 ScaDFX=  0.800000  0.720000  1.000000  0.810000 ScalE2=  1.000000  1.000000
 IRadAn=      5 IRanWt=     -1 IRanGd=            0 ICorTp=0 IEmpDi=141
 NAtoms=    6 NActive=    6 NUniq=    6 SFac= 1.00D+00 NAtFMM=   60 NAOKFM=F Big=F
 Integral buffers will be    131072 words long.
 Raffenetti 2 integral format.
 Two-electron integral symmetry is turned on.
 R6Disp:  Grimme-D3(BJ) Dispersion energy=       -0.0069969608 Hartrees.
 Nuclear repulsion after empirical dispersion term =      173.5671065563 Hartrees.
 Force inversion solution in PCM.
 ------------------------------------------------------------------------------
 Polarizable Continuum Model (PCM)
 =================================
 Model                : PCM.
 Atomic radii         : SMD-Coulomb.
 Polarization charges : Total charges.
 Charge compensation  : None.
 Solution method      : Matrix inversion.
 Cavity type          : VdW (van der Waals Surface) (Alpha=1.000).
 Cavity algorithm     : GePol (No added spheres)
                        Default sphere list used, NSphG=    6.
                        Lebedev-Laikov grids with approx.  5.0 points / Ang**2.
                        Smoothing algorithm: York/Karplus (Gamma=1.0000).
                        Polarization charges: spherical gaussians, with
                                              point-specific exponents (IZeta= 3).
                        Self-potential: point-specific (ISelfS= 7).
                        Self-field    : sphere-specific E.n sum rule (ISelfD= 2).
 1st derivatives      : Analytical E(r).r(x)/FMM algorithm (CHGder, D1EAlg=3).
                        Cavity 1st derivative terms included.
 2nd derivatives      : Analytical E(r).r(xy)/FMM algorithm (CHGder, D2EAlg=3).
                        Cavity 2nd derivative terms included.
 Solvent              : Benzene, Eps=   2.270600 Eps(inf)=   2.253301
 ------------------------------------------------------------------------------
 Spheres list:
 ISph  on   Nord     Re0    Alpha      Xe            Ye            Ze
    1   C      1    1.8500  1.000      0.000249      0.003906      0.704289
    2   H      2    1.2000  1.000     -0.513980      0.940658      0.753158
    3   H      3    1.2000  1.000     -0.553586     -0.909380      0.763454
    4   H      4    1.2000  1.000      1.068382     -0.018660      0.758512
    5  Cl      5    2.3800  1.000     -0.000171      0.017512      3.145688
    6  Br      6    3.0600  1.000      0.000017     -0.009536     -1.713645
 ------------------------------------------------------------------------------
 GePol: Number of generator spheres                  =       6
 GePol: Total number of spheres                      =       6
 GePol: Number of exposed spheres                    =       6 (100.00%)
 GePol: Number of points                             =    1023
 GePol: Average weight of points                     =       0.17
 GePol: Minimum weight of points                     =   0.23D-06
 GePol: Maximum weight of points                     =    0.22025
 GePol: Number of points with low weight             =      16
 GePol: Fraction of low-weight points (<1% of avg)   =       1.56%
 GePol: Cavity surface area                          =    176.412 Ang**2
 GePol: Cavity volume                                =    179.468 Ang**3
 ------------------------------------------------------------------------------
 Atomic radii for non-electrostatic terms: SMD-CDS.
 ------------------------------------------------------------------------------
 PCM non-electrostatic energy =        -0.0053903752 Hartrees.
 Nuclear repulsion after PCM non-electrostatic terms =      173.5617161811 Hartrees.
 Leave Link  301 at Fri Oct 18 03:07:15 2019, MaxMem=   104857600 cpu:               4.0 elap:               0.2
 (Enter /share/home/wli/program/opt/Chem_soft/g16/l302.exe)
 NPDir=0 NMtPBC=     1 NCelOv=     1 NCel=       1 NClECP=     1 NCelD=      1
         NCelK=      1 NCelE2=     1 NClLst=     1 CellRange=     0.0.
 One-electron integrals computed using PRISM.
 One-electron integral symmetry used in STVInt
 PrsmSu:  requested number of processors reduced to:  13 ShMem   1 Linda.
   1 Symmetry operations used in ECPInt.
 ECPInt:  NShTT=    1378 NPrTT=    5593 LenC2=    1324 LenP2D=    4259.
 LDataN:  DoStor=T MaxTD1= 6 Len=  172
 NBasis=   134 RedAO= T EigKep=  1.43D-03  NBF=   134
 NBsUse=   134 1.00D-06 EigRej= -1.00D+00 NBFU=   134
 Precomputing XC quadrature grid using
 IXCGrd= 4 IRadAn=           5 IRanWt=          -1 IRanGd=           0 AccXCQ= 0.00D+00.
 Generated NRdTot=       0 NPtTot=           0 NUsed=           0 NTot=          32
 NSgBfM=   150   150   150   150   150 MxSgAt=     6 MxSgA2=     6.
 Leave Link  302 at Fri Oct 18 03:07:15 2019, MaxMem=   104857600 cpu:               7.4 elap:               0.3
 (Enter /share/home/wli/program/opt/Chem_soft/g16/l303.exe)
 DipDrv:  MaxL=1.
 Leave Link  303 at Fri Oct 18 03:07:15 2019, MaxMem=   104857600 cpu:               4.2 elap:               0.2
 (Enter /share/home/wli/program/opt/Chem_soft/g16/l401.exe)
 ExpMin= 9.52D-02 ExpMax= 5.65D+05 ExpMxC= 5.46D+03 IAcc=3 IRadAn=         5 AccDes= 0.00D+00
 Harris functional with IExCor=  402 and IRadAn=       5 diagonalized for initial guess.
 HarFok:  IExCor=  402 AccDes= 0.00D+00 IRadAn=         5 IDoV= 1 UseB2=F ITyADJ=14
 ICtDFT=  3500011 ScaDFX=  1.000000  1.000000  1.000000  1.000000
 FoFCou: FMM=F IPFlag=           0 FMFlag=      100000 FMFlg1=           0
         NFxFlg=           0 DoJE=T BraDBF=F KetDBF=T FulRan=T
         wScrn=  0.000000 ICntrl=       500 IOpCl=  0 I1Cent=   200000004 NGrid=           0
         NMat0=    1 NMatS0=      1 NMatT0=    0 NMatD0=    1 NMtDS0=    0 NMtDT0=    0
 Petite list used in FoFCou.
 Harris En= -3074.57116793874    
 JPrj=0 DoOrth=F DoCkMO=F.
 Leave Link  401 at Fri Oct 18 03:07:16 2019, MaxMem=   104857600 cpu:              10.4 elap:               0.5
 (Enter /share/home/wli/program/opt/Chem_soft/g16/l502.exe)
 Keep R1 ints in memory in canonical form, NReq=64315121.
 FoFCou: FMM=F IPFlag=           0 FMFlag=           0 FMFlg1=           0
         NFxFlg=           0 DoJE=F BraDBF=F KetDBF=F FulRan=T
         wScrn=  0.000000 ICntrl=       600 IOpCl=  0 I1Cent=           0 NGrid=           0
         NMat0=    1 NMatS0=   9045 NMatT0=    0 NMatD0=    1 NMtDS0=    0 NMtDT0=    0
 Symmetry not used in FoFCou.
 Two-electron integral symmetry not used.
 Closed shell SCF:
 Using DIIS extrapolation, IDIIS=  1040.
 NGot=   104857600 LenX=    63896377 LenY=    63873135
 Requested convergence on RMS density matrix=1.00D-08 within 128 cycles.
 Requested convergence on MAX density matrix=1.00D-06.
 Requested convergence on             energy=1.00D-06.
 No special actions if energy rises.

 Cycle   1  Pass 1  IDiag  1:
 CoulSu:  requested number of processors reduced to:  17 ShMem   1 Linda.
 Inv3:  Mode=1 IEnd=     3139587.
 Iteration    1 A*A^-1 deviation from unit magnitude is 2.55D-15 for   1007.
 Iteration    1 A*A^-1 deviation from orthogonality  is 1.30D-15 for    118     73.
 Iteration    1 A^-1*A deviation from unit magnitude is 2.55D-15 for   1017.
 Iteration    1 A^-1*A deviation from orthogonality  is 1.03D-15 for   1013    732.
 CoulSu:  requested number of processors reduced to:  17 ShMem   1 Linda.
 CoulSu:  requested number of processors reduced to:  17 ShMem   1 Linda.
 E= -3074.37713470789    
 DIIS: error= 5.06D-02 at cycle   1 NSaved=   1.
 NSaved= 1 IEnMin= 1 EnMin= -3074.37713470789     IErMin= 1 ErrMin= 5.06D-02
 ErrMax= 5.06D-02  0.00D+00 EMaxC= 1.00D-01 BMatC= 2.15D-01 BMatP= 2.15D-01
 IDIUse=3 WtCom= 4.94D-01 WtEn= 5.06D-01
 Coeff-Com:  0.100D+01
 Coeff-En:   0.100D+01
 Coeff:      0.100D+01
 Gap=     0.313 Goal=   None    Shift=    0.000
 GapD=    0.313 DampG=1.000 DampE=0.500 DampFc=0.5000 IDamp=-1.
 Damping current iteration by 5.00D-01
 RMSDP=4.52D-03 MaxDP=1.33D-01              OVMax= 2.74D-01

 Cycle   2  Pass 1  IDiag  1:
 E= -3074.42219516751     Delta-E=       -0.045060459617 Rises=F Damp=T
 DIIS: error= 2.05D-02 at cycle   2 NSaved=   2.
 NSaved= 2 IEnMin= 2 EnMin= -3074.42219516751     IErMin= 2 ErrMin= 2.05D-02
 ErrMax= 2.05D-02  0.00D+00 EMaxC= 1.00D-01 BMatC= 2.58D-02 BMatP= 2.15D-01
 IDIUse=3 WtCom= 7.95D-01 WtEn= 2.05D-01
 Coeff-Com: -0.197D+00 0.120D+01
 Coeff-En:   0.331D-02 0.997D+00
 Coeff:     -0.156D+00 0.116D+01
 Gap=     0.186 Goal=   None    Shift=    0.000
 RMSDP=1.48D-03 MaxDP=3.92D-02 DE=-4.51D-02 OVMax= 1.99D-01

 Cycle   3  Pass 1  IDiag  1:
 E= -3074.44990907403     Delta-E=       -0.027713906525 Rises=F Damp=F
 DIIS: error= 1.39D-02 at cycle   3 NSaved=   3.
 NSaved= 3 IEnMin= 3 EnMin= -3074.44990907403     IErMin= 3 ErrMin= 1.39D-02
 ErrMax= 1.39D-02  0.00D+00 EMaxC= 1.00D-01 BMatC= 2.08D-02 BMatP= 2.58D-02
 IDIUse=3 WtCom= 8.61D-01 WtEn= 1.39D-01
 Coeff-Com: -0.197D+00 0.658D+00 0.539D+00
 Coeff-En:   0.000D+00 0.000D+00 0.100D+01
 Coeff:     -0.169D+00 0.566D+00 0.603D+00
 Gap=     0.206 Goal=   None    Shift=    0.000
 RMSDP=1.06D-03 MaxDP=2.70D-02 DE=-2.77D-02 OVMax= 1.21D-01

 Cycle   4  Pass 1  IDiag  1:
 E= -3074.46917929083     Delta-E=       -0.019270216802 Rises=F Damp=F
 DIIS: error= 5.51D-03 at cycle   4 NSaved=   4.
 NSaved= 4 IEnMin= 4 EnMin= -3074.46917929083     IErMin= 4 ErrMin= 5.51D-03
 ErrMax= 5.51D-03  0.00D+00 EMaxC= 1.00D-01 BMatC= 3.55D-03 BMatP= 2.08D-02
 IDIUse=3 WtCom= 9.45D-01 WtEn= 5.51D-02
 Coeff-Com: -0.203D-01 0.764D-01 0.307D+00 0.637D+00
 Coeff-En:   0.000D+00 0.000D+00 0.177D+00 0.823D+00
 Coeff:     -0.192D-01 0.721D-01 0.300D+00 0.647D+00
 Gap=     0.196 Goal=   None    Shift=    0.000
 RMSDP=4.03D-04 MaxDP=1.14D-02 DE=-1.93D-02 OVMax= 3.65D-02

 Cycle   5  Pass 1  IDiag  1:
 E= -3074.47321019635     Delta-E=       -0.004030905520 Rises=F Damp=F
 DIIS: error= 9.87D-04 at cycle   5 NSaved=   5.
 NSaved= 5 IEnMin= 5 EnMin= -3074.47321019635     IErMin= 5 ErrMin= 9.87D-04
 ErrMax= 9.87D-04  0.00D+00 EMaxC= 1.00D-01 BMatC= 1.54D-04 BMatP= 3.55D-03
 IDIUse=3 WtCom= 9.90D-01 WtEn= 9.87D-03
 Coeff-Com: -0.108D-01 0.230D-01 0.153D+00 0.344D+00 0.491D+00
 Coeff-En:   0.000D+00 0.000D+00 0.000D+00 0.000D+00 0.100D+01
 Coeff:     -0.107D-01 0.228D-01 0.151D+00 0.340D+00 0.496D+00
 Gap=     0.196 Goal=   None    Shift=    0.000
 RMSDP=1.12D-04 MaxDP=4.22D-03 DE=-4.03D-03 OVMax= 7.58D-03

 Cycle   6  Pass 1  IDiag  1:
 E= -3074.47333409385     Delta-E=       -0.000123897497 Rises=F Damp=F
 DIIS: error= 1.96D-04 at cycle   6 NSaved=   6.
 NSaved= 6 IEnMin= 6 EnMin= -3074.47333409385     IErMin= 6 ErrMin= 1.96D-04
 ErrMax= 1.96D-04  0.00D+00 EMaxC= 1.00D-01 BMatC= 6.89D-06 BMatP= 1.54D-04
 IDIUse=3 WtCom= 9.98D-01 WtEn= 1.96D-03
 Coeff-Com: -0.171D-02 0.191D-02 0.320D-01 0.734D-01 0.208D+00 0.686D+00
 Coeff-En:   0.000D+00 0.000D+00 0.000D+00 0.000D+00 0.000D+00 0.100D+01
 Coeff:     -0.171D-02 0.191D-02 0.319D-01 0.733D-01 0.208D+00 0.687D+00
 Gap=     0.196 Goal=   None    Shift=    0.000
 RMSDP=2.75D-05 MaxDP=8.06D-04 DE=-1.24D-04 OVMax= 2.33D-03

 Cycle   7  Pass 1  IDiag  1:
 E= -3074.47334075567     Delta-E=       -0.000006661823 Rises=F Damp=F
 DIIS: error= 1.10D-04 at cycle   7 NSaved=   7.
 NSaved= 7 IEnMin= 7 EnMin= -3074.47334075567     IErMin= 7 ErrMin= 1.10D-04
 ErrMax= 1.10D-04  0.00D+00 EMaxC= 1.00D-01 BMatC= 9.09D-07 BMatP= 6.89D-06
 IDIUse=3 WtCom= 9.99D-01 WtEn= 1.10D-03
 Coeff-Com:  0.460D-03-0.133D-02-0.394D-02-0.101D-01 0.343D-01 0.331D+00
 Coeff-Com:  0.649D+00
 Coeff-En:   0.000D+00 0.000D+00 0.000D+00 0.000D+00 0.000D+00 0.425D-01
 Coeff-En:   0.958D+00
 Coeff:      0.459D-03-0.133D-02-0.393D-02-0.101D-01 0.342D-01 0.331D+00
 Coeff:      0.650D+00
 Gap=     0.196 Goal=   None    Shift=    0.000
 RMSDP=8.15D-06 MaxDP=3.52D-04 DE=-6.66D-06 OVMax= 4.87D-04

 Cycle   8  Pass 1  IDiag  1:
 E= -3074.47334161041     Delta-E=       -0.000000854733 Rises=F Damp=F
 DIIS: error= 7.20D-06 at cycle   8 NSaved=   8.
 NSaved= 8 IEnMin= 8 EnMin= -3074.47334161041     IErMin= 8 ErrMin= 7.20D-06
 ErrMax= 7.20D-06  0.00D+00 EMaxC= 1.00D-01 BMatC= 7.35D-09 BMatP= 9.09D-07
 IDIUse=1 WtCom= 1.00D+00 WtEn= 0.00D+00
 Coeff-Com:  0.128D-03-0.251D-03-0.124D-02-0.334D-02-0.134D-02 0.242D-01
 Coeff-Com:  0.121D+00 0.861D+00
 Coeff:      0.128D-03-0.251D-03-0.124D-02-0.334D-02-0.134D-02 0.242D-01
 Coeff:      0.121D+00 0.861D+00
 Gap=     0.196 Goal=   None    Shift=    0.000
 RMSDP=9.00D-07 MaxDP=2.89D-05 DE=-8.55D-07 OVMax= 5.59D-05

 Cycle   9  Pass 1  IDiag  1:
 E= -3074.47334161898     Delta-E=       -0.000000008574 Rises=F Damp=F
 DIIS: error= 2.03D-06 at cycle   9 NSaved=   9.
 NSaved= 9 IEnMin= 9 EnMin= -3074.47334161898     IErMin= 9 ErrMin= 2.03D-06
 ErrMax= 2.03D-06  0.00D+00 EMaxC= 1.00D-01 BMatC= 5.39D-10 BMatP= 7.35D-09
 IDIUse=1 WtCom= 1.00D+00 WtEn= 0.00D+00
 Coeff-Com:  0.520D-04-0.936D-04-0.369D-03-0.101D-02-0.163D-02-0.132D-02
 Coeff-Com:  0.218D-01 0.328D+00 0.654D+00
 Coeff:      0.520D-04-0.936D-04-0.369D-03-0.101D-02-0.163D-02-0.132D-02
 Coeff:      0.218D-01 0.328D+00 0.654D+00
 Gap=     0.196 Goal=   None    Shift=    0.000
 RMSDP=1.44D-07 MaxDP=3.53D-06 DE=-8.57D-09 OVMax= 5.82D-06

 Cycle  10  Pass 1  IDiag  1:
 E= -3074.47334161953     Delta-E=       -0.000000000551 Rises=F Damp=F
 DIIS: error= 4.15D-07 at cycle  10 NSaved=  10.
 NSaved=10 IEnMin=10 EnMin= -3074.47334161953     IErMin=10 ErrMin= 4.15D-07
 ErrMax= 4.15D-07  0.00D+00 EMaxC= 1.00D-01 BMatC= 1.93D-11 BMatP= 5.39D-10
 IDIUse=1 WtCom= 1.00D+00 WtEn= 0.00D+00
 Coeff-Com:  0.538D-05-0.109D-04 0.386D-05-0.176D-04-0.376D-03-0.205D-02
 Coeff-Com: -0.499D-02 0.202D-01 0.119D+00 0.868D+00
 Coeff:      0.538D-05-0.109D-04 0.386D-05-0.176D-04-0.376D-03-0.205D-02
 Coeff:     -0.499D-02 0.202D-01 0.119D+00 0.868D+00
 Gap=     0.196 Goal=   None    Shift=    0.000
 RMSDP=4.39D-08 MaxDP=1.18D-06 DE=-5.51D-10 OVMax= 2.90D-06

 Cycle  11  Pass 1  IDiag  1:
 E= -3074.47334161955     Delta-E=       -0.000000000020 Rises=F Damp=F
 DIIS: error= 5.55D-08 at cycle  11 NSaved=  11.
 NSaved=11 IEnMin=11 EnMin= -3074.47334161955     IErMin=11 ErrMin= 5.55D-08
 ErrMax= 5.55D-08  0.00D+00 EMaxC= 1.00D-01 BMatC= 3.44D-13 BMatP= 1.93D-11
 IDIUse=1 WtCom= 1.00D+00 WtEn= 0.00D+00
 Coeff-Com: -0.733D-07 0.667D-07 0.385D-05 0.595D-05-0.249D-04-0.244D-03
 Coeff-Com: -0.811D-03-0.152D-02 0.895D-02 0.179D+00 0.815D+00
 Coeff:     -0.733D-07 0.667D-07 0.385D-05 0.595D-05-0.249D-04-0.244D-03
 Coeff:     -0.811D-03-0.152D-02 0.895D-02 0.179D+00 0.815D+00
 Gap=     0.196 Goal=   None    Shift=    0.000
 RMSDP=5.28D-09 MaxDP=1.45D-07 DE=-2.00D-11 OVMax= 4.40D-07

 CoulSu:  requested number of processors reduced to:  17 ShMem   1 Linda.
 CoulSu:  requested number of processors reduced to:  16 ShMem   1 Linda.
 Error on total polarization charges =  0.00239
 SCF Done:  E(RB3LYP) =  -3074.47334162     A.U. after   11 cycles
            NFock= 11  Conv=0.53D-08     -V/T= 2.0015
 KE= 3.069811965547D+03 PE=-7.700072982431D+03 EE= 1.382225959084D+03
 SMD-CDS (non-electrostatic) energy       (kcal/mol) =      -3.38
 (included in total energy above)
 Leave Link  502 at Fri Oct 18 03:07:23 2019, MaxMem=   104857600 cpu:             153.8 elap:               7.3
 (Enter /share/home/wli/program/opt/Chem_soft/g16/l801.exe)
 DoSCS=F DFT=T ScalE2(SS,OS)=  1.000000  1.000000
 Range of M.O.s used for correlation:     1   134
 NBasis=   134 NAE=    31 NBE=    31 NFC=     0 NFV=     0
 NROrb=    134 NOA=    31 NOB=    31 NVA=   103 NVB=   103
 Leave Link  801 at Fri Oct 18 03:07:23 2019, MaxMem=   104857600 cpu:               1.3 elap:               0.1
 (Enter /share/home/wli/program/opt/Chem_soft/g16/l1101.exe)
 Using compressed storage, NAtomX=     6.
 Will process      7 centers per pass.
 PrsmSu:  requested number of processors reduced to:  11 ShMem   1 Linda.
   1 Symmetry operations used in ECPInt.
 ECPInt:  NShTT=    1378 NPrTT=    5593 LenC2=    1324 LenP2D=    4259.
 LDataN:  DoStor=T MaxTD1= 7 Len=  274
 Number of processors reduced to  18 by ecpmxn.
 R6Disp: Adding Grimme-D3(BJ) dispersion energy 1st derivatives to the gradient.
 Leave Link 1101 at Fri Oct 18 03:07:24 2019, MaxMem=   104857600 cpu:               9.9 elap:               0.5
 (Enter /share/home/wli/program/opt/Chem_soft/g16/l1102.exe)
 Symmetrizing basis deriv contribution to polar:
 IMax=3 JMax=2 DiffMx= 0.00D+00
 Leave Link 1102 at Fri Oct 18 03:07:24 2019, MaxMem=   104857600 cpu:               2.9 elap:               0.2
 (Enter /share/home/wli/program/opt/Chem_soft/g16/l1110.exe)
 Forming Gx(P) for the SCF density, NAtomX=     6.
 Integral derivatives from FoFJK, PRISM(SPDF).
 Do as many integral derivatives as possible in FoFJK.
 G2DrvN: MDV=     104857020.
 G2DrvN: will do     7 centers at a time, making    1 passes.
 Calling FoFCou, ICntrl=  3107 FMM=F I1Cent=   0 AccDes= 0.00D+00.
 FoFJK:  IHMeth= 1 ICntrl=    3107 DoSepK=F KAlg= 0 I1Cent=           0 FoldK=F
 IRaf=         0 NMat=       1 IRICut=       1 DoRegI=T DoRafI=F ISym2E= 0 IDoP0=0 IntGTp=1.
 FoFCou: FMM=F IPFlag=           0 FMFlag=      100000 FMFlg1=           0
         NFxFlg=           0 DoJE=F BraDBF=F KetDBF=F FulRan=T
         wScrn=  0.000000 ICntrl=      3107 IOpCl=  0 I1Cent=           0 NGrid=           0
         NMat0=    1 NMatS0=      1 NMatT0=    0 NMatD0=    1 NMtDS0=    0 NMtDT0=    0
 Symmetry not used in FoFCou.
 NEqPCM:  Using equilibrium solvation (IEInf=0, Eps=   2.2706, EpsInf=   2.2533)
 G2PCM: DoFxE=T DoFxN=T DoGrad=T DoDP/DQ/DG/TGxP=FFFF NFrqRd=   0 IEInf=0 SqF1=F DoCFld=F IF1Alg=4.
 GePol: Maximum number of non-zero 1st derivatives   =     563
 CoulSu:  requested number of processors reduced to:  13 ShMem   1 Linda.
 CoulSu:  requested number of processors reduced to:  13 ShMem   1 Linda.
 CoulSu:  requested number of processors reduced to:  13 ShMem   1 Linda.
 CoulSu:  requested number of processors reduced to:  17 ShMem   1 Linda.
 CoulSu:  requested number of processors reduced to:  23 ShMem   1 Linda.
 CoulSu:  requested number of processors reduced to:  13 ShMem   1 Linda.
 CoulSu:  requested number of processors reduced to:  13 ShMem   1 Linda.
 CoulSu:  requested number of processors reduced to:  13 ShMem   1 Linda.
 CoulSu:  requested number of processors reduced to:  13 ShMem   1 Linda.
 End of G2Drv F.D. properties file   721 does not exist.
 End of G2Drv F.D. properties file   722 does not exist.
 End of G2Drv F.D. properties file   788 does not exist.
 Leave Link 1110 at Fri Oct 18 03:07:30 2019, MaxMem=   104857600 cpu:             150.2 elap:               6.6
 (Enter /share/home/wli/program/opt/Chem_soft/g16/l1002.exe)
 Minotr:  Closed shell wavefunction.
          IDoAtm=111111
 NEqPCM:  Using equilibrium solvation (IEInf=0, Eps=   2.2706, EpsInf=   2.2533)
          Direct CPHF calculation.
          Differentiating once with respect to electric field.
                with respect to dipole field.
          Differentiating once with respect to nuclear coordinates.
          Requested convergence is 1.0D-08 RMS, and 1.0D-07 maximum.
          Secondary convergence is 1.0D-12 RMS, and 1.0D-12 maximum.
          NewPWx=T KeepS1=F KeepF1=F KeepIn=T MapXYZ=F SortEE=F KeepMc=T.
         1761 words used for storage of precomputed grid.
 Keep R1 ints in memory in canonical form, NReq=64236638.
 FoFCou: FMM=F IPFlag=           0 FMFlag=           0 FMFlg1=           0
         NFxFlg=           0 DoJE=F BraDBF=F KetDBF=F FulRan=T
         wScrn=  0.000000 ICntrl=       600 IOpCl=  0 I1Cent=           0 NGrid=           0
         NMat0=    1 NMatS0=   9045 NMatT0=    0 NMatD0=    1 NMtDS0=    0 NMtDT0=    0
 Symmetry not used in FoFCou.
 Two-electron integral symmetry not used.
          MDV=     104857600 using IRadAn=       1.
          Solving linear equations simultaneously, MaxMat=       0.
 CoulSu:  requested number of processors reduced to:  13 ShMem   1 Linda.
 CoulSu:  requested number of processors reduced to:  13 ShMem   1 Linda.
          There are    21 degrees of freedom in the 1st order CPHF.  IDoFFX=6 NUNeed=     3.
     18 vectors produced by pass  0 Test12= 1.52D-14 4.76D-09 XBig12= 2.27D+02 1.44D+01.
 AX will form    18 AO Fock derivatives at one time.
 CoulSu:  requested number of processors reduced to:  14 ShMem   1 Linda.
 CoulSu:  requested number of processors reduced to:  14 ShMem   1 Linda.
     18 vectors produced by pass  1 Test12= 1.52D-14 4.76D-09 XBig12= 3.69D+01 2.13D+00.
 CoulSu:  requested number of processors reduced to:  14 ShMem   1 Linda.
 CoulSu:  requested number of processors reduced to:  14 ShMem   1 Linda.
     18 vectors produced by pass  2 Test12= 1.52D-14 4.76D-09 XBig12= 1.78D+00 2.86D-01.
 CoulSu:  requested number of processors reduced to:  14 ShMem   1 Linda.
 CoulSu:  requested number of processors reduced to:  14 ShMem   1 Linda.
     18 vectors produced by pass  3 Test12= 1.52D-14 4.76D-09 XBig12= 4.21D-02 4.14D-02.
 CoulSu:  requested number of processors reduced to:  14 ShMem   1 Linda.
 CoulSu:  requested number of processors reduced to:  14 ShMem   1 Linda.
     18 vectors produced by pass  4 Test12= 1.52D-14 4.76D-09 XBig12= 7.30D-04 7.29D-03.
 CoulSu:  requested number of processors reduced to:  14 ShMem   1 Linda.
 CoulSu:  requested number of processors reduced to:  14 ShMem   1 Linda.
     16 vectors produced by pass  5 Test12= 1.52D-14 4.76D-09 XBig12= 3.40D-06 3.98D-04.
 CoulSu:  requested number of processors reduced to:  15 ShMem   1 Linda.
 CoulSu:  requested number of processors reduced to:  15 ShMem   1 Linda.
      5 vectors produced by pass  6 Test12= 1.52D-14 4.76D-09 XBig12= 4.22D-09 1.11D-05.
      1 vectors produced by pass  7 Test12= 1.52D-14 4.76D-09 XBig12= 5.68D-12 3.50D-07.
      1 vectors produced by pass  8 Test12= 1.52D-14 4.76D-09 XBig12= 1.14D-14 1.76D-08.
 InvSVY:  IOpt=1 It=  1 EMax= 2.31D-14
 Solved reduced A of dimension   113 with    21 vectors.
 FullF1:  Do perturbations      1 to       3.
 Isotropic polarizability for W=    0.000000       78.05 Bohr**3.
 End of Minotr F.D. properties file   721 does not exist.
 End of Minotr F.D. properties file   722 does not exist.
 End of Minotr F.D. properties file   788 does not exist.
 Leave Link 1002 at Fri Oct 18 03:07:37 2019, MaxMem=   104857600 cpu:             138.7 elap:               6.6
 (Enter /share/home/wli/program/opt/Chem_soft/g16/l601.exe)
 Copying SCF densities to generalized density rwf, IOpCl= 0 IROHF=0.

 **********************************************************************

            Population analysis using the SCF density.

 **********************************************************************

 Orbital symmetries:
       Occupied  (A) (A) (A) (A) (A) (A) (A) (A) (A) (A) (A) (A)
                 (A) (A) (A) (A) (A) (A) (A) (A) (A) (A) (A) (A)
                 (A) (A) (A) (A) (A) (A) (A)
       Virtual   (A) (A) (A) (A) (A) (A) (A) (A) (A) (A) (A) (A)
                 (A) (A) (A) (A) (A) (A) (A) (A) (A) (A) (A) (A)
                 (A) (A) (A) (A) (A) (A) (A) (A) (A) (A) (A) (A)
                 (A) (A) (A) (A) (A) (A) (A) (A) (A) (A) (A) (A)
                 (A) (A) (A) (A) (A) (A) (A) (A) (A) (A) (A) (A)
                 (A) (A) (A) (A) (A) (A) (A) (A) (A) (A) (A) (A)
                 (A) (A) (A) (A) (A) (A) (A) (A) (A) (A) (A) (A)
                 (A) (A) (A) (A) (A) (A) (A) (A) (A) (A) (A) (A)
                 (A) (A) (A) (A) (A) (A) (A)
 The electronic state is 1-A.
 Alpha  occ. eigenvalues -- -482.71872-101.35090 -62.36716 -56.18210 -56.18031
 Alpha  occ. eigenvalues --  -56.18031 -10.15703  -9.28297  -8.55794  -7.04073
 Alpha  occ. eigenvalues --   -7.03785  -7.03785  -6.38377  -6.37828  -6.37828
 Alpha  occ. eigenvalues --   -2.49882  -2.49734  -2.49734  -2.49296  -2.49296
 Alpha  occ. eigenvalues --   -0.66715  -0.63430  -0.59021  -0.37465  -0.37460
 Alpha  occ. eigenvalues --   -0.24390  -0.18046  -0.18045  -0.17330  -0.17329
 Alpha  occ. eigenvalues --   -0.16282
 Alpha virt. eigenvalues --    0.03365   0.12039   0.18239   0.18241   0.26593
 Alpha virt. eigenvalues --    0.27041   0.27044   0.33811   0.34621   0.34621
 Alpha virt. eigenvalues --    0.39843   0.39845   0.41169   0.42624   0.42624
 Alpha virt. eigenvalues --    0.47544   0.47837   0.47838   0.50900   0.53736
 Alpha virt. eigenvalues --    0.53737   0.56082   0.58703   0.58706   0.59022
 Alpha virt. eigenvalues --    0.59022   0.61648   0.84755   0.84757   0.85351
 Alpha virt. eigenvalues --    1.03042   1.03046   1.04135   1.17671   1.41964
 Alpha virt. eigenvalues --    1.44954   1.44954   1.46160   1.46161   1.51924
 Alpha virt. eigenvalues --    1.52854   1.52854   1.52948   1.54065   1.63487
 Alpha virt. eigenvalues --    1.63487   1.64971   1.65015   1.69812   1.69813
 Alpha virt. eigenvalues --    1.71138   1.74190   1.74191   1.86840   1.86840
 Alpha virt. eigenvalues --    1.89066   1.90331   1.90332   2.00829   2.00833
 Alpha virt. eigenvalues --    2.03707   2.10431   2.12526   2.12526   2.22302
 Alpha virt. eigenvalues --    2.22302   2.23647   2.23754   2.32750   2.32752
 Alpha virt. eigenvalues --    2.35583   2.35585   2.36753   2.40819   2.51665
 Alpha virt. eigenvalues --    2.51674   2.68905   2.73000   2.73000   2.85289
 Alpha virt. eigenvalues --    3.13829   3.13832   3.27069   3.27072   3.30087
 Alpha virt. eigenvalues --    3.36283   3.36283   3.68394   3.90634   4.10416
 Alpha virt. eigenvalues --    4.10419   4.13926   4.13926   4.22258   4.22259
 Alpha virt. eigenvalues --    4.34266   4.76259   7.48724  10.82754  10.82754
 Alpha virt. eigenvalues --   10.93913  22.16887  24.63237
          Condensed to atoms (all electrons):
               1          2          3          4          5          6
     1  C    4.861783   0.410061   0.410067   0.410022   0.016972   0.049193
     2  H    0.410061   0.499939  -0.022251  -0.022238  -0.004367  -0.015191
     3  H    0.410067  -0.022251   0.500002  -0.022270  -0.004372  -0.015189
     4  H    0.410022  -0.022238  -0.022270   0.499749  -0.004396  -0.015155
     5  Cl   0.016972  -0.004367  -0.004372  -0.004396  17.693510   0.009905
     6  Br   0.049193  -0.015191  -0.015189  -0.015155   0.009905  35.583436
 Mulliken charges:
               1
     1  C   -0.158098
     2  H    0.154046
     3  H    0.154013
     4  H    0.154289
     5  Cl  -0.707251
     6  Br  -0.596999
 Sum of Mulliken charges =  -1.00000
 Mulliken charges with hydrogens summed into heavy atoms:
               1
     1  C    0.304250
     5  Cl  -0.707251
     6  Br  -0.596999
 APT charges:
               1
     1  C    1.235960
     2  H   -0.018015
     3  H   -0.018599
     4  H   -0.018872
     5  Cl  -1.146747
     6  Br  -1.033727
 Sum of APT charges =  -1.00000
 APT charges with hydrogens summed into heavy atoms:
               1
     1  C    1.180474
     5  Cl  -1.146747
     6  Br  -1.033727
 Electronic spatial extent (au):  <R**2>=           1123.4791
 Charge=             -1.0000 electrons
 Dipole moment (field-independent basis, Debye):
    X=              0.0020    Y=             -0.0255    Z=             -4.6982  Tot=              4.6983
 Quadrupole moment (field-independent basis, Debye-Ang):
   XX=            -42.4904   YY=            -42.4928   ZZ=            -85.3895
   XY=              0.0000   XZ=              0.0048   YZ=             -0.2381
 Traceless Quadrupole moment (field-independent basis, Debye-Ang):
   XX=             14.3005   YY=             14.2981   ZZ=            -28.5986
   XY=              0.0000   XZ=              0.0048   YZ=             -0.2381
 Octapole moment (field-independent basis, Debye-Ang**2):
  XXX=              1.0604  YYY=             -0.1903  ZZZ=           -145.7513  XYY=             -1.0553
  XXY=             -0.1540  XXZ=            -15.5347  XZZ=              0.0101  YZZ=             -0.6362
  YYZ=            -15.5404  XYZ=              0.0059
 Hexadecapole moment (field-independent basis, Debye-Ang**3):
 XXXX=            -61.2885 YYYY=            -61.3319 ZZZZ=          -1673.7649 XXXY=              0.0045
 XXXZ=              0.8141 YYYX=             -0.0130 YYYZ=             -3.5396 ZZZX=              0.0523
 ZZZY=             -5.3794 XXYY=            -20.4384 XXZZ=           -235.4963 YYZZ=           -235.5175
 XXYZ=             -1.2472 YYXZ=             -0.7781 ZZXY=              0.0090
 N-N= 1.735617161811D+02 E-N=-7.700072977943D+03  KE= 3.069811965547D+03
  Exact polarizability:  42.199  -0.002  42.219  -0.012   0.597 149.741
 Approx polarizability:  60.570  -0.000  60.577  -0.003   0.810 206.160
 No NMR shielding tensors so no spin-rotation constants.
 Leave Link  601 at Fri Oct 18 03:07:38 2019, MaxMem=   104857600 cpu:              16.2 elap:               0.7
 (Enter /share/home/wli/program/opt/Chem_soft/g16/l701.exe)
 ... and contract with generalized density number  0.
 Compute integral second derivatives.
 R6Disp: Adding Grimme-D3(BJ) dispersion energy 2nd derivatives to the Hessian.
 PrsmSu:  requested number of processors reduced to:   9 ShMem   1 Linda.
 PrsmSu:  requested number of processors reduced to:  13 ShMem   1 Linda.
   1 Symmetry operations used in ECPInt.
 ECPInt:  NShTT=    1378 NPrTT=    5593 LenC2=    1324 LenP2D=    4259.
 LDataN:  DoStor=T MaxTD1= 8 Len=  415
 D2PCM: PCM CHGder 2nd derivatives, FixD1E=F FixD2E=F DoIter=F DoCFld=F I1PDM=0
 GePol: Maximum number of non-zero 2nd derivatives   =     563
 CoulSu:  requested number of processors reduced to:  13 ShMem   1 Linda.
 CoulSu:  requested number of processors reduced to:  13 ShMem   1 Linda.
 CoulSu:  requested number of processors reduced to:  13 ShMem   1 Linda.
 CoulSu:  requested number of processors reduced to:  13 ShMem   1 Linda.
 CoulSu:  requested number of processors reduced to:  13 ShMem   1 Linda.
 CoulSu:  requested number of processors reduced to:  11 ShMem   1 Linda.
 CoulSu:  requested number of processors reduced to:  13 ShMem   1 Linda.
 CoulSu:  requested number of processors reduced to:  11 ShMem   1 Linda.
 CoulSu:  requested number of processors reduced to:  13 ShMem   1 Linda.
 CoulSu:  requested number of processors reduced to:  11 ShMem   1 Linda.
 CoulSu:  requested number of processors reduced to:  11 ShMem   1 Linda.
 CoulSu:  requested number of processors reduced to:  13 ShMem   1 Linda.
 CoulSu:  requested number of processors reduced to:  13 ShMem   1 Linda.
 CoulSu:  requested number of processors reduced to:  13 ShMem   1 Linda.
 CoulSu:  requested number of processors reduced to:  13 ShMem   1 Linda.
 CoulSu:  requested number of processors reduced to:  13 ShMem   1 Linda.
 Leave Link  701 at Fri Oct 18 03:07:42 2019, MaxMem=   104857600 cpu:              71.1 elap:               4.0
 (Enter /share/home/wli/program/opt/Chem_soft/g16/l702.exe)
 L702 exits ... SP integral derivatives will be done elsewhere.
 Leave Link  702 at Fri Oct 18 03:07:42 2019, MaxMem=   104857600 cpu:               1.3 elap:               0.1
 (Enter /share/home/wli/program/opt/Chem_soft/g16/l703.exe)
 Integral derivatives from FoFJK, PRISM(SPDF).
 Compute integral second derivatives, UseDBF=F ICtDFT=           0.
 Calling FoFJK, ICntrl=    100127 FMM=F ISym2X=0 I1Cent= 0 IOpClX= 0 NMat=1 NMatS=1 NMatT=0.
 FoFJK:  IHMeth= 1 ICntrl=  100127 DoSepK=F KAlg= 0 I1Cent=           0 FoldK=F
 IRaf=         0 NMat=       1 IRICut=       1 DoRegI=T DoRafI=F ISym2E= 0 IDoP0=0 IntGTp=1.
 FoFCou: FMM=F IPFlag=           0 FMFlag=      100000 FMFlg1=         800
         NFxFlg=           0 DoJE=F BraDBF=F KetDBF=F FulRan=T
         wScrn=  0.000000 ICntrl=    100127 IOpCl=  0 I1Cent=           0 NGrid=           0
         NMat0=    1 NMatS0=      1 NMatT0=    0 NMatD0=    1 NMtDS0=    0 NMtDT0=    0
 Symmetry not used in FoFCou.
 CoulSu:  requested number of processors reduced to:  13 ShMem   1 Linda.
 Leave Link  703 at Fri Oct 18 03:07:49 2019, MaxMem=   104857600 cpu:             141.8 elap:               7.5
 (Enter /share/home/wli/program/opt/Chem_soft/g16/l716.exe)
 Dipole        = 7.95197741D-04-1.00311553D-02-1.84841883D+00
 Polarizability= 4.21987833D+01-1.87521713D-03 4.22194957D+01
                -1.15550880D-02 5.96578941D-01 1.49741198D+02
 ***** Axes restored to original set *****
 -------------------------------------------------------------------
 Center     Atomic                   Forces (Hartrees/Bohr)
 Number     Number              X              Y              Z
 -------------------------------------------------------------------
      1        6          -0.006194177   -0.000008840    0.000122016
      2        1           0.000233231   -0.000605616   -0.000358389
      3        1           0.000215269    0.000650969   -0.000403472
      4        1           0.000188869   -0.000028544    0.000921262
      5       17           0.002515051    0.000017687   -0.000237486
      6       35           0.003041757   -0.000025656   -0.000043932
 -------------------------------------------------------------------
 Cartesian Forces:  Max     0.006194177 RMS     0.001765213
 Force constants in Cartesian coordinates: 
                1             2             3             4             5 
      1 -0.380140D-01
      2  0.526287D-04  0.681472D+00
      3  0.418885D-03 -0.209484D-03  0.680980D+00
      4 -0.992897D-02  0.160628D-01  0.853115D-02  0.333665D-01
      5  0.141639D-01 -0.309542D+00 -0.137940D+00 -0.138446D-01  0.312944D+00
      6  0.751411D-02 -0.137817D+00 -0.128422D+00 -0.764970D-02  0.145116D+00
      7 -0.100058D-01 -0.155220D-01  0.962444D-02  0.266002D-02  0.151877D-02
      8 -0.136053D-01 -0.293813D+00  0.147075D+00 -0.156504D-02 -0.120214D-01
      9  0.852743D-02  0.146821D+00 -0.144434D+00 -0.847659D-03 -0.128772D-01
     10 -0.102108D-01 -0.476993D-03 -0.183027D-01  0.266745D-02  0.486960D-04
     11 -0.385194D-03 -0.545593D-01 -0.888698D-02 -0.157109D-02  0.428189D-02
     12 -0.161602D-01 -0.887415D-02 -0.383888D+00 -0.851573D-03  0.345372D-02
     13  0.334219D-01  0.175979D-03  0.623143D-04 -0.130438D-01  0.118015D-02
     14  0.121155D-03 -0.957613D-02 -0.206663D-04 -0.550850D-02  0.209787D-02
     15 -0.152655D-03  0.376634D-04 -0.102704D-01 -0.281067D-02  0.110170D-02
     16  0.347377D-01 -0.292465D-03 -0.334052D-03 -0.157212D-01 -0.306689D-02
     17 -0.347178D-03 -0.139824D-01 -0.176805D-04  0.642640D-02  0.223896D-02
     18 -0.147556D-03  0.424644D-04 -0.139668D-01  0.362845D-02  0.114545D-02
                6             7             8             9            10 
      6  0.123055D+00
      7 -0.932603D-03  0.337962D-01
      8  0.140768D-01  0.137860D-01  0.296461D+00
      9  0.104043D-01 -0.904180D-02 -0.154624D+00  0.139788D+00
     10  0.176999D-02  0.266438D-02  0.469158D-04  0.176968D-02  0.353532D-01
     11 -0.235524D-01  0.150455D-02  0.532978D-02  0.229385D-01  0.685137D-03
     12 -0.587937D-02 -0.926282D-03 -0.405830D-02 -0.692011D-02  0.177761D-01
     13  0.749323D-03 -0.131955D-01 -0.127967D-02  0.121045D-02 -0.143660D-01
     14  0.103961D-02  0.526582D-02  0.201824D-02 -0.106313D-02 -0.677405D-04
     15  0.303179D-03 -0.271301D-02 -0.119136D-02  0.173209D-03  0.536329D-02
     16 -0.145112D-02 -0.159192D-01  0.261713D-02 -0.161811D-02 -0.161083D-01
     17  0.113680D-02 -0.655310D-02  0.202526D-02 -0.119459D-02 -0.236015D-03
     18  0.538185D-03  0.398926D-02 -0.127776D-02  0.987748D-03 -0.837630D-02
               11            12            13            14            15 
     11  0.459657D-01
     12  0.982958D-02  0.388926D+00
     13 -0.255237D-03 -0.223098D-02  0.295123D-01
     14 -0.373830D-03 -0.333421D-03  0.181383D-03  0.428753D-02
     15 -0.323421D-03  0.398304D-02  0.230203D-03  0.373759D-03  0.426088D-02
     16  0.218364D-04  0.239297D-02 -0.223289D-01  0.788190D-05  0.828477D-04
     17 -0.644223D-03 -0.174259D-04 -0.261452D-05  0.154632D-02  0.165502D-05
     18 -0.525467D-05  0.377770D-02 -0.213123D-04  0.384745D-05  0.155008D-02
               16            17            18 
     16  0.353399D-01
     17  0.712508D-03  0.881604D-02
     18  0.927466D-03  0.912472D-04  0.711307D-02
 FormGI is forming the generalized inverse of G from B-inverse, IUseBI=4.
 Force constants in internal coordinates: 
                1             2             3             4             5 
      1  0.392108D+00
      2 -0.127335D-03  0.392216D+00
      3 -0.119113D-03 -0.124362D-03  0.390103D+00
      4 -0.205571D-02 -0.239000D-02 -0.295617D-02  0.295123D-01
      5 -0.259321D-02 -0.226683D-02 -0.157199D-02  0.223289D-01  0.353401D-01
      6  0.177673D-02  0.165896D-02 -0.321983D-02  0.509271D-03 -0.556000D-03
      7  0.169720D-02 -0.324797D-02  0.180766D-02  0.922952D-03 -0.110661D-02
      8 -0.225758D-02  0.198337D-02  0.263028D-02  0.437038D-02 -0.579851D-02
      9 -0.470659D-02  0.159954D-02  0.164749D-02 -0.400375D-02  0.437232D-02
     10 -0.325782D-02  0.176595D-02  0.154678D-02  0.954798D-03 -0.119029D-02
     11  0.188733D-02 -0.266229D-02  0.340807D-02  0.423094D-02 -0.540524D-02
     12  0.185401D-02 -0.420788D-02  0.221346D-02 -0.426002D-02  0.553771D-02
     13  0.160919D-02  0.169335D-02 -0.526769D-02  0.507954D-02 -0.514719D-02
     14  0.161422D-02  0.159442D-02 -0.463292D-02 -0.541716D-02  0.644107D-02
     15 -0.696417D-02  0.358291D-02  0.427777D-02  0.366632D-03 -0.142618D-02
     16 -0.298893D-03  0.587232D-02 -0.897394D-02 -0.178464D-03  0.671581D-03
     17  0.158942D-02  0.132196D-02  0.553606D-03  0.156276D-01 -0.186724D-01
     18  0.181835D-02  0.172711D-02 -0.376672D-02 -0.243613D-03  0.425228D-03
     19 -0.153590D-02 -0.143894D-02  0.289804D-02  0.212031D-03 -0.309273D-03
     20 -0.176240D-02  0.358666D-02 -0.204853D-02 -0.996680D-04  0.153314D-03
     21  0.143432D-02 -0.298440D-02  0.155530D-02  0.101283D-03 -0.163758D-03
     22 -0.358075D-02  0.185955D-02  0.171820D-02  0.143945D-03 -0.271914D-03
     23  0.297021D-02 -0.154545D-02 -0.134274D-02 -0.110749D-03  0.145515D-03
                6             7             8             9            10 
      6  0.687446D-02
      7 -0.342543D-02  0.705258D-02
      8  0.792754D-03  0.111401D-02  0.264922D-01
      9 -0.979031D-03 -0.136291D-02 -0.152804D-01  0.315010D-01
     10 -0.343402D-02 -0.342789D-02 -0.112658D-02  0.164664D-02  0.706218D-02
     11  0.857070D-03 -0.123357D-02 -0.114921D-01  0.528604D-02  0.113581D-02
     12 -0.105073D-02  0.157192D-02  0.535991D-02 -0.135349D-01 -0.127787D-02
     13 -0.156288D-02  0.126119D-02 -0.105294D-01  0.600965D-02  0.113811D-02
     14  0.194441D-02 -0.135140D-02  0.544934D-02 -0.139818D-01 -0.151696D-02
     15 -0.186277D-03 -0.248902D-03  0.112118D-01  0.162206D-01  0.520052D-03
     16  0.333449D-03 -0.248251D-03  0.607441D-03  0.159535D-03 -0.137350D-03
     17  0.791340D-03  0.954781D-03  0.517092D-02 -0.463589D-02  0.960481D-03
     18  0.676481D-02 -0.343250D-02 -0.520638D-03 -0.106244D-03 -0.345245D-02
     19 -0.673173D-02  0.342461D-02  0.722637D-04 -0.589873D-03  0.341923D-02
     20  0.337527D-02 -0.688047D-02  0.276200D-03  0.559159D-03  0.344656D-02
     21 -0.335841D-02  0.685056D-02  0.256312D-03  0.169112D-03 -0.343391D-02
     22 -0.338954D-02 -0.344798D-02  0.796838D-03  0.665403D-03  0.689901D-02
     23  0.337333D-02  0.342595D-02  0.184048D-03  0.758984D-03 -0.685314D-02
               11            12            13            14            15 
     11  0.257291D-01
     12 -0.158247D-01  0.317566D-01
     13 -0.988570D-02  0.612827D-02  0.252101D-01
     14  0.618707D-02 -0.138856D-01 -0.169325D-01  0.331644D-01
     15 -0.620602D-02 -0.817500D-02 -0.451972D-02 -0.853248D-02  0.274325D-01
     16 -0.786351D-02 -0.136944D-01  0.695765D-02  0.138344D-01  0.766976D-03
     17  0.504128D-02 -0.504364D-02  0.530030D-02 -0.583301D-02  0.535037D-03
     18 -0.389116D-03 -0.136907D-03  0.222256D-03  0.932299D-03 -0.626882D-03
     19  0.616960D-04 -0.540040D-03  0.507583D-03  0.486837D-03 -0.517609D-03
     20 -0.633006D-03 -0.573365D-03  0.211862D-04  0.350596D-03  0.835359D-03
     21 -0.233435D-03 -0.825507D-03  0.310486D-03  0.322310D-03  0.425423D-03
     22 -0.243890D-03 -0.436458D-03 -0.201070D-03 -0.581703D-03  0.146224D-02
     23 -0.295131D-03 -0.285467D-03 -0.197096D-03 -0.164526D-03  0.943033D-03
               16            17            18            19            20 
     16  0.244823D-01
     17 -0.306683D-03  0.177415D-01
     18  0.972513D-03 -0.101589D-03  0.687943D-02
     19  0.850470D-03  0.525425D-04 -0.677803D-02  0.686506D-02
     20  0.912783D-03 -0.422212D-04  0.342393D-02 -0.339125D-02  0.694163D-02
     21  0.977471D-03  0.413289D-04 -0.337764D-02  0.343304D-02 -0.683587D-02
     22 -0.597301D-04  0.593674D-04 -0.345550D-02  0.338678D-02  0.351770D-02
     23  0.127001D-03 -0.112136D-04  0.340039D-02 -0.343202D-02 -0.344461D-02
               21            22            23 
     21  0.692872D-02
     22 -0.345822D-02  0.697320D-02
     23  0.349568D-02 -0.684500D-02  0.692770D-02
 Leave Link  716 at Fri Oct 18 03:07:49 2019, MaxMem=   104857600 cpu:               2.3 elap:               0.1
 (Enter /share/home/wli/program/opt/Chem_soft/g16/l103.exe)

 GradGradGradGradGradGradGradGradGradGradGradGradGradGradGradGradGradGrad
 Berny optimization.
 Red2BG is reusing G-inverse.
 Internal  Forces:  Max     0.003041748 RMS     0.000881324
 Search for a saddle point.
 Step number   1 out of a maximum of   50
 All quantities printed in internal units (Hartrees-Bohrs-Radians)
 Swapping is turned off.
 Second derivative matrix not updated -- analytic derivatives used.
 ITU=  0
     Eigenvalues ---   -0.01257   0.03026   0.03072   0.03889   0.04577
     Eigenvalues ---    0.04758   0.05679   0.06457   0.06734   0.39065
     Eigenvalues ---    0.39241   0.39289
 Eigenvectors required to have negative eigenvalues:
                          R4        R5        D1        A9        A3
   1                   -0.57186   0.55640   0.48919  -0.14928   0.14564
                          A7        A6        A8        A4        A5
   1                   -0.14264   0.14159   0.14046  -0.13577   0.02672
 Angle between quadratic step and forces= 132.13 degrees.
 Linear search not attempted -- option 19 set.
 Iteration  1 RMS(Cart)=  0.02264020 RMS(Int)=  0.00150888
 Iteration  2 RMS(Cart)=  0.00076160 RMS(Int)=  0.00130227
 Iteration  3 RMS(Cart)=  0.00000011 RMS(Int)=  0.00130227
 ITry= 1 IFail=0 DXMaxC= 8.89D-02 DCOld= 1.00D+10 DXMaxT= 3.00D-01 DXLimC= 3.00D+00 Rises=F
 Variable       Old X    -DE/DX   Delta X   Delta X   Delta X     New X
                                 (Linear)    (Quad)   (Total)
    R1        2.02150   0.00071   0.00000   0.00098   0.00098   2.02248
    R2        2.02150   0.00078   0.00000   0.00094   0.00094   2.02244
    R3        2.02153   0.00093   0.00000   0.00182   0.00182   2.02334
    R4        4.61365   0.00252   0.00000  -0.13416  -0.13416   4.47949
    R5        4.56930  -0.00304   0.00000   0.12408   0.12408   4.69339
    A1        2.09003  -0.00002   0.00000   0.00780   0.00433   2.09436
    A2        2.08995  -0.00002   0.00000   0.00749   0.00385   2.09379
    A3        1.52013  -0.00018   0.00000   0.04326   0.04309   1.56322
    A4        1.62132  -0.00000   0.00000  -0.04566  -0.04549   1.57583
    A5        2.08994   0.00000   0.00000   0.00858   0.00495   2.09489
    A6        1.52014  -0.00018   0.00000   0.04181   0.04165   1.56178
    A7        1.62133  -0.00000   0.00000  -0.04717  -0.04701   1.57432
    A8        1.52038   0.00019   0.00000   0.05171   0.05156   1.57194
    A9        1.62148   0.00018   0.00000  -0.04395  -0.04379   1.57769
   A10        3.14145  -0.00018   0.00000  -0.00240  -0.00240   3.13905
   A11        3.14182   0.00032   0.00000   0.00758   0.00758   3.14940
    D1        2.96690  -0.00020   0.00000   0.15652   0.15685   3.12375
    D2        2.09447   0.00002   0.00000   0.00036   0.00001   2.09448
    D3       -2.09444   0.00002   0.00000   0.00030   0.00005  -2.09439
    D4       -2.09436   0.00002   0.00000   0.00080   0.00056  -2.09380
    D5        2.09437  -0.00000   0.00000  -0.00034  -0.00052   2.09386
    D6        2.09436   0.00000   0.00000   0.00043   0.00055   2.09491
    D7       -2.09437  -0.00002   0.00000  -0.00063  -0.00057  -2.09494
         Item               Value     Threshold  Converged?
 Maximum Force            0.003042     0.000450     NO 
 RMS     Force            0.000881     0.000300     NO 
 Maximum Displacement     0.088937     0.001800     NO 
 RMS     Displacement     0.022592     0.001200     NO 
 Predicted change in Energy= 3.768840D-04
 Lowest energy point so far.  Saving SCF results.
 GradGradGradGradGradGradGradGradGradGradGradGradGradGradGradGradGradGrad

 Leave Link  103 at Fri Oct 18 03:07:51 2019, MaxMem=   104857600 cpu:              30.4 elap:               1.4
 (Enter /share/home/wli/program/opt/Chem_soft/g16/l202.exe)
                          Input orientation:                          
 ---------------------------------------------------------------------
 Center     Atomic      Atomic             Coordinates (Angstroms)
 Number     Number       Type             X           Y           Z
 ---------------------------------------------------------------------
      1          6           0        0.751363   -0.000492    0.003347
      2          1           0        0.757916   -0.941531   -0.506391
      3          1           0        0.757838    0.911473   -0.556711
      4          1           0        0.754876    0.027991    1.073671
      5         17           0        3.121784    0.001292   -0.007179
      6         35           0       -1.732252    0.001325   -0.005690
 ---------------------------------------------------------------------
                    Distance matrix (angstroms):
                    1          2          3          4          5
     1  C    0.000000
     2  H    1.070248   0.000000
     3  H    1.070228   1.853687   0.000000
     4  H    1.070708   1.853801   1.854372   0.000000
     5  Cl   2.370445   2.593453   2.592037   2.602154   0.000000
     6  Br   2.483633   2.709358   2.707867   2.711372   4.854037
                    6
     6  Br   0.000000
 Stoichiometry    CH3BrCl(1-)
 Framework group  C1[X(CH3BrCl)]
 Deg. of freedom    12
 Full point group                 C1      NOp   1
 RotChk:  IX=2 Diff= 2.30D+00
 Largest Abelian subgroup         C1      NOp   1
 Largest concise Abelian subgroup C1      NOp   1
                         Standard orientation:                         
 ---------------------------------------------------------------------
 Center     Atomic      Atomic             Coordinates (Angstroms)
 Number     Number       Type             X           Y           Z
 ---------------------------------------------------------------------
      1          6           0       -0.764145    0.008187    0.001365
      2          1           0       -0.770786   -0.152745   -1.056693
      3          1           0       -0.770610   -0.827619    0.669777
      4          1           0       -0.767578    1.005621    0.390634
      5         17           0       -3.134566   -0.002203   -0.000342
      6         35           0        1.719471   -0.001055   -0.000174
 ---------------------------------------------------------------------
 Rotational constants (GHZ):         145.8386076           0.8627259           0.8627218
 Leave Link  202 at Fri Oct 18 03:07:51 2019, MaxMem=   104857600 cpu:               1.4 elap:               0.1
 (Enter /share/home/wli/program/opt/Chem_soft/g16/l301.exe)
 Standard basis: def2TZVP (5D, 7F)
 Ernie: Thresh=  0.10000D-02 Tol=  0.10000D-05 Strict=F.
 There are   151 symmetry adapted cartesian basis functions of A   symmetry.
 There are   134 symmetry adapted basis functions of A   symmetry.
   134 basis functions,   258 primitive gaussians,   151 cartesian basis functions
    31 alpha electrons       31 beta electrons
       nuclear repulsion energy       173.0382389245 Hartrees.
 IExCor=  402 DFT=T Ex+Corr=B3LYP ExCW=0 ScaHFX=  0.200000
 ScaDFX=  0.800000  0.720000  1.000000  0.810000 ScalE2=  1.000000  1.000000
 IRadAn=      5 IRanWt=     -1 IRanGd=            0 ICorTp=0 IEmpDi=141
 NAtoms=    6 NActive=    6 NUniq=    6 SFac= 1.00D+00 NAtFMM=   60 NAOKFM=F Big=F
 Integral buffers will be    131072 words long.
 Raffenetti 2 integral format.
 Two-electron integral symmetry is turned on.
 R6Disp:  Grimme-D3(BJ) Dispersion energy=       -0.0069921028 Hartrees.
 Nuclear repulsion after empirical dispersion term =      173.0312468217 Hartrees.
 Force inversion solution in PCM.
 ------------------------------------------------------------------------------
 Polarizable Continuum Model (PCM)
 =================================
 Model                : PCM.
 Atomic radii         : SMD-Coulomb.
 Polarization charges : Total charges.
 Charge compensation  : None.
 Solution method      : Matrix inversion.
 Cavity type          : VdW (van der Waals Surface) (Alpha=1.000).
 Cavity algorithm     : GePol (No added spheres)
                        Default sphere list used, NSphG=    6.
                        Lebedev-Laikov grids with approx.  5.0 points / Ang**2.
                        Smoothing algorithm: York/Karplus (Gamma=1.0000).
                        Polarization charges: spherical gaussians, with
                                              point-specific exponents (IZeta= 3).
                        Self-potential: point-specific (ISelfS= 7).
                        Self-field    : sphere-specific E.n sum rule (ISelfD= 2).
 1st derivatives      : Analytical E(r).r(x)/FMM algorithm (CHGder, D1EAlg=3).
                        Cavity 1st derivative terms included.
 2nd derivatives      : Analytical E(r).r(xy)/FMM algorithm (CHGder, D2EAlg=3).
                        Cavity 2nd derivative terms included.
 Solvent              : Benzene, Eps=   2.270600 Eps(inf)=   2.253301
 ------------------------------------------------------------------------------
 Spheres list:
 ISph  on   Nord     Re0    Alpha      Xe            Ye            Ze
    1   C      1    1.8500  1.000     -0.764145      0.008187      0.001365
    2   H      2    1.2000  1.000     -0.770786     -0.152745     -1.056693
    3   H      3    1.2000  1.000     -0.770610     -0.827619      0.669777
    4   H      4    1.2000  1.000     -0.767578      1.005621      0.390634
    5  Cl      5    2.3800  1.000     -3.134566     -0.002203     -0.000342
    6  Br      6    3.0600  1.000      1.719471     -0.001055     -0.000174
 ------------------------------------------------------------------------------
 GePol: Number of generator spheres                  =       6
 GePol: Total number of spheres                      =       6
 GePol: Number of exposed spheres                    =       6 (100.00%)
 GePol: Number of points                             =    1026
 GePol: Average weight of points                     =       0.17
 GePol: Minimum weight of points                     =   0.55D-06
 GePol: Maximum weight of points                     =    0.22025
 GePol: Number of points with low weight             =      12
 GePol: Fraction of low-weight points (<1% of avg)   =       1.17%
 GePol: Cavity surface area                          =    175.785 Ang**2
 GePol: Cavity volume                                =    179.244 Ang**3
 ------------------------------------------------------------------------------
 Atomic radii for non-electrostatic terms: SMD-CDS.
 ------------------------------------------------------------------------------
 PCM non-electrostatic energy =        -0.0053965326 Hartrees.
 Nuclear repulsion after PCM non-electrostatic terms =      173.0258502890 Hartrees.
 Leave Link  301 at Fri Oct 18 03:07:51 2019, MaxMem=   104857600 cpu:               4.4 elap:               0.2
 (Enter /share/home/wli/program/opt/Chem_soft/g16/l302.exe)
 NPDir=0 NMtPBC=     1 NCelOv=     1 NCel=       1 NClECP=     1 NCelD=      1
         NCelK=      1 NCelE2=     1 NClLst=     1 CellRange=     0.0.
 One-electron integrals computed using PRISM.
 One-electron integral symmetry used in STVInt
 PrsmSu:  requested number of processors reduced to:  13 ShMem   1 Linda.
   1 Symmetry operations used in ECPInt.
 ECPInt:  NShTT=    1378 NPrTT=    5593 LenC2=    1324 LenP2D=    4257.
 LDataN:  DoStor=T MaxTD1= 6 Len=  172
 NBasis=   134 RedAO= T EigKep=  1.43D-03  NBF=   134
 NBsUse=   134 1.00D-06 EigRej= -1.00D+00 NBFU=   134
 Precomputing XC quadrature grid using
 IXCGrd= 4 IRadAn=           5 IRanWt=          -1 IRanGd=           0 AccXCQ= 0.00D+00.
 Generated NRdTot=       0 NPtTot=           0 NUsed=           0 NTot=          32
 NSgBfM=   150   150   150   150   150 MxSgAt=     6 MxSgA2=     6.
 Leave Link  302 at Fri Oct 18 03:07:52 2019, MaxMem=   104857600 cpu:              13.6 elap:               0.6
 (Enter /share/home/wli/program/opt/Chem_soft/g16/l303.exe)
 DipDrv:  MaxL=1.
 Leave Link  303 at Fri Oct 18 03:07:52 2019, MaxMem=   104857600 cpu:               2.7 elap:               0.1
 (Enter /share/home/wli/program/opt/Chem_soft/g16/l401.exe)
 Initial guess from the checkpoint file:  "ts_smd_benzene_maugccpvtz.chk"
 B after Tr=     0.000000    0.000000    0.000000
         Rot=    0.580768    0.403397    0.578488   -0.406609 Ang= 108.99 deg.
 Guess basis will be translated and rotated to current coordinates.
 JPrj=2 DoOrth=T DoCkMO=T.
 Generating alternative initial guess.
 ExpMin= 9.52D-02 ExpMax= 5.65D+05 ExpMxC= 5.46D+03 IAcc=2 IRadAn=         4 AccDes= 0.00D+00
 Harris functional with IExCor=  402 and IRadAn=       4 diagonalized for initial guess.
 HarFok:  IExCor=  402 AccDes= 0.00D+00 IRadAn=         4 IDoV= 1 UseB2=F ITyADJ=14
 ICtDFT=  3500011 ScaDFX=  1.000000  1.000000  1.000000  1.000000
 FoFCou: FMM=F IPFlag=           0 FMFlag=      100000 FMFlg1=           0
         NFxFlg=           0 DoJE=T BraDBF=F KetDBF=T FulRan=T
         wScrn=  0.000000 ICntrl=       500 IOpCl=  0 I1Cent=   200000004 NGrid=           0
         NMat0=    1 NMatS0=      1 NMatT0=    0 NMatD0=    1 NMtDS0=    0 NMtDT0=    0
 Petite list used in FoFCou.
 Harris En= -3074.57849026055    
 Leave Link  401 at Fri Oct 18 03:07:53 2019, MaxMem=   104857600 cpu:              25.2 elap:               1.1
 (Enter /share/home/wli/program/opt/Chem_soft/g16/l502.exe)
 Keep R1 ints in memory in canonical form, NReq=64315121.
 FoFCou: FMM=F IPFlag=           0 FMFlag=           0 FMFlg1=           0
         NFxFlg=           0 DoJE=F BraDBF=F KetDBF=F FulRan=T
         wScrn=  0.000000 ICntrl=       600 IOpCl=  0 I1Cent=           0 NGrid=           0
         NMat0=    1 NMatS0=   9045 NMatT0=    0 NMatD0=    1 NMtDS0=    0 NMtDT0=    0
 Symmetry not used in FoFCou.
 Two-electron integral symmetry not used.
 Closed shell SCF:
 Using DIIS extrapolation, IDIIS=  1040.
 NGot=   104857600 LenX=    63896377 LenY=    63873135
 Requested convergence on RMS density matrix=1.00D-08 within 128 cycles.
 Requested convergence on MAX density matrix=1.00D-06.
 Requested convergence on             energy=1.00D-06.
 No special actions if energy rises.

 Cycle   1  Pass 1  IDiag  1:
 CoulSu:  requested number of processors reduced to:  17 ShMem   1 Linda.
 Inv3:  Mode=1 IEnd=     3158028.
 Iteration    1 A*A^-1 deviation from unit magnitude is 3.33D-15 for   1023.
 Iteration    1 A*A^-1 deviation from orthogonality  is 1.14D-15 for    242     15.
 Iteration    1 A^-1*A deviation from unit magnitude is 3.33D-15 for   1023.
 Iteration    1 A^-1*A deviation from orthogonality  is 9.50D-16 for   1022   1020.
 CoulSu:  requested number of processors reduced to:  17 ShMem   1 Linda.
 CoulSu:  requested number of processors reduced to:  17 ShMem   1 Linda.
 E= -3074.47153976789    
 DIIS: error= 2.94D-03 at cycle   1 NSaved=   1.
 NSaved= 1 IEnMin= 1 EnMin= -3074.47153976789     IErMin= 1 ErrMin= 2.94D-03
 ErrMax= 2.94D-03  0.00D+00 EMaxC= 1.00D-01 BMatC= 7.42D-04 BMatP= 7.42D-04
 IDIUse=3 WtCom= 9.71D-01 WtEn= 2.94D-02
 Coeff-Com:  0.100D+01
 Coeff-En:   0.100D+01
 Coeff:      0.100D+01
 Gap=     0.630 Goal=   None    Shift=    0.000
 GapD=    0.630 DampG=2.000 DampE=1.000 DampFc=2.0000 IDamp=-1.
 RMSDP=4.07D-04 MaxDP=8.38D-03              OVMax= 4.04D-02

 Cycle   2  Pass 1  IDiag  1:
 E= -3074.47277725117     Delta-E=       -0.001237483279 Rises=F Damp=F
 DIIS: error= 8.12D-04 at cycle   2 NSaved=   2.
 NSaved= 2 IEnMin= 2 EnMin= -3074.47277725117     IErMin= 2 ErrMin= 8.12D-04
 ErrMax= 8.12D-04  0.00D+00 EMaxC= 1.00D-01 BMatC= 1.11D-04 BMatP= 7.42D-04
 IDIUse=3 WtCom= 9.92D-01 WtEn= 8.12D-03
 Coeff-Com:  0.105D+00 0.895D+00
 Coeff-En:   0.000D+00 0.100D+01
 Coeff:      0.104D+00 0.896D+00
 Gap=     0.197 Goal=   None    Shift=    0.000
 RMSDP=2.39D-04 MaxDP=5.92D-03 DE=-1.24D-03 OVMax= 1.73D-02

 Cycle   3  Pass 1  IDiag  1:
 E= -3074.47271254291     Delta-E=        0.000064708264 Rises=F Damp=F
 DIIS: error= 1.03D-03 at cycle   3 NSaved=   3.
 NSaved= 3 IEnMin= 2 EnMin= -3074.47277725117     IErMin= 2 ErrMin= 8.12D-04
 ErrMax= 1.03D-03  0.00D+00 EMaxC= 1.00D-01 BMatC= 1.99D-04 BMatP= 1.11D-04
 IDIUse=3 WtCom= 2.38D-01 WtEn= 7.62D-01
 Coeff-Com: -0.185D-01 0.587D+00 0.432D+00
 Coeff-En:   0.000D+00 0.572D+00 0.428D+00
 Coeff:     -0.440D-02 0.576D+00 0.429D+00
 Gap=     0.197 Goal=   None    Shift=    0.000
 RMSDP=1.17D-04 MaxDP=3.07D-03 DE= 6.47D-05 OVMax= 1.03D-02

 Cycle   4  Pass 1  IDiag  1:
 E= -3074.47294566115     Delta-E=       -0.000233118242 Rises=F Damp=F
 DIIS: error= 8.50D-05 at cycle   4 NSaved=   4.
 NSaved= 4 IEnMin= 4 EnMin= -3074.47294566115     IErMin= 4 ErrMin= 8.50D-05
 ErrMax= 8.50D-05  0.00D+00 EMaxC= 1.00D-01 BMatC= 1.66D-06 BMatP= 1.11D-04
 IDIUse=1 WtCom= 1.00D+00 WtEn= 0.00D+00
 Coeff-Com: -0.126D-01 0.173D+00 0.129D+00 0.711D+00
 Coeff:     -0.126D-01 0.173D+00 0.129D+00 0.711D+00
 Gap=     0.197 Goal=   None    Shift=    0.000
 RMSDP=9.31D-06 MaxDP=2.57D-04 DE=-2.33D-04 OVMax= 9.05D-04

 Cycle   5  Pass 1  IDiag  1:
 E= -3074.47294666192     Delta-E=       -0.000001000770 Rises=F Damp=F
 DIIS: error= 3.69D-05 at cycle   5 NSaved=   5.
 NSaved= 5 IEnMin= 5 EnMin= -3074.47294666192     IErMin= 5 ErrMin= 3.69D-05
 ErrMax= 3.69D-05  0.00D+00 EMaxC= 1.00D-01 BMatC= 2.36D-07 BMatP= 1.66D-06
 IDIUse=1 WtCom= 1.00D+00 WtEn= 0.00D+00
 Coeff-Com: -0.435D-02 0.375D-01 0.343D-01 0.274D+00 0.659D+00
 Coeff:     -0.435D-02 0.375D-01 0.343D-01 0.274D+00 0.659D+00
 Gap=     0.197 Goal=   None    Shift=    0.000
 RMSDP=4.07D-06 MaxDP=1.20D-04 DE=-1.00D-06 OVMax= 3.94D-04

 Cycle   6  Pass 1  IDiag  1:
 E= -3074.47294678512     Delta-E=       -0.000000123206 Rises=F Damp=F
 DIIS: error= 2.88D-05 at cycle   6 NSaved=   6.
 NSaved= 6 IEnMin= 6 EnMin= -3074.47294678512     IErMin= 6 ErrMin= 2.88D-05
 ErrMax= 2.88D-05  0.00D+00 EMaxC= 1.00D-01 BMatC= 9.24D-08 BMatP= 2.36D-07
 IDIUse=1 WtCom= 1.00D+00 WtEn= 0.00D+00
 Coeff-Com: -0.580D-03-0.563D-02 0.289D-02 0.493D-01 0.401D+00 0.553D+00
 Coeff:     -0.580D-03-0.563D-02 0.289D-02 0.493D-01 0.401D+00 0.553D+00
 Gap=     0.197 Goal=   None    Shift=    0.000
 RMSDP=1.86D-06 MaxDP=4.07D-05 DE=-1.23D-07 OVMax= 1.93D-04

 Cycle   7  Pass 1  IDiag  1:
 E= -3074.47294688944     Delta-E=       -0.000000104318 Rises=F Damp=F
 DIIS: error= 4.24D-06 at cycle   7 NSaved=   7.
 NSaved= 7 IEnMin= 7 EnMin= -3074.47294688944     IErMin= 7 ErrMin= 4.24D-06
 ErrMax= 4.24D-06  0.00D+00 EMaxC= 1.00D-01 BMatC= 2.29D-09 BMatP= 9.24D-08
 IDIUse=1 WtCom= 1.00D+00 WtEn= 0.00D+00
 Coeff-Com:  0.455D-04-0.514D-02-0.491D-03 0.511D-02 0.114D+00 0.229D+00
 Coeff-Com:  0.658D+00
 Coeff:      0.455D-04-0.514D-02-0.491D-03 0.511D-02 0.114D+00 0.229D+00
 Coeff:      0.658D+00
 Gap=     0.197 Goal=   None    Shift=    0.000
 RMSDP=3.26D-07 MaxDP=6.27D-06 DE=-1.04D-07 OVMax= 2.28D-05

 Cycle   8  Pass 1  IDiag  1:
 E= -3074.47294689188     Delta-E=       -0.000000002437 Rises=F Damp=F
 DIIS: error= 5.65D-07 at cycle   8 NSaved=   8.
 NSaved= 8 IEnMin= 8 EnMin= -3074.47294689188     IErMin= 8 ErrMin= 5.65D-07
 ErrMax= 5.65D-07  0.00D+00 EMaxC= 1.00D-01 BMatC= 5.61D-11 BMatP= 2.29D-09
 IDIUse=1 WtCom= 1.00D+00 WtEn= 0.00D+00
 Coeff-Com:  0.310D-04-0.132D-02-0.890D-04 0.102D-02 0.148D-01 0.421D-01
 Coeff-Com:  0.191D+00 0.753D+00
 Coeff:      0.310D-04-0.132D-02-0.890D-04 0.102D-02 0.148D-01 0.421D-01
 Coeff:      0.191D+00 0.753D+00
 Gap=     0.197 Goal=   None    Shift=    0.000
 RMSDP=6.55D-08 MaxDP=1.97D-06 DE=-2.44D-09 OVMax= 2.72D-06

 Cycle   9  Pass 1  IDiag  1:
 E= -3074.47294689195     Delta-E=       -0.000000000065 Rises=F Damp=F
 DIIS: error= 1.26D-07 at cycle   9 NSaved=   9.
 NSaved= 9 IEnMin= 9 EnMin= -3074.47294689195     IErMin= 9 ErrMin= 1.26D-07
 ErrMax= 1.26D-07  0.00D+00 EMaxC= 1.00D-01 BMatC= 3.24D-12 BMatP= 5.61D-11
 IDIUse=1 WtCom= 1.00D+00 WtEn= 0.00D+00
 Coeff-Com:  0.572D-05-0.125D-03 0.351D-04 0.505D-04-0.114D-02-0.138D-02
 Coeff-Com:  0.825D-02 0.212D+00 0.782D+00
 Coeff:      0.572D-05-0.125D-03 0.351D-04 0.505D-04-0.114D-02-0.138D-02
 Coeff:      0.825D-02 0.212D+00 0.782D+00
 Gap=     0.197 Goal=   None    Shift=    0.000
 RMSDP=2.08D-08 MaxDP=7.39D-07 DE=-6.55D-11 OVMax= 9.92D-07

 Cycle  10  Pass 1  IDiag  1:
 E= -3074.47294689196     Delta-E=       -0.000000000012 Rises=F Damp=F
 DIIS: error= 3.40D-08 at cycle  10 NSaved=  10.
 NSaved=10 IEnMin=10 EnMin= -3074.47294689196     IErMin=10 ErrMin= 3.40D-08
 ErrMax= 3.40D-08  0.00D+00 EMaxC= 1.00D-01 BMatC= 1.04D-13 BMatP= 3.24D-12
 IDIUse=1 WtCom= 1.00D+00 WtEn= 0.00D+00
 Coeff-Com:  0.226D-05-0.252D-04 0.133D-04-0.109D-04-0.943D-03-0.175D-02
 Coeff-Com: -0.519D-03 0.784D-01 0.322D+00 0.603D+00
 Coeff:      0.226D-05-0.252D-04 0.133D-04-0.109D-04-0.943D-03-0.175D-02
 Coeff:     -0.519D-03 0.784D-01 0.322D+00 0.603D+00
 Gap=     0.197 Goal=   None    Shift=    0.000
 RMSDP=1.87D-09 MaxDP=4.64D-08 DE=-1.23D-11 OVMax= 8.98D-08

 CoulSu:  requested number of processors reduced to:  17 ShMem   1 Linda.
 CoulSu:  requested number of processors reduced to:  16 ShMem   1 Linda.
 Error on total polarization charges =  0.00295
 SCF Done:  E(RB3LYP) =  -3074.47294689     A.U. after   10 cycles
            NFock= 10  Conv=0.19D-08     -V/T= 2.0015
 KE= 3.069813128618D+03 PE=-7.699191299764D+03 EE= 1.381879373965D+03
 SMD-CDS (non-electrostatic) energy       (kcal/mol) =      -3.39
 (included in total energy above)
 Leave Link  502 at Fri Oct 18 03:08:00 2019, MaxMem=   104857600 cpu:             146.3 elap:               7.0
 (Enter /share/home/wli/program/opt/Chem_soft/g16/l801.exe)
 DoSCS=F DFT=T ScalE2(SS,OS)=  1.000000  1.000000
 Range of M.O.s used for correlation:     1   134
 NBasis=   134 NAE=    31 NBE=    31 NFC=     0 NFV=     0
 NROrb=    134 NOA=    31 NOB=    31 NVA=   103 NVB=   103
 Leave Link  801 at Fri Oct 18 03:08:00 2019, MaxMem=   104857600 cpu:               1.3 elap:               0.1
 (Enter /share/home/wli/program/opt/Chem_soft/g16/l1101.exe)
 Using compressed storage, NAtomX=     6.
 Will process      7 centers per pass.
 PrsmSu:  requested number of processors reduced to:  11 ShMem   1 Linda.
   1 Symmetry operations used in ECPInt.
 ECPInt:  NShTT=    1378 NPrTT=    5593 LenC2=    1324 LenP2D=    4257.
 LDataN:  DoStor=T MaxTD1= 7 Len=  274
 Number of processors reduced to  18 by ecpmxn.
 R6Disp: Adding Grimme-D3(BJ) dispersion energy 1st derivatives to the gradient.
 Leave Link 1101 at Fri Oct 18 03:08:01 2019, MaxMem=   104857600 cpu:              10.2 elap:               0.5
 (Enter /share/home/wli/program/opt/Chem_soft/g16/l1102.exe)
 Symmetrizing basis deriv contribution to polar:
 IMax=3 JMax=2 DiffMx= 0.00D+00
 Leave Link 1102 at Fri Oct 18 03:08:01 2019, MaxMem=   104857600 cpu:               3.0 elap:               0.2
 (Enter /share/home/wli/program/opt/Chem_soft/g16/l1110.exe)
 Forming Gx(P) for the SCF density, NAtomX=     6.
 Integral derivatives from FoFJK, PRISM(SPDF).
 Do as many integral derivatives as possible in FoFJK.
 G2DrvN: MDV=     104857020.
 G2DrvN: will do     7 centers at a time, making    1 passes.
 Calling FoFCou, ICntrl=  3107 FMM=F I1Cent=   0 AccDes= 0.00D+00.
 FoFJK:  IHMeth= 1 ICntrl=    3107 DoSepK=F KAlg= 0 I1Cent=           0 FoldK=F
 IRaf=         0 NMat=       1 IRICut=       1 DoRegI=T DoRafI=F ISym2E= 0 IDoP0=0 IntGTp=1.
 FoFCou: FMM=F IPFlag=           0 FMFlag=      100000 FMFlg1=           0
         NFxFlg=           0 DoJE=F BraDBF=F KetDBF=F FulRan=T
         wScrn=  0.000000 ICntrl=      3107 IOpCl=  0 I1Cent=           0 NGrid=           0
         NMat0=    1 NMatS0=      1 NMatT0=    0 NMatD0=    1 NMtDS0=    0 NMtDT0=    0
 Symmetry not used in FoFCou.
 NEqPCM:  Using equilibrium solvation (IEInf=0, Eps=   2.2706, EpsInf=   2.2533)
 G2PCM: DoFxE=T DoFxN=T DoGrad=T DoDP/DQ/DG/TGxP=FFFF NFrqRd=   0 IEInf=0 SqF1=F DoCFld=F IF1Alg=4.
 GePol: Maximum number of non-zero 1st derivatives   =     565
 CoulSu:  requested number of processors reduced to:  13 ShMem   1 Linda.
 CoulSu:  requested number of processors reduced to:  13 ShMem   1 Linda.
 CoulSu:  requested number of processors reduced to:  13 ShMem   1 Linda.
 CoulSu:  requested number of processors reduced to:  17 ShMem   1 Linda.
 CoulSu:  requested number of processors reduced to:  23 ShMem   1 Linda.
 CoulSu:  requested number of processors reduced to:  13 ShMem   1 Linda.
 CoulSu:  requested number of processors reduced to:  13 ShMem   1 Linda.
 CoulSu:  requested number of processors reduced to:  13 ShMem   1 Linda.
 CoulSu:  requested number of processors reduced to:  13 ShMem   1 Linda.
 End of G2Drv F.D. properties file   721 does not exist.
 End of G2Drv F.D. properties file   722 does not exist.
 End of G2Drv F.D. properties file   788 does not exist.
 Leave Link 1110 at Fri Oct 18 03:08:07 2019, MaxMem=   104857600 cpu:             149.1 elap:               6.6
 (Enter /share/home/wli/program/opt/Chem_soft/g16/l1002.exe)
 Minotr:  Closed shell wavefunction.
          IDoAtm=111111
 NEqPCM:  Using equilibrium solvation (IEInf=0, Eps=   2.2706, EpsInf=   2.2533)
          Direct CPHF calculation.
          Differentiating once with respect to electric field.
                with respect to dipole field.
          Differentiating once with respect to nuclear coordinates.
          Requested convergence is 1.0D-08 RMS, and 1.0D-07 maximum.
          Secondary convergence is 1.0D-12 RMS, and 1.0D-12 maximum.
          NewPWx=T KeepS1=F KeepF1=F KeepIn=T MapXYZ=F SortEE=F KeepMc=T.
         1761 words used for storage of precomputed grid.
 Keep R1 ints in memory in canonical form, NReq=64236638.
 FoFCou: FMM=F IPFlag=           0 FMFlag=           0 FMFlg1=           0
         NFxFlg=           0 DoJE=F BraDBF=F KetDBF=F FulRan=T
         wScrn=  0.000000 ICntrl=       600 IOpCl=  0 I1Cent=           0 NGrid=           0
         NMat0=    1 NMatS0=   9045 NMatT0=    0 NMatD0=    1 NMtDS0=    0 NMtDT0=    0
 Symmetry not used in FoFCou.
 Two-electron integral symmetry not used.
          MDV=     104857600 using IRadAn=       1.
          Solving linear equations simultaneously, MaxMat=       0.
 CoulSu:  requested number of processors reduced to:  13 ShMem   1 Linda.
[...]
 Vibration     3          0.625              1.881              2.449
                       Q            Log10(Q)             Ln(Q)
 Total Bot       0.369428D-03         -3.432470         -7.903555
 Total V=0       0.292444D+14         13.466043         31.006711
 Vib (Bot)       0.770822D-16        -16.113046        -37.101659
 Vib (Bot)    1  0.122649D+01          0.088664          0.204156
 Vib (Bot)    2  0.119823D+01          0.078541          0.180848
 Vib (Bot)    3  0.119475D+01          0.077278          0.177940
 Vib (V=0)       0.610194D+01          0.785468          1.808606
 Vib (V=0)    1  0.182449D+01          0.261142          0.601301
 Vib (V=0)    2  0.179837D+01          0.254879          0.586880
 Vib (V=0)    3  0.179516D+01          0.254103          0.585093
 Electronic      0.100000D+01          0.000000          0.000000
 Translational   0.575290D+08          7.759887         17.867800
 Rotational      0.833083D+05          4.920688         11.330304
 
                                                         Title Card Required
                                                             IR Spectrum
 
     33      3                                                                 11             1                                      
     33      1                                                                 44             0   98                        111      
     99      9                                                                 00             2   09                        666      
     50      7                                                                 96             3   77                        985      
 
     XX      X                                                                 XX             X   XX                        XXX      
                                                                                              X                                      
                                                                                              X                                      
                                                                                              X                                      
                                                                                              X                                      
                                                                                              X                                      
                                                                                              X                                      
                                                                                              X                                      
                                                                                              X                                      
                                                                                              X                                      
                                                                                              X                                      
                                                                                              X                                      
                                                                                              X                                      
                                                                                              X                                      
                                                                                              X                                      
                                                                                              X                                      
                                                                                              X                                      
                                                                                              X                                      
                                                                                              X                                      
                                                                                              X                                      
 
 ***** Axes restored to original set *****
 -------------------------------------------------------------------
 Center     Atomic                   Forces (Hartrees/Bohr)
 Number     Number              X              Y              Z
 -------------------------------------------------------------------
      1        6           0.000003355   -0.000029705   -0.000048347
      2        1          -0.000080629   -0.000077650    0.000062941
      3        1          -0.000021782    0.000001388   -0.000014349
      4        1           0.000118123    0.000057361    0.000016252
      5       17          -0.000013261    0.000153470    0.000056325
      6       35          -0.000005805   -0.000104864   -0.000072822
 -------------------------------------------------------------------
 Cartesian Forces:  Max     0.000153470 RMS     0.000067143
 Force constants in Cartesian coordinates: 
                1             2             3             4             5 
      1 -0.467065D-01
      2 -0.577019D-03  0.680543D+00
      3 -0.268003D-03  0.346820D-03  0.680767D+00
      4 -0.908000D-02  0.304514D-02  0.173873D-02  0.341915D-01
      5  0.247781D-02 -0.308684D+00 -0.137602D+00 -0.343770D-02  0.309843D+00
      6  0.132952D-02 -0.137694D+00 -0.130140D+00 -0.194883D-02  0.144688D+00
      7 -0.893670D-02 -0.315317D-02  0.195810D-02  0.256058D-02  0.250458D-03
      8 -0.241465D-02 -0.293321D+00  0.146457D+00 -0.276708D-03 -0.118298D-01
      9  0.172245D-02  0.146819D+00 -0.145321D+00 -0.188013D-03 -0.128442D-01
     10 -0.894380D-02 -0.528068D-04 -0.328387D-02  0.257581D-02 -0.355438D-04
     11 -0.291731D-05 -0.553178D-01 -0.907900D-02 -0.285980D-03  0.434821D-02
     12 -0.266865D-02 -0.911460D-02 -0.383204D+00 -0.110802D-03  0.349841D-02
     13  0.378761D-01  0.135475D-03 -0.333125D-03 -0.156546D-01  0.278444D-02
     14  0.128303D-03 -0.120734D-01 -0.214497D-03 -0.527588D-02  0.360663D-02
     15 -0.193610D-03 -0.275275D-03 -0.117690D-01 -0.283894D-02  0.108560D-02
     16  0.357909D-01  0.602380D-03  0.188166D-03 -0.145933D-01 -0.203947D-02
     17  0.388474D-03 -0.111475D-01  0.914736D-04  0.623113D-02  0.271551D-02
     18  0.782910D-04 -0.814214D-04 -0.103322D-01  0.334785D-02  0.117464D-02
                6             7             8             9            10 
      6  0.124106D+00
      7 -0.191023D-03  0.335412D-01
      8  0.140663D-01  0.272011D-02  0.296238D+00
      9  0.104422D-01 -0.154324D-02 -0.154023D+00  0.140092D+00
     10  0.364550D-03  0.255234D-02  0.478946D-04  0.329045D-03  0.329761D-01
     11 -0.234203D-01  0.302925D-03  0.540274D-02  0.228159D-01 -0.227390D-03
     12 -0.575042D-02 -0.133907D-03 -0.411768D-02 -0.679777D-02  0.185083D-02
     13  0.151655D-02 -0.150257D-01 -0.209651D-02  0.887755D-03 -0.144978D-01
     14  0.114835D-02  0.569912D-02  0.186884D-02 -0.155984D-02  0.341857D-03
     15  0.522475D-03 -0.384871D-02 -0.138017D-02  0.929306D-03  0.732687D-02
     16 -0.107077D-02 -0.146917D-01  0.201987D-02 -0.120800D-02 -0.146626D-01
     17  0.121221D-02 -0.581945D-02  0.164127D-02 -0.120749D-02 -0.740115D-04
     18  0.819409D-03  0.375878D-02 -0.100269D-02  0.655908D-03 -0.658742D-02
               11            12            13            14            15 
     11  0.459934D-01
     12  0.943395D-02  0.390510D+00
     13  0.255633D-04 -0.160507D-02  0.300719D-01
     14 -0.120207D-03  0.237039D-03 -0.846002D-03  0.512974D-02
     15  0.173502D-03  0.298878D-02 -0.446284D-03  0.389971D-03  0.574063D-02
     16  0.187799D-03  0.266760D-02 -0.227699D-01 -0.474029D-04  0.000000D+00
     17 -0.306384D-03  0.628823D-04 -0.296557D-05  0.158835D-02  0.637389D-05
     18  0.759454D-04  0.225346D-02 -0.198244D-04 -0.102170D-05  0.158781D-02
               16            17            18 
     16  0.309266D-01
     17 -0.723175D-03  0.550879D-02
     18 -0.577680D-03 -0.165448D-03  0.501559D-02
 Red2BG is reusing G-inverse.
 Force constants in internal coordinates: 
                1             2             3             4             5 
      1  0.388939D+00
      2 -0.154912D-03  0.390871D+00
      3 -0.140186D-03 -0.148539D-03  0.390772D+00
      4 -0.330678D-02 -0.237130D-02 -0.170899D-02  0.300709D-01
      5 -0.218603D-02 -0.222692D-02 -0.256579D-02  0.227699D-01  0.309273D-01
      6  0.136658D-02  0.163517D-02 -0.329943D-02  0.152028D-04 -0.965962D-04
      7  0.191453D-02 -0.329561D-02  0.169495D-02  0.180790D-03 -0.181526D-03
      8 -0.555677D-02  0.177561D-02  0.183088D-02  0.473607D-02 -0.447218D-02
      9 -0.374838D-02  0.155613D-02  0.179282D-02 -0.608812D-02  0.567698D-02
     10 -0.328924D-02  0.166085D-02  0.161474D-02  0.223859D-03 -0.131335D-03
     11  0.321356D-02 -0.372927D-02  0.161141D-02  0.549107D-02 -0.510764D-02
     12  0.243257D-02 -0.319968D-02  0.166720D-02 -0.476658D-02  0.473480D-02
     13  0.204589D-02  0.197433D-02 -0.307463D-02  0.498675D-02 -0.525744D-02
     14  0.160680D-02  0.163125D-02 -0.383104D-02 -0.435966D-02  0.442591D-02
     15 -0.930516D-02  0.333173D-02  0.362370D-02 -0.135205D-02  0.120479D-02
     16 -0.114826D-02  0.607781D-02 -0.587780D-02 -0.562891D-04 -0.264765D-03
     17 -0.318492D-03  0.434066D-04  0.376686D-03  0.175635D-01 -0.171300D-01
     18  0.140739D-02  0.166190D-02 -0.335230D-02 -0.139544D-03  0.483849D-04
     19 -0.135167D-02 -0.161006D-02  0.325182D-02  0.135025D-03 -0.476604D-04
     20 -0.195467D-02  0.334194D-02 -0.171232D-02 -0.616333D-04  0.620720D-04
     21  0.188537D-02 -0.324975D-02  0.166383D-02  0.296110D-04 -0.352070D-04
     22 -0.336206D-02  0.168004D-02  0.163998D-02  0.779109D-04  0.136870D-04
     23  0.323704D-02 -0.163969D-02 -0.158799D-02 -0.105414D-03  0.124534D-04
                6             7             8             9            10 
      6  0.684641D-02
      7 -0.341300D-02  0.686505D-02
      8 -0.207512D-04  0.270092D-03  0.273525D-01
      9 -0.328980D-03 -0.153324D-03 -0.166210D-01  0.300216D-01
     10 -0.343329D-02 -0.344667D-02 -0.133174D-03  0.347259D-03  0.688451D-02
     11  0.357130D-03 -0.322735D-03 -0.110701D-01  0.609975D-02  0.893678D-04
     12  0.385674D-04  0.217498D-03  0.612229D-02 -0.129481D-01 -0.375565D-03
     13 -0.322746D-03  0.236922D-03 -0.120665D-01  0.562360D-02  0.210020D-03
     14  0.285356D-03 -0.264035D-03  0.628518D-02 -0.121726D-01 -0.130912D-03
     15 -0.349731D-03  0.116768D-03  0.107315D-01  0.134007D-01  0.214085D-03
     16 -0.253652D-03  0.534206D-04 -0.481561D-03  0.173276D-03  0.206201D-03
     17  0.113991D-03  0.170607D-03  0.485917D-02 -0.565445D-02  0.135759D-03
     18  0.684258D-02 -0.341307D-02 -0.289915D-03 -0.156319D-03 -0.343303D-02
     19 -0.684345D-02  0.341236D-02  0.154903D-03  0.113971D-03  0.343450D-02
     20  0.340902D-02 -0.685954D-02 -0.987084D-04  0.275694D-04  0.344809D-02
     21 -0.341393D-02  0.685992D-02  0.127175D-03  0.926996D-04 -0.344416D-02
     22 -0.343356D-02 -0.344647D-02  0.191206D-03  0.183888D-03  0.688112D-02
     23  0.342953D-02  0.344756D-02 -0.277272D-04 -0.212718D-04 -0.687867D-02
               11            12            13            14            15 
     11  0.275947D-01
     12 -0.166961D-01  0.291911D-01
     13 -0.120428D-01  0.624547D-02  0.286061D-01
     14  0.611345D-02 -0.119163D-01 -0.163676D-01  0.280565D-01
     15 -0.497030D-02 -0.682579D-02 -0.644290D-02 -0.588743D-02  0.241322D-01
     16 -0.971505D-02 -0.104877D-01  0.104127D-01  0.100981D-01 -0.308285D-03
     17  0.518295D-02 -0.499828D-02  0.519022D-02 -0.457989D-02 -0.795285D-03
     18  0.128679D-03  0.185896D-03  0.430451D-04  0.971679D-04 -0.446234D-03
     19 -0.198006D-03 -0.286302D-03  0.157445D-03  0.493902D-04  0.268874D-03
     20  0.393163D-04 -0.660035D-04 -0.180892D-04  0.131506D-03 -0.711391D-04
     21 -0.145389D-03 -0.143283D-03  0.740301D-04 -0.207894D-04  0.219875D-03
     22 -0.893632D-04 -0.251899D-03 -0.611343D-04  0.343380D-04  0.375094D-03
     23  0.526164D-04  0.143019D-03 -0.834147D-04 -0.701796D-04 -0.489990D-04
               16            17            18            19            20 
     16  0.235048D-01
     17  0.245684D-03  0.175862D-01
     18 -0.104280D-03 -0.381817D-04  0.684632D-02
     19  0.402629D-03  0.337624D-04 -0.684406D-02  0.684694D-02
     20  0.725653D-04 -0.474179D-04  0.341052D-02 -0.340888D-02  0.685883D-02
     21  0.205715D-03  0.223222D-04 -0.341433D-02  0.341519D-02 -0.685816D-02
     22  0.176845D-03 -0.923625D-05 -0.343580D-02  0.343518D-02  0.344831D-02
     23 -0.196914D-03 -0.114402D-04  0.342972D-02 -0.343175D-02 -0.344929D-02
               21            22            23 
     21  0.686189D-02
     22 -0.344383D-02  0.688411D-02
     23  0.344670D-02 -0.687901D-02  0.687845D-02
 Leave Link  716 at Fri Oct 18 03:09:36 2019, MaxMem=   104857600 cpu:               2.8 elap:               0.1
 (Enter /share/home/wli/program/opt/Chem_soft/g16/l9999.exe)

 ----------------------------------------------------------------------

 Electric dipole moment (input orientation):
 (Debye = 10**-18 statcoulomb cm , SI units = C m)
                  (au)            (Debye)         (10**-30 SI)
   Tot        0.141651D+01      0.360041D+01      0.120097D+02
   x         -0.141651D+01     -0.360041D+01     -0.120097D+02
   y         -0.246668D-02     -0.626967D-02     -0.209134D-01
   z          0.172772D-02      0.439144D-02      0.146483D-01

 Dipole polarizability, Alpha (input orientation).
 (esu units = cm**3 , SI units = C**2 m**2 J**-1)
 Alpha(0;0):
               (au)            (10**-24 esu)      (10**-40 SI)
   iso        0.785803D+02      0.116444D+02      0.129561D+02
   aniso      0.108738D+03      0.161134D+02      0.179285D+02
   xx         0.151073D+03      0.223866D+02      0.249085D+02
   yx         0.189057D-02      0.280154D-03      0.311713D-03
   yy         0.423318D+02      0.627292D+01      0.697957D+01
   zx        -0.137641D-01     -0.203963D-02     -0.226939D-02
   zy        -0.150105D-02     -0.222433D-03     -0.247490D-03
   zz         0.423367D+02      0.627365D+01      0.698037D+01

 ----------------------------------------------------------------------

 Dipole orientation:
     6          0.00324888         -0.00398334         -1.41330800
     1         -0.95747938         -1.78422795         -1.42822890
     1         -1.05824725          1.71785011         -1.43450730
     1          2.02537668          0.05377283         -1.42553793
    17          0.00482444         -0.00682486         -5.90478368
    35         -0.00555352          0.00902875          3.26981283

 Electric dipole moment (dipole orientation):
 (Debye = 10**-18 statcoulomb cm , SI units = C m)
                  (au)            (Debye)         (10**-30 SI)
   Tot        0.141651D+01      0.360041D+01      0.120097D+02
   x          0.000000D+00      0.000000D+00      0.000000D+00
   y          0.000000D+00      0.000000D+00      0.000000D+00
   z          0.141651D+01      0.360041D+01      0.120097D+02

 Dipole polarizability, Alpha (dipole orientation).
 (esu units = cm**3 , SI units = C**2 m**2 J**-1)
 Alpha(0;0):
               (au)            (10**-24 esu)      (10**-40 SI)
   iso        0.785803D+02      0.116444D+02      0.129561D+02
   aniso      0.108738D+03      0.161134D+02      0.179285D+02
   xx         0.423368D+02      0.627367D+01      0.698040D+01
   yx        -0.169755D-02     -0.251551D-03     -0.279888D-03
   yy         0.423321D+02      0.627297D+01      0.697962D+01
   zx        -0.119185D+00     -0.176613D-01     -0.196509D-01
   zy         0.187259D+00      0.277489D-01      0.308748D-01
   zz         0.151072D+03      0.223866D+02      0.249084D+02

 ----------------------------------------------------------------------
 1\1\GINC-C01N10\Freq\RB3LYP\def2TZVP\C1H3Br1Cl1(1-)\ROOT\18-Oct-2019\0
 \\#p opt=(gdiis,calcall,maxcycle=50,ts,noeigen) b3lyp def2tzvp em=gd3b
 j scrf=(smd,solvent=benzene)\\Title Card Required\\-1,1\C,0.7478944659
 ,-0.0008085192,0.0008033544\H,0.7568071034,-0.9419725666,-0.5092411174
 \H,0.7568410661,0.9113402484,-0.5593419577\H,0.7556214945,0.027904801,
 1.0709102149\Cl,3.1246792978,0.0018252494,-0.0012644879\Br,-1.73031842
 76,0.0017697871,-0.0008200063\\Version=ES64L-G16RevA.03\State=1-A\HF=-
 3074.4729756\RMSD=4.604e-09\RMSF=6.714e-05\ZeroPoint=0.0367385\Thermal
 =0.0415681\Dipole=-1.416509,-0.0024667,0.0017277\DipoleDeriv=3.7220716
 ,0.0005864,-0.0015379,0.0023838,0.0268748,-0.0003351,-0.0007218,-0.000
 9853,0.0294286,-0.2005225,-0.0004677,0.0001713,-0.0117506,0.0741655,-0
 .0011233,-0.0052538,-0.0011805,0.0712247,-0.2025311,-0.0010493,-0.0005
 666,0.0103508,0.0694694,0.0003967,-0.006527,0.0001355,0.0704846,-0.201
 1595,0.0013166,0.0007548,0.0000502,0.0725903,0.0002933,0.0124775,0.000
 0419,0.0718863,-2.170481,-0.0008603,0.0000978,-0.0040622,-0.6341866,0.
 0000304,0.0003007,0.0018166,-0.6328536,-1.9473775,0.0004742,0.0010805,
 0.0030281,-0.6089134,0.0007381,-0.0002756,0.0001718,-0.6101706\Polar=1
 51.0725774,0.0018906,42.3317777,-0.0137641,-0.0015011,42.3366672\PG=C0
 1 [X(C1H3Br1Cl1)]\NImag=1\\-0.04670652,-0.00057702,0.68054339,-0.00026
 800,0.00034682,0.68076692,-0.00908000,0.00304514,0.00173873,0.03419150
 ,0.00247781,-0.30868374,-0.13760217,-0.00343770,0.30984315,0.00132952,
 -0.13769422,-0.13014013,-0.00194883,0.14468769,0.12410649,-0.00893670,
 -0.00315317,0.00195810,0.00256058,0.00025046,-0.00019102,0.03354119,-0
 .00241465,-0.29332097,0.14645737,-0.00027671,-0.01182975,0.01406626,0.
 00272011,0.29623788,0.00172245,0.14681870,-0.14532130,-0.00018801,-0.0
 1284416,0.01044218,-0.00154324,-0.15402309,0.14009168,-0.00894380,-0.0
 0005281,-0.00328387,0.00257581,-0.00003554,0.00036455,0.00255234,0.000
 04789,0.00032905,0.03297609,-0.00000292,-0.05531780,-0.00907900,-0.000
 28598,0.00434821,-0.02342029,0.00030292,0.00540274,0.02281589,-0.00022
 739,0.04599344,-0.00266865,-0.00911460,-0.38320432,-0.00011080,0.00349
 841,-0.00575042,-0.00013391,-0.00411768,-0.00679777,0.00185083,0.00943
 395,0.39051028,0.03787611,0.00013547,-0.00033313,-0.01565458,0.0027844
 4,0.00151655,-0.01502572,-0.00209651,0.00088776,-0.01449780,0.00002556
 ,-0.00160507,0.03007193,0.00012830,-0.01207335,-0.00021450,-0.00527588
 ,0.00360663,0.00114835,0.00569912,0.00186884,-0.00155984,0.00034186,-0
 .00012021,0.00023704,-0.00084600,0.00512974,-0.00019361,-0.00027527,-0
 .01176900,-0.00283894,0.00108560,0.00052248,-0.00384871,-0.00138017,0.
 00092931,0.00732687,0.00017350,0.00298878,-0.00044628,0.00038997,0.005
 74063,0.03579092,0.00060238,0.00018817,-0.01459331,-0.00203947,-0.0010
 7077,-0.01469168,0.00201987,-0.00120800,-0.01466263,0.00018780,0.00266
 760,-0.02276994,-0.00004740,0.00000068,0.03092665,0.00038847,-0.011147
 53,0.00009147,0.00623113,0.00271551,0.00121221,-0.00581945,0.00164127,
 -0.00120749,-0.00007401,-0.00030638,0.00006288,-0.00000297,0.00158835,
 0.00000637,-0.00072317,0.00550879,0.00007829,-0.00008142,-0.01033217,0
 .00334785,0.00117464,0.00081941,0.00375878,-0.00100269,0.00065591,-0.0
 0658742,0.00007595,0.00225346,-0.00001982,-0.00000102,0.00158781,-0.00
 057768,-0.00016545,0.00501559\\-0.00000335,0.00002970,0.00004835,0.000
 08063,0.00007765,-0.00006294,0.00002178,-0.00000139,0.00001435,-0.0001
 1812,-0.00005736,-0.00001625,0.00001326,-0.00015347,-0.00005632,0.0000
 0581,0.00010486,0.00007282\\\@


 QUANTUM MECHANICS IS BOHRING -- M.S. GORDON
 Job cpu time:       0 days  0 hours 48 minutes 48.3 seconds.
 Elapsed time:       0 days  0 hours  2 minutes 22.3 seconds.
 File lengths (MBytes):  RWF=    288 Int=      0 D2E=      0 Chk=     32 Scr=     32
 Normal termination of Gaussian 16 at Fri Oct 18 03:09:36 2019.
