Title Card Required                                                     
Freq      RB3LYP                                                      def2TZVP            
Number of atoms                            I                6
Info1-9                                    I   N=           9
          14          14           0           0           1         100
           6          18        -502
Full Title                                 C   N=           2
Title Card Required     
Route                                      C   N=           8
#p opt=(gdiis,calcall,maxcycle=50,ts,noeigen) b3lyp def2tzvp
 em=gd3bj scrf=(smd,solvent=benzene)
Charge                                     I               -1
Multiplicity                               I                1
Number of electrons                        I               62
Number of alpha electrons                  I               31
Number of beta electrons                   I               31
Number of basis functions                  I              134
Number of independent functions            I              134
Number of point charges in /Mol/           I                0
Number of translation vectors              I                0
Atomic numbers                             I   N=           6
           6           1           1           1          17          35
Nuclear charges                            R   N=           6
  6.00000000E+00  1.00000000E+00  1.00000000E+00  1.00000000E+00  1.70000000E+01
  3.50000000E+01
Current cartesian coordinates              R   N=          18
 -1.43453526E+00  4.33550185E-03 -2.55450782E-03 -1.45152369E+00 -1.54209063E-01
 -2.01925164E+00 -1.45140155E+00 -1.66295756E+00  1.14277655E+00 -1.44903162E+00
  1.83026283E+00  8.68229884E-01 -5.92600756E+00 -1.14778654E-03  7.23451221E-04
  3.24860849E+00 -5.59909718E-04  3.22102263E-04
Number of symbols in /Mol/                 I                0
Force Field                                I                0
Atom Types                                 C   N=           6
                                                            
            
Int Atom Types                             I   N=           6
           0           0           0           0           0           0
MM charges                                 R   N=           6
  0.00000000E+00  0.00000000E+00  0.00000000E+00  0.00000000E+00  0.00000000E+00
  0.00000000E+00
Integer atomic weights                     I   N=           6
          12           1           1           1          35          79
Real atomic weights                        R   N=           6
  1.20000000E+01  1.00782504E+00  1.00782504E+00  1.00782504E+00  3.49688527E+01
  7.89183361E+01
Atom fragment info                         I   N=           6
           0           0           0           0           0           0
Atom residue num                           I   N=           6
           0           0           0           0           0           0
Nuclear spins                              I   N=           6
           0           1           1           1           3           3
Nuclear ZEff                               R   N=           6
 -3.60000000E+00 -1.00000000E+00 -1.00000000E+00 -1.00000000E+00 -1.42400000E+01
 -2.45000000E+01
Nuclear ZNuc                               R   N=           6
  6.00000000E+00  1.00000000E+00  1.00000000E+00  1.00000000E+00  1.70000000E+01
  3.50000000E+01
Nuclear QMom                               R   N=           6
  0.00000000E+00  0.00000000E+00  0.00000000E+00  0.00000000E+00 -8.16500000E+00
  3.13000000E+01
Nuclear GFac                               R   N=           6
  0.00000000E+00  2.79284600E+00  2.79284600E+00  2.79284600E+00  8.21874000E-01
  2.10639900E+00
MicOpt                                     I   N=           6
          -1          -1          -1          -1          -1          -1
Number of residues                         I                0
Number of secondary structures             I                0
Redundant internal dimensions              I   N=           4
          23           5          11           7
Redundant internal coordinate indices      I   N=          92
           1           2           0           0           1           3
           0           0           1           4           0           0
           1           5           0           0           1           6
           0           0           2           1           3           0
           2           1           4           0           2           1
           5           0           2           1           6           0
           3           1           4           0           3           1
           5           0           3           1           6           0
           4           1           5           0           4           1
           6           0           5           1           6         -21
           5           1           6         -22           2           1
           4           3           2           1           5           3
           2           1           6           3           2           1
           5           4           2           1           6           4
           3           1           5           4           3           1
           6           4
Redundant internal coordinates             R   N=          23
  2.02299093E+00  2.02285290E+00  2.02298942E+00  4.49147685E+00  4.68314719E+00
  2.09412778E+00  2.09414354E+00  1.56303045E+00  1.57972453E+00  2.09458418E+00
  1.56103885E+00  1.57792488E+00  1.56441823E+00  1.57864131E+00  3.14275498E+00
  3.14395725E+00  3.11399311E+00  2.09426014E+00 -2.09423892E+00 -2.09422987E+00
  2.09426517E+00  2.09469530E+00 -2.09468122E+00
ZRed-IntVec                                I   N=          23
           0           0           0           0           0           0
           0           0           0           0           0           0
           0           0           0           0           0           0
           0           0           0           0           0
ZRed-FPVec                                 R   N=          23
  0.00000000E+00  0.00000000E+00  0.00000000E+00  0.00000000E+00  0.00000000E+00
  0.00000000E+00  0.00000000E+00  0.00000000E+00  0.00000000E+00  0.00000000E+00
  0.00000000E+00  0.00000000E+00  0.00000000E+00  0.00000000E+00  0.00000000E+00
  0.00000000E+00  0.00000000E+00  0.00000000E+00  0.00000000E+00  0.00000000E+00
  0.00000000E+00  0.00000000E+00  0.00000000E+00
ZRed-Constraint1                           R   N=          23
  2.02149883E+00  2.02150032E+00  2.02152620E+00  4.61364733E+00  4.56930300E+00
  2.09003151E+00  2.08994594E+00  1.52012899E+00  1.62132282E+00  2.08994152E+00
  1.52013590E+00  1.62132903E+00  1.52037807E+00  1.62148316E+00  3.14145181E+00
  3.14182176E+00  2.96689774E+00  2.09446829E+00 -2.09444473E+00 -2.09436103E+00
  2.09437223E+00  2.09435599E+00 -2.09436834E+00
ZRed-Constraint2                           R   N=          23
  0.00000000E+00  0.00000000E+00  0.00000000E+00  0.00000000E+00  0.00000000E+00
  0.00000000E+00  0.00000000E+00  0.00000000E+00  0.00000000E+00  0.00000000E+00
  0.00000000E+00  0.00000000E+00  0.00000000E+00  0.00000000E+00  0.00000000E+00
  0.00000000E+00  0.00000000E+00  0.00000000E+00  0.00000000E+00  0.00000000E+00
  0.00000000E+00  0.00000000E+00  0.00000000E+00
SymInf integers                            I   N=          26
           1           1           1           1           1           0
           0           0           0           0           0           0
           0           0           0           0           0           0
           0           0           0           0           0           0
           0           0
RotTr to input orientation                 R   N=          12
 -9.99999997E-01  5.45732169E-05  5.07608004E-05  2.42252733E-05 -4.06089846E-01
  9.13833156E-01  7.04842606E-05  9.13833155E-01  4.06089843E-01 -2.12194697E-02
  2.64540452E-03 -1.33362770E-03
Number of contracted shells                I               52
Number of primitive shells                 I              104
Pure/Cartesian d shells                    I                0
Pure/Cartesian f shells                    I                0
Highest angular momentum                   I                3
Largest degree of contraction              I                8
Shell types                                I   N=          52
           0           0           0           0           0           1
           1           1          -2          -2          -3           0
           0           0           1           0           0           0
           1           0           0           0           1           0
           0           0           0           0           1           1
           1           1           1          -2          -2          -3
           0           0           0           0           0           0
           1           1           1           1           1          -2
          -2          -2          -2          -3
Number of primitives per shell             I   N=          52
           6           2           1           1           1           4
           1           1           1           1           1           3
           1           1           1           3           1           1
           1           3           1           1           1           7
           3           2           1           1           5           1
           1           1           1           2           1           1
           8           4           2           1           1           1
           6           4           1           1           1           5
           1           1           1           1
Shell to atom map                          I   N=          52
           1           1           1           1           1           1
           1           1           1           1           1           2
           2           2           2           3           3           3
           3           4           4           4           4           5
           5           5           5           5           5           5
           5           5           5           5           5           5
           6           6           6           6           6           6
           6           6           6           6           6           6
           6           6           6           6
Primitive exponents                        R   N=         104
  1.35753497E+04  2.03523337E+03  4.63225624E+02  1.31200196E+02  4.28530159E+01
  1.55841858E+01  6.20671385E+00  2.57648965E+00  5.76963394E-01  2.29728314E-01
  9.51644400E-02  3.46972322E+01  7.95826228E+00  2.37808269E+00  8.14332082E-01
  2.88875473E-01  1.00568237E-01  1.09700000E+00  3.18000000E-01  7.61000000E-01
  3.40613410E+01  5.12357460E+00  1.16466260E+00  3.27230410E-01  1.03072410E-01
  8.00000000E-01  3.40613410E+01  5.12357460E+00  1.16466260E+00  3.27230410E-01
  1.03072410E-01  8.00000000E-01  3.40613410E+01  5.12357460E+00  1.16466260E+00
  3.27230410E-01  1.03072410E-01  8.00000000E-01  6.95079909E+04  1.04261569E+04
  2.37323341E+03  6.71564201E+02  2.18419998E+02  7.75722497E+01  2.88888153E+01
  1.27105272E+02  3.93395830E+01  7.67406800E+00  3.87456276E+00  1.83858326E+00
  5.02290575E-01  1.79627234E-01  6.66504233E+02  1.57642417E+02  5.02625210E+01
  1.85360781E+01  7.29405328E+00  2.94332490E+00  1.04049708E+00  3.84564151E-01
  1.30696427E-01  4.61000000E+00  1.01100000E+00  3.39000000E-01  7.06000000E-01
  5.65073253E+05  8.47017232E+04  1.92762719E+04  5.45642846E+03  1.77695035E+03
  6.39193983E+02  2.48788240E+02  9.86783055E+01  6.06078246E+02  1.88455985E+02
  3.14971445E+01  1.37360083E+01  2.12032128E+01  3.76164202E+00  1.77359340E+00
  4.51974137E-01  1.66133771E-01  3.01969557E+03  7.15354811E+02  2.29983288E+02
  8.61678446E+01  3.46678708E+01  1.41138703E+01  5.70856531E+01  8.81938458E+00
  3.93403029E+00  1.79988304E+00  6.68994105E-01  2.71362382E-01  1.00837902E-01
  1.68853703E+02  4.99779499E+01  1.82749133E+01  7.24556946E+00  2.85623150E+00
  1.04596211E+00  5.68656550E-01  2.20314900E-01  5.70833120E-01
Contraction coefficients                   R   N=         104
  6.06455036E-04  4.69790889E-03  2.43324776E-02  9.73999683E-02  3.01955843E-01
  6.62336091E-01  6.55953085E-01  3.75856333E-01  1.00000000E+00  1.00000000E+00
  1.00000000E+00  1.13272200E-02  7.61696592E-02  3.01922522E-01  7.27850273E-01
  1.00000000E+00  1.00000000E+00  1.00000000E+00  1.00000000E+00  1.00000000E+00
  2.54393072E-02  1.90085949E-01  8.52441130E-01  1.00000000E+00  1.00000000E+00
  1.00000000E+00  2.54393072E-02  1.90085949E-01  8.52441130E-01  1.00000000E+00
  1.00000000E+00  1.00000000E+00  2.54393072E-02  1.90085949E-01  8.52441130E-01
  1.00000000E+00  1.00000000E+00  1.00000000E+00  5.14573896E-04  3.97813448E-03
  2.04561787E-02  8.01481029E-02  2.34547703E-01  4.45433686E-01  3.54668425E-01
  1.12936881E-01  4.83735142E-01 -1.22922974E+00  6.72968216E-01  3.49560514E-01
  1.00000000E+00  1.00000000E+00  3.35025082E-03  2.67639704E-02  1.23626824E-01
  3.58457879E-01  6.16772964E-01  1.00000000E+00  1.00000000E+00  1.00000000E+00
  1.00000000E+00  1.82658350E-01  9.13291752E-01  1.00000000E+00  1.00000000E+00
  2.31399680E-04  1.79448090E-03  9.33663283E-03  3.80221412E-02  1.24386082E-01
  2.97682655E-01  4.35124787E-01  2.38454326E-01 -2.58029981E-02 -1.21437702E-01
  5.49271541E-01  5.40386743E-01 -4.18976571E-01  1.19629220E+00  1.00000000E+00
  1.00000000E+00  1.00000000E+00  2.69789672E-03  2.20611770E-02  1.04688630E-01
  3.03097102E-01  4.81931819E-01  2.63728834E-01 -1.92881876E-02  2.88644595E-01
  5.10580635E-01  2.96268745E-01  1.00000000E+00  1.00000000E+00  1.00000000E+00
  9.84282772E-03  6.81283771E-02  2.35738015E-01  4.42779544E-01  4.63345555E-01
  1.00000000E+00  1.00000000E+00  1.00000000E+00  1.00000000E+00
Coordinates of each shell                  R   N=         156
 -1.43453526E+00  4.33550185E-03 -2.55450782E-03 -1.43453526E+00  4.33550185E-03
 -2.55450782E-03 -1.43453526E+00  4.33550185E-03 -2.55450782E-03 -1.43453526E+00
  4.33550185E-03 -2.55450782E-03 -1.43453526E+00  4.33550185E-03 -2.55450782E-03
 -1.43453526E+00  4.33550185E-03 -2.55450782E-03 -1.43453526E+00  4.33550185E-03
 -2.55450782E-03 -1.43453526E+00  4.33550185E-03 -2.55450782E-03 -1.43453526E+00
  4.33550185E-03 -2.55450782E-03 -1.43453526E+00  4.33550185E-03 -2.55450782E-03
 -1.43453526E+00  4.33550185E-03 -2.55450782E-03 -1.45152369E+00 -1.54209063E-01
 -2.01925164E+00 -1.45152369E+00 -1.54209063E-01 -2.01925164E+00 -1.45152369E+00
 -1.54209063E-01 -2.01925164E+00 -1.45152369E+00 -1.54209063E-01 -2.01925164E+00
 -1.45140155E+00 -1.66295756E+00  1.14277655E+00 -1.45140155E+00 -1.66295756E+00
  1.14277655E+00 -1.45140155E+00 -1.66295756E+00  1.14277655E+00 -1.45140155E+00
 -1.66295756E+00  1.14277655E+00 -1.44903162E+00  1.83026283E+00  8.68229884E-01
 -1.44903162E+00  1.83026283E+00  8.68229884E-01 -1.44903162E+00  1.83026283E+00
  8.68229884E-01 -1.44903162E+00  1.83026283E+00  8.68229884E-01 -5.92600756E+00
 -1.14778654E-03  7.23451221E-04 -5.92600756E+00 -1.14778654E-03  7.23451221E-04
 -5.92600756E+00 -1.14778654E-03  7.23451221E-04 -5.92600756E+00 -1.14778654E-03
  7.23451221E-04 -5.92600756E+00 -1.14778654E-03  7.23451221E-04 -5.92600756E+00
 -1.14778654E-03  7.23451221E-04 -5.92600756E+00 -1.14778654E-03  7.23451221E-04
 -5.92600756E+00 -1.14778654E-03  7.23451221E-04 -5.92600756E+00 -1.14778654E-03
  7.23451221E-04 -5.92600756E+00 -1.14778654E-03  7.23451221E-04 -5.92600756E+00
 -1.14778654E-03  7.23451221E-04 -5.92600756E+00 -1.14778654E-03  7.23451221E-04
 -5.92600756E+00 -1.14778654E-03  7.23451221E-04  3.24860849E+00 -5.59909718E-04
  3.22102263E-04  3.24860849E+00 -5.59909718E-04  3.22102263E-04  3.24860849E+00
 -5.59909718E-04  3.22102263E-04  3.24860849E+00 -5.59909718E-04  3.22102263E-04
  3.24860849E+00 -5.59909718E-04  3.22102263E-04  3.24860849E+00 -5.59909718E-04
  3.22102263E-04  3.24860849E+00 -5.59909718E-04  3.22102263E-04  3.24860849E+00
 -5.59909718E-04  3.22102263E-04  3.24860849E+00 -5.59909718E-04  3.22102263E-04
  3.24860849E+00 -5.59909718E-04  3.22102263E-04  3.24860849E+00 -5.59909718E-04
  3.22102263E-04  3.24860849E+00 -5.59909718E-04  3.22102263E-04  3.24860849E+00
 -5.59909718E-04  3.22102263E-04  3.24860849E+00 -5.59909718E-04  3.22102263E-04
  3.24860849E+00 -5.59909718E-04  3.22102263E-04  3.24860849E+00 -5.59909718E-04
  3.22102263E-04
Num ILSW                                   I              100
ILSW                                       I   N=         100
           0           0           0           1           2           0
           0           0           0           0         402          -1
           5           0           0           0           2           0
           0           0           0           0           1           0
           1           0           0           0           0           0
           0           0      100000           0          -1           0
           0           0           0           0           0           0
           0           0           0           1           0           0
           0 -2000000000           1           0           0           0
           0           0         141          52           0           0
           0           0           5           0           0           0
           0           0           0           6           0           1
           0           0           0           0           0           0
           0           0           0           0           0           0
           0           0           0           0           0           0
           0           0           0           0           0           0
           0           0           0           0
Num RLSW                                   I               52
RLSW                                       R   N=          52
  8.00000000E-01  7.20000000E-01  1.00000000E+00  8.10000000E-01  2.00000000E-01
  0.00000000E+00  0.00000000E+00  1.00000000E+00  0.00000000E+00  0.00000000E+00
  0.00000000E+00  0.00000000E+00  1.00000000E+00  0.00000000E+00  0.00000000E+00
  0.00000000E+00  0.00000000E+00  1.00000000E+00  0.00000000E+00  0.00000000E+00
  0.00000000E+00  0.00000000E+00  1.00000000E+00  0.00000000E+00  0.00000000E+00
  0.00000000E+00  0.00000000E+00  1.00000000E+00  0.00000000E+00  0.00000000E+00
  0.00000000E+00  0.00000000E+00  1.00000000E+00  0.00000000E+00  0.00000000E+00
  0.00000000E+00  0.00000000E+00  0.00000000E+00  1.00000000E+00  1.00000000E+00
  0.00000000E+00  1.00000000E+00  0.00000000E+00  0.00000000E+00  0.00000000E+00
  0.00000000E+00  0.00000000E+00  0.00000000E+00  0.00000000E+00  0.00000000E+00
  0.00000000E+00  0.00000000E+00
ECP-MxAtEC                                 I           250000
ECP-MaxLECP                                I               10
ECP-MaxAtL                                 I          2250000
ECP-MxTECP                                 I         11250000
ECP-LenNCZ                                 I                0
ECP-KFirst                                 I   N=          60
           0           0           0           0           0           0
           0           0           0           0           0           0
           0           0           0           0           0           0
           0           0           0           0           0           0
           0           0           0           0           0           0
           0           0           0           0           0           0
           0           0           0           0           0           0
           0           0           0           0           0           0
           0           0           0           0           0           0
           0           0           0           0           0           0
ECP-KLast                                  I   N=          60
           0           0           0           0           0           0
           0           0           0           0           0           0
           0           0           0           0           0           0
           0           0           0           0           0           0
           0           0           0           0           0           0
           0           0           0           0           0           0
           0           0           0           0           0           0
           0           0           0           0           0           0
           0           0           0           0           0           0
           0           0           0           0           0           0
ECP-LMax                                   I   N=           6
           0           0           0           0           0           0
ECP-LPSkip                                 I   N=           6
           1           1           1           1           1           1
ECP-RNFroz                                 R   N=           6
  0.00000000E+00  0.00000000E+00  0.00000000E+00  0.00000000E+00  0.00000000E+00
  0.00000000E+00
ECP-NLP                                    I                0
ECP-CLP1                                   R      0.000000000000000E+00
ECP-CLP2                                   R      0.000000000000000E+00
ECP-ZLP                                    R      0.000000000000000E+00
MxBond                                     I                5
NBond                                      I   N=           6
           5           1           1           1           1           1
IBond                                      I   N=          30
           2           3           4           5           6           1
           0           0           0           0           1           0
           0           0           0           1           0           0
           0           0           1           0           0           0
           0           1           0           0           0           0
RBond                                      R   N=          30
  1.00000000E+00  1.00000000E+00  1.00000000E+00  1.00000000E-01  1.00000000E-01
  1.00000000E+00  0.00000000E+00  0.00000000E+00  0.00000000E+00  0.00000000E+00
  1.00000000E+00  0.00000000E+00  0.00000000E+00  0.00000000E+00  0.00000000E+00
  1.00000000E+00  0.00000000E+00  0.00000000E+00  0.00000000E+00  0.00000000E+00
  1.00000000E-01  0.00000000E+00  0.00000000E+00  0.00000000E+00  0.00000000E+00
  1.00000000E-01  0.00000000E+00  0.00000000E+00  0.00000000E+00  0.00000000E+00
Virial Ratio                               R      2.001518310104461E+00
SCF Energy                                 R     -3.074472975640410E+03
Total Energy                               R     -3.074472975640410E+03
RMS Force                                  R      6.714313164264530E-05
RMS Density                                R      4.603501687651544E-09
NImag                                      I                1
Job Status                                 I                1
Nuclear derivative order                   I                2
PCM-NSphere                                I                6
PCM-NGenSphere                             I                6
PCM-NOrd                                   I   N=           6
           1           2           3           4           5           6
PCM-SphereRadii                            R   N=           6
  3.49599333E+00  2.26767135E+00  2.26767135E+00  2.26767135E+00  4.49754818E+00
  5.78256194E+00
PCM-SphereLoc                              R   N=          18
 -1.43453526E+00  4.33550185E-03 -2.55450782E-03 -1.45152369E+00 -1.54209063E-01
 -2.01925164E+00 -1.45140155E+00 -1.66295756E+00  1.14277655E+00 -1.44903162E+00
  1.83026283E+00  8.68229884E-01 -5.92600756E+00 -1.14778654E-03  7.23451221E-04
  3.24860849E+00 -5.59909718E-04  3.22102263E-04
External E-field                           R   N=          35
  0.00000000E+00  0.00000000E+00  0.00000000E+00  0.00000000E+00  0.00000000E+00
  0.00000000E+00  0.00000000E+00  0.00000000E+00  0.00000000E+00  0.00000000E+00
  0.00000000E+00  0.00000000E+00  0.00000000E+00  0.00000000E+00  0.00000000E+00
  0.00000000E+00  0.00000000E+00  0.00000000E+00  0.00000000E+00  0.00000000E+00
  0.00000000E+00  0.00000000E+00  0.00000000E+00  0.00000000E+00  0.00000000E+00
  0.00000000E+00  0.00000000E+00  0.00000000E+00  0.00000000E+00  0.00000000E+00
  0.00000000E+00  0.00000000E+00  0.00000000E+00  0.00000000E+00  0.00000000E+00
IOpCl                                      I                0
IROHF                                      I                0
Alpha Orbital Energies                     R   N=         134
 -4.82708859E+02 -1.01360881E+02 -6.23574010E+01 -5.61721703E+01 -5.61706256E+01
 -5.61706255E+01 -1.01580068E+01 -9.29286120E+00 -8.54824452E+00 -7.05100257E+00
 -7.04755789E+00 -7.04755729E+00 -6.37358530E+00 -6.36883831E+00 -6.36883805E+00
 -2.48873031E+00 -2.48745497E+00 -2.48745484E+00 -2.48367417E+00 -2.48367379E+00
 -6.70331351E-01 -6.32653879E-01 -5.88622244E-01 -3.75030915E-01 -3.74973629E-01
 -2.43650472E-01 -1.84031250E-01 -1.84022616E-01 -1.69942569E-01 -1.69935168E-01
 -1.62547368E-01  3.43152853E-02  1.19991208E-01  1.82279842E-01  1.82303848E-01
  2.70643356E-01  2.70719749E-01  2.72041425E-01  3.36235628E-01  3.50925820E-01
  3.50929212E-01  4.01833829E-01  4.01868907E-01  4.12900378E-01  4.30420005E-01
  4.30430460E-01  4.66296167E-01  4.72697263E-01  4.72708488E-01  5.06771534E-01
  5.34736494E-01  5.34840017E-01  5.57299728E-01  5.81584849E-01  5.81821286E-01
  5.84264986E-01  5.84311356E-01  6.21240422E-01  8.51246023E-01  8.51302593E-01
  8.52780129E-01  1.03019055E+00  1.03027755E+00  1.04531027E+00  1.18156922E+00
  1.43446461E+00  1.45743493E+00  1.45745693E+00  1.47612496E+00  1.47620435E+00
  1.51673473E+00  1.52819101E+00  1.52832086E+00  1.53294329E+00  1.53880254E+00
  1.64663214E+00  1.64664821E+00  1.65764821E+00  1.65806454E+00  1.70498762E+00
  1.70500067E+00  1.71741249E+00  1.74424213E+00  1.74445376E+00  1.85450958E+00
  1.85453908E+00  1.88478106E+00  1.89535027E+00  1.89548773E+00  1.99026827E+00
  1.99069342E+00  2.02183394E+00  2.10323282E+00  2.12964982E+00  2.12982175E+00
  2.20907599E+00  2.20910934E+00  2.22841720E+00  2.22950130E+00  2.32388325E+00
  2.32428296E+00  2.34979777E+00  2.35024854E+00  2.35830032E+00  2.37804205E+00
  2.53614949E+00  2.53706628E+00  2.70479134E+00  2.73380098E+00  2.73400729E+00
  2.86042757E+00  3.13648896E+00  3.13659984E+00  3.27309571E+00  3.27322941E+00
  3.33780939E+00  3.35852053E+00  3.35892054E+00  3.69031980E+00  3.92610214E+00
  4.11197168E+00  4.11199962E+00  4.14025590E+00  4.14034464E+00  4.22388521E+00
  4.22429852E+00  4.31708544E+00  4.76473366E+00  7.48450859E+00  1.08196953E+01
  1.08197259E+01  1.09519345E+01  2.21648156E+01  2.46741461E+01
Alpha MO coefficients                      R   N=       17956
  4.31301203E-07 -1.27259790E-06 -2.11630443E-05  2.41763714E-04 -8.09074128E-04
  1.35937221E-05 -2.06079762E-08  2.71013709E-08 -3.72764388E-05 -6.48198930E-08
 -7.19982730E-09 -3.06140849E-04  2.15418071E-07 -8.39225772E-08 -7.69084510E-06
  3.82791809E-08 -5.38787147E-09  1.32915913E-05 -4.22435360E-08  5.27444731E-05
 -1.23239920E-07 -8.29463097E-08 -9.13314911E-05  2.15662046E-07 -8.91070122E-06
  5.94005825E-06 -2.63398344E-06 -6.94458600E-06  6.54281400E-09 -7.68468126E-06
 -6.35291815E-07 -1.48573938E-05 -1.29049371E-06  1.51309419E-04  1.21850114E-05
 -9.37791167E-07 -1.17100541E-05 -1.48251552E-05 -1.50169880E-06  1.51339372E-04
  1.21670214E-05 -9.75206097E-06  6.68576837E-06 -1.48323455E-05 -1.20664983E-06
  1.51256032E-04  1.21897330E-05  1.05986053E-05  5.06130524E-06  3.49235517E-06
 -9.59096485E-06 -1.88361676E-05  3.69910757E-05 -6.48355771E-05 -1.12602389E-06
 -7.16061887E-09  5.22517420E-09  4.61365147E-06  2.79727479E-08 -2.04425887E-08
 -1.23704277E-05 -6.68646747E-08  4.93166800E-08  2.12568949E-05  9.96910733E-08
 -7.86907969E-08 -3.22268458E-05 -9.71519441E-08  9.77592978E-08  8.04149782E-07
 -5.25249226E-10 -5.52112000E-09 -1.39240336E-06 -9.64968379E-09 -4.44233910E-06
 -6.46592833E-09  1.40966434E-08  7.69342308E-06  3.90298956E-08  3.56335025E-07
 -3.48346877E-06  9.18951524E-08  2.51194436E-07  3.72185922E-09  4.49702195E-06
  6.18585429E-08  9.97348840E-01  7.60180272E-03 -3.74635092E-03  3.21030991E-03
 -1.35665996E-03  8.69284443E-04  4.97763941E-07  1.05673020E-09 -1.35212978E-09
 -7.02908566E-06  4.75624621E-09 -1.53760443E-09  3.60415669E-05 -2.57380310E-08
  8.58154933E-09 -3.54945980E-05  7.05832852E-09  1.42662538E-08 -2.67427794E-04
  3.40681385E-07 -2.42417529E-07  2.61271687E-06 -9.32842583E-09 -6.00710839E-10
 -4.52752365E-06  1.20984808E-08 -2.38205251E-05  8.10537319E-08  4.83145238E-09
  4.12751728E-05 -1.07688168E-07  5.16117122E-05 -1.65865666E-07 -9.06328535E-09
 -8.94243961E-05  2.26867675E-07 -8.93698850E-05  2.54583557E-07  1.03535808E-08
  1.54824483E-04 -3.71746901E-07  4.96349149E-07  1.50020876E-05  1.21470181E-07
  3.31463540E-07 -2.96423002E-09 -1.93714158E-05  1.00661410E-07 -1.08779113E-07
  3.66783006E-07  1.08697661E-04 -8.77011487E-04  2.61722164E-03  3.63143625E-05
  1.85344547E-07 -5.72850801E-08 -6.93974961E-05 -7.33835718E-07  5.29140995E-08
 -9.48153115E-04 -1.11712075E-06  2.88363565E-07  2.44718010E-05  1.00912890E-07
  8.24035317E-08 -4.23915167E-05 -2.50103057E-07 -1.64303489E-04 -4.64300326E-07
 -4.25343717E-07  2.84883289E-04  7.95826576E-07  3.37414509E-05  2.23942775E-05
  9.96604166E-06  2.62490840E-05 -3.72904498E-08 -2.88510333E-05  2.40843353E-06
  5.23119367E-05  1.41491168E-05 -5.45186244E-04  4.27682883E-05  3.16259086E-06
  4.03658277E-05  5.21849571E-05  1.38303902E-05 -5.44929222E-04  4.27473462E-05
  3.34300306E-05 -2.29874644E-05  5.23935506E-05  1.50204618E-05 -5.45112261E-04