 Entering Gaussian System, Link 0=g16
 Input=ts_def2tzvp.gjf
 Output=ts_def2tzvp.log
 Initial command:
 /home/soft/g16/l1.exe "/tmp/gaussian/Gau-38889.inp" -scrdir="/tmp/gaussian/"
 Entering Link 1 = /home/soft/g16/l1.exe PID=     38890.
  
 Copyright (c) 1988,1990,1992,1993,1995,1998,2003,2009,2016,
            Gaussian, Inc.  All Rights Reserved.
  
 This is part of the Gaussian(R) 16 program.  It is based on
 the Gaussian(R) 09 system (copyright 2009, Gaussian, Inc.),
 the Gaussian(R) 03 system (copyright 2003, Gaussian, Inc.),
 the Gaussian(R) 98 system (copyright 1998, Gaussian, Inc.),
 the Gaussian(R) 94 system (copyright 1995, Gaussian, Inc.),
 the Gaussian 92(TM) system (copyright 1992, Gaussian, Inc.),
 the Gaussian 90(TM) system (copyright 1990, Gaussian, Inc.),
 the Gaussian 88(TM) system (copyright 1988, Gaussian, Inc.),
 the Gaussian 86(TM) system (copyright 1986, Carnegie Mellon
 University), and the Gaussian 82(TM) system (copyright 1983,
 Carnegie Mellon University). Gaussian is a federally registered
 trademark of Gaussian, Inc.
  
 This software contains proprietary and confidential information,
 including trade secrets, belonging to Gaussian, Inc.
  
 This software is provided under written license and may be
 used, copied, transmitted, or stored only in accord with that
 written license.
  
 The following legend is applicable only to US Government
 contracts under FAR:
  
                    RESTRICTED RIGHTS LEGEND
  
 Use, reproduction and disclosure by the US Government is
 subject to restrictions as set forth in subparagraphs (a)
 and (c) of the Commercial Computer Software - Restricted
 Rights clause in FAR 52.227-19.
  
 Gaussian, Inc.
 340 Quinnipiac St., Bldg. 40, Wallingford CT 06492
  
  
 ---------------------------------------------------------------
 Warning -- This program may not be used in any manner that
 competes with the business of Gaussian, Inc. or will provide
 assistance to any competitor of Gaussian, Inc.  The licensee
 of this program is prohibited from giving any competitor of
 Gaussian, Inc. access to this program.  By using this program,
 the user acknowledges that Gaussian, Inc. is engaged in the
 business of creating and licensing software in the field of
 computational chemistry and represents and warrants to the
 licensee that it is not a competitor of Gaussian, Inc. and that
 it will not use this program in any manner prohibited above.
 ---------------------------------------------------------------
  

 Cite this work as:
 Gaussian 16, Revision A.03,
 M. J. Frisch, G. W. Trucks, H. B. Schlegel, G. E. Scuseria, 
 M. A. Robb, J. R. Cheeseman, G. Scalmani, V. Barone, 
 G. A. Petersson, H. Nakatsuji, X. Li, M. Caricato, A. V. Marenich, 
 J. Bloino, B. G. Janesko, R. Gomperts, B. Mennucci, H. P. Hratchian, 
 J. V. Ortiz, A. F. Izmaylov, J. L. Sonnenberg, D. Williams-Young, 
 F. Ding, F. Lipparini, F. Egidi, J. Goings, B. Peng, A. Petrone, 
 T. Henderson, D. Ranasinghe, V. G. Zakrzewski, J. Gao, N. Rega, 
 G. Zheng, W. Liang, M. Hada, M. Ehara, K. Toyota, R. Fukuda, 
 J. Hasegawa, M. Ishida, T. Nakajima, Y. Honda, O. Kitao, H. Nakai, 
 T. Vreven, K. Throssell, J. A. Montgomery, Jr., J. E. Peralta, 
 F. Ogliaro, M. J. Bearpark, J. J. Heyd, E. N. Brothers, K. N. Kudin, 
 V. N. Staroverov, T. A. Keith, R. Kobayashi, J. Normand, 
 K. Raghavachari, A. P. Rendell, J. C. Burant, S. S. Iyengar, 
 J. Tomasi, M. Cossi, J. M. Millam, M. Klene, C. Adamo, R. Cammi, 
 J. W. Ochterski, R. L. Martin, K. Morokuma, O. Farkas, 
 J. B. Foresman, and D. J. Fox, Gaussian, Inc., Wallingford CT, 2016.
 
 ******************************************
 Gaussian 16:  ES64L-G16RevA.03 25-Dec-2016
                17-Oct-2019 
 ******************************************
 %chk=ts_maugccpvtz.chk
 %nproc=24
 Will use up to   24 processors via shared memory.
 --------------------------------------------------------
 #p b3lyp/def2tzvp em=gd3bj opt=(ts,noeigen,calcall) freq
 --------------------------------------------------------
 1/5=1,10=4,11=1,18=20,26=3,38=1/1,3;
 2/9=110,12=2,17=6,18=5,40=1/2;
 3/5=44,7=101,11=2,25=1,30=1,71=2,74=-5,124=41,140=1/1,2,3;
 4//1;
 5/5=2,38=5/2;
 8/6=4,10=90,11=11/1;
 11/6=1,8=1,9=11,15=111,16=1/1,2,10;
 10/6=1/2;
 6/7=2,8=2,9=2,10=2,18=1,28=1/1;
 7/10=1,25=1/1,2,3,16;
 1/5=1,10=4,11=1,18=20,26=3/3(3);
 2/9=110/2;
 7/8=1,9=1,25=1,44=-1/16;
 99//99;
 2/9=110/2;
 3/5=44,7=101,11=2,25=1,30=1,71=2,74=-5,124=41,140=1/1,2,3;
 4/5=5,16=3,69=1/1;
 5/5=2,38=5/2;
 8/6=4,10=90,11=11/1;
 11/6=1,8=1,9=11,15=111,16=1/1,2,10;
 10/6=1/2;
 7/10=1,25=1/1,2,3,16;
 1/5=1,10=4,11=1,18=20,26=3/3(-8);
 2/9=110/2;
 6/7=2,8=2,9=2,10=2,18=1,19=2,28=1/1;
 7/8=1,9=1,25=1,44=-1/16;
 99//99;
 Leave Link    1 at Thu Oct 17 18:23:05 2019, MaxMem=           0 cpu:               2.3 elap:               0.1
 (Enter /home/soft/g16/l101.exe)
 -------------------
 Title Card Required
 -------------------
 Symbolic Z-matrix:
 Charge = -1 Multiplicity = 1
 C                     3.59392  -0.10339   0. 
 H                     3.59536  -1.17339   0. 
 H                     3.5932    0.4316    0.92665 
 H                     3.5932    0.43161  -0.92665 
 Cl                    1.15622  -0.10667  0. 
 Br                    6.26132  -0.09982  0. 
 
 Add virtual bond connecting atoms Cl5        and C1         Dist= 4.61D+00.
 Add virtual bond connecting atoms Br6        and C1         Dist= 5.04D+00.
 ITRead=  0  0  0  0  0  0
 MicOpt= -1 -1 -1 -1 -1 -1
 NAtoms=      6 NQM=        6 NQMF=       0 NMMI=      0 NMMIF=      0
                NMic=       0 NMicF=      0.
                    Isotopes and Nuclear Properties:
 (Nuclear quadrupole moments (NQMom) in fm**2, nuclear magnetic moments (NMagM)
  in nuclear magnetons)

  Atom         1           2           3           4           5           6
 IAtWgt=          12           1           1           1          35          79
 AtmWgt=  12.0000000   1.0078250   1.0078250   1.0078250  34.9688527  78.9183361
 NucSpn=           0           1           1           1           3           3
 AtZEff=  -0.0000000  -0.0000000  -0.0000000  -0.0000000  -0.0000000  -0.0000000
 NQMom=    0.0000000   0.0000000   0.0000000   0.0000000  -8.1650000  31.3000000
 NMagM=    0.0000000   2.7928460   2.7928460   2.7928460   0.8218740   2.1063990
 AtZNuc=   6.0000000   1.0000000   1.0000000   1.0000000  17.0000000  35.0000000
 Leave Link  101 at Thu Oct 17 18:23:06 2019, MaxMem=   280000000 cpu:               4.5 elap:               0.2
 (Enter /home/soft/g16/l103.exe)

 GradGradGradGradGradGradGradGradGradGradGradGradGradGradGradGradGradGrad
 Berny optimization.
 Initialization pass.
                           ----------------------------
                           !    Initial Parameters    !
                           ! (Angstroms and Degrees)  !
 --------------------------                            --------------------------
 ! Name  Definition              Value          Derivative Info.                !
 --------------------------------------------------------------------------------
 ! R1    R(1,2)                  1.07           calculate D2E/DX2 analytically  !
 ! R2    R(1,3)                  1.07           calculate D2E/DX2 analytically  !
 ! R3    R(1,4)                  1.07           calculate D2E/DX2 analytically  !
 ! R4    R(1,5)                  2.4377         calculate D2E/DX2 analytically  !
 ! R5    R(1,6)                  2.6674         calculate D2E/DX2 analytically  !
 ! A1    A(2,1,3)              119.9999         calculate D2E/DX2 analytically  !
 ! A2    A(2,1,4)              120.0002         calculate D2E/DX2 analytically  !
 ! A3    A(2,1,5)               90.0            calculate D2E/DX2 analytically  !
 ! A4    A(2,1,6)               89.9999         calculate D2E/DX2 analytically  !
 ! A5    A(3,1,4)              119.9999         calculate D2E/DX2 analytically  !
 ! A6    A(3,1,5)               90.0001         calculate D2E/DX2 analytically  !
 ! A7    A(3,1,6)               90.0001         calculate D2E/DX2 analytically  !
 ! A8    A(4,1,5)               89.9999         calculate D2E/DX2 analytically  !
 ! A9    A(4,1,6)               89.9999         calculate D2E/DX2 analytically  !
 ! A10   L(5,1,6,2,-1)         179.9999         calculate D2E/DX2 analytically  !
 ! A11   L(5,1,6,2,-2)         179.9998         calculate D2E/DX2 analytically  !
 ! D1    D(2,1,4,3)           -180.0            calculate D2E/DX2 analytically  !
 ! D2    D(2,1,5,3)            119.9999         calculate D2E/DX2 analytically  !
 ! D3    D(2,1,6,3)           -119.9999         calculate D2E/DX2 analytically  !
 ! D4    D(2,1,5,4)           -120.0002         calculate D2E/DX2 analytically  !
 ! D5    D(2,1,6,4)            120.0002         calculate D2E/DX2 analytically  !
 ! D6    D(3,1,5,4)            119.9999         calculate D2E/DX2 analytically  !
 ! D7    D(3,1,6,4)           -119.9999         calculate D2E/DX2 analytically  !
 --------------------------------------------------------------------------------
 Trust Radius=3.00D-01 FncErr=1.00D-07 GrdErr=1.00D-06 EigMax=2.50D+02 EigMin=1.00D-04
 Number of steps in this run=     33 maximum allowed number of steps=    100.
 Search for a saddle point of order  1.
 GradGradGradGradGradGradGradGradGradGradGradGradGradGradGradGradGradGrad

 Leave Link  103 at Thu Oct 17 18:23:06 2019, MaxMem=   280000000 cpu:               0.5 elap:               0.0
 (Enter /home/soft/g16/l202.exe)
                          Input orientation:                          
 ---------------------------------------------------------------------
 Center     Atomic      Atomic             Coordinates (Angstroms)
 Number     Number       Type             X           Y           Z
 ---------------------------------------------------------------------
      1          6           0        3.593920   -0.103395    0.000001
      2          1           0        3.595356   -1.173394    0.000003
      3          1           0        3.593202    0.431605    0.926648
      4          1           0        3.593203    0.431606   -0.926646
      5         17           0        1.156222   -0.106667   -0.000004
      6         35           0        6.261318   -0.099819   -0.000004
 ---------------------------------------------------------------------
                    Distance matrix (angstroms):
                    1          2          3          4          5
     1  C    0.000000
     2  H    1.070000   0.000000
     3  H    1.070000   1.853293   0.000000
     4  H    1.070000   1.853296   1.853294   0.000000
     5  Cl   2.437700   2.662194   2.662197   2.662194   0.000000
     6  Br   2.667400   2.874007   2.874010   2.874007   5.105100
                    6
     6  Br   0.000000
 This structure is nearly, but not quite of a higher symmetry.
 Consider Symm=Loose if the higher symmetry is desired.
 Stoichiometry    CH3BrCl(1-)
 Framework group  C1[X(CH3BrCl)]
 Deg. of freedom    12
 Full point group                 C1      NOp   1
 Largest Abelian subgroup         C1      NOp   1
 Largest concise Abelian subgroup C1      NOp   1
                         Standard orientation:                         
 ---------------------------------------------------------------------
 Center     Atomic      Atomic             Coordinates (Angstroms)
 Number     Number       Type             X           Y           Z
 ---------------------------------------------------------------------
      1          6           0        0.296686    0.368657    0.707438
      2          1           0       -0.260908   -0.324216    1.302346
      3          1           0        1.297394    0.134128    0.409984
      4          1           0       -0.146426    1.296058    0.409983
      5         17           0        1.146412    1.424542    2.733630
      6         35           0       -0.633119   -0.786718   -1.509676
 ---------------------------------------------------------------------
 Rotational constants (GHZ):         145.9967572           0.7783254           0.7783254
 Leave Link  202 at Thu Oct 17 18:23:06 2019, MaxMem=   280000000 cpu:               0.8 elap:               0.1
 (Enter /home/soft/g16/l301.exe)
 Standard basis: def2TZVP (5D, 7F)
 Ernie: Thresh=  0.10000D-02 Tol=  0.10000D-05 Strict=F.
 There are   151 symmetry adapted cartesian basis functions of A   symmetry.
 There are   134 symmetry adapted basis functions of A   symmetry.
   134 basis functions,   258 primitive gaussians,   151 cartesian basis functions
    31 alpha electrons       31 beta electrons
       nuclear repulsion energy       164.7084306463 Hartrees.
 IExCor=  402 DFT=T Ex+Corr=B3LYP ExCW=0 ScaHFX=  0.200000
 ScaDFX=  0.800000  0.720000  1.000000  0.810000 ScalE2=  1.000000  1.000000
 IRadAn=      5 IRanWt=     -1 IRanGd=            0 ICorTp=0 IEmpDi=141
 NAtoms=    6 NActive=    6 NUniq=    6 SFac= 1.00D+00 NAtFMM=   60 NAOKFM=F Big=F
 Integral buffers will be    131072 words long.
 Raffenetti 2 integral format.
 Two-electron integral symmetry is turned on.
 R6Disp:  Grimme-D3(BJ) Dispersion energy=       -0.0068370902 Hartrees.
 Nuclear repulsion after empirical dispersion term =      164.7015935561 Hartrees.
 Leave Link  301 at Thu Oct 17 18:23:06 2019, MaxMem=   280000000 cpu:               2.8 elap:               0.1
 (Enter /home/soft/g16/l302.exe)
 NPDir=0 NMtPBC=     1 NCelOv=     1 NCel=       1 NClECP=     1 NCelD=      1
         NCelK=      1 NCelE2=     1 NClLst=     1 CellRange=     0.0.
 One-electron integrals computed using PRISM.
 One-electron integral symmetry used in STVInt
   1 Symmetry operations used in ECPInt.
 ECPInt:  NShTT=    1378 NPrTT=    5593 LenC2=    1317 LenP2D=    4195.
 LDataN:  DoStor=T MaxTD1= 6 Len=  172
 NBasis=   134 RedAO= T EigKep=  1.50D-03  NBF=   134
 NBsUse=   134 1.00D-06 EigRej= -1.00D+00 NBFU=   134
 Precomputing XC quadrature grid using
 IXCGrd= 4 IRadAn=           5 IRanWt=          -1 IRanGd=           0 AccXCQ= 0.00D+00.
 Generated NRdTot=       0 NPtTot=           0 NUsed=           0 NTot=          32
 NSgBfM=   150   150   150   150   150 MxSgAt=     6 MxSgA2=     6.
 Leave Link  302 at Thu Oct 17 18:23:06 2019, MaxMem=   280000000 cpu:               5.4 elap:               0.3
 (Enter /home/soft/g16/l303.exe)
 DipDrv:  MaxL=1.
 Leave Link  303 at Thu Oct 17 18:23:06 2019, MaxMem=   280000000 cpu:               1.8 elap:               0.1
 (Enter /home/soft/g16/l401.exe)
 ExpMin= 9.52D-02 ExpMax= 5.65D+05 ExpMxC= 5.46D+03 IAcc=3 IRadAn=         5 AccDes= 0.00D+00
 Harris functional with IExCor=  402 and IRadAn=       5 diagonalized for initial guess.
 HarFok:  IExCor=  402 AccDes= 0.00D+00 IRadAn=         5 IDoV= 1 UseB2=F ITyADJ=14
 ICtDFT=  3500011 ScaDFX=  1.000000  1.000000  1.000000  1.000000
 FoFCou: FMM=F IPFlag=           0 FMFlag=      100000 FMFlg1=           0
         NFxFlg=           0 DoJE=T BraDBF=F KetDBF=T FulRan=T
         wScrn=  0.000000 ICntrl=       500 IOpCl=  0 I1Cent=   200000004 NGrid=           0
         NMat0=    1 NMatS0=      1 NMatT0=    0 NMatD0=    1 NMtDS0=    0 NMtDT0=    0
 Petite list used in FoFCou.
 Harris En= -3074.57377260237    
 JPrj=0 DoOrth=F DoCkMO=F.
 Leave Link  401 at Thu Oct 17 18:23:07 2019, MaxMem=   280000000 cpu:               7.8 elap:               0.4
 (Enter /home/soft/g16/l502.exe)
 Keep R1 ints in memory in canonical form, NReq=64315121.
 FoFCou: FMM=F IPFlag=           0 FMFlag=           0 FMFlg1=           0
         NFxFlg=           0 DoJE=F BraDBF=F KetDBF=F FulRan=T
         wScrn=  0.000000 ICntrl=       600 IOpCl=  0 I1Cent=           0 NGrid=           0
         NMat0=    1 NMatS0=   9045 NMatT0=    0 NMatD0=    1 NMtDS0=    0 NMtDT0=    0
 Symmetry not used in FoFCou.
 Two-electron integral symmetry not used.
 Closed shell SCF:
 Using DIIS extrapolation, IDIIS=  1040.
 NGot=   280000000 LenX=   239038777 LenY=   239015535
 Requested convergence on RMS density matrix=1.00D-08 within 128 cycles.
 Requested convergence on MAX density matrix=1.00D-06.
 Requested convergence on             energy=1.00D-06.
 No special actions if energy rises.
 Integral accuracy reduced to 1.0D-05 until final iterations.

 Cycle   1  Pass 0  IDiag  1:
 E= -3074.31027113723    
 DIIS: error= 4.24D-02 at cycle   1 NSaved=   1.
 NSaved= 1 IEnMin= 1 EnMin= -3074.31027113723     IErMin= 1 ErrMin= 4.24D-02
 ErrMax= 4.24D-02  0.00D+00 EMaxC= 1.00D-01 BMatC= 2.18D-01 BMatP= 2.18D-01
 IDIUse=3 WtCom= 5.76D-01 WtEn= 4.24D-01
 Coeff-Com:  0.100D+01
 Coeff-En:   0.100D+01
 Coeff:      0.100D+01
 Gap=     0.318 Goal=   None    Shift=    0.000
 GapD=    0.318 DampG=1.000 DampE=0.500 DampFc=0.5000 IDamp=-1.
 Damping current iteration by 5.00D-01
 RMSDP=5.36D-03 MaxDP=1.51D-01              OVMax= 3.52D-01

 Cycle   2  Pass 0  IDiag  1:
 E= -3074.36379970639     Delta-E=       -0.053528569161 Rises=F Damp=T
 DIIS: error= 1.73D-02 at cycle   2 NSaved=   2.
 NSaved= 2 IEnMin= 2 EnMin= -3074.36379970639     IErMin= 2 ErrMin= 1.73D-02
 ErrMax= 1.73D-02  0.00D+00 EMaxC= 1.00D-01 BMatC= 2.87D-02 BMatP= 2.18D-01
 IDIUse=3 WtCom= 8.27D-01 WtEn= 1.73D-01
 Coeff-Com: -0.162D+00 0.116D+01
 Coeff-En:   0.629D-01 0.937D+00
 Coeff:     -0.123D+00 0.112D+01
 Gap=     0.157 Goal=   None    Shift=    0.000
 RMSDP=1.71D-03 MaxDP=5.84D-02 DE=-5.35D-02 OVMax= 2.14D-01

 Cycle   3  Pass 0  IDiag  1:
 E= -3074.39347563637     Delta-E=       -0.029675929976 Rises=F Damp=F
 DIIS: error= 1.39D-02 at cycle   3 NSaved=   3.
 NSaved= 3 IEnMin= 3 EnMin= -3074.39347563637     IErMin= 3 ErrMin= 1.39D-02
 ErrMax= 1.39D-02  0.00D+00 EMaxC= 1.00D-01 BMatC= 2.81D-02 BMatP= 2.87D-02
 IDIUse=3 WtCom= 8.61D-01 WtEn= 1.39D-01
 Coeff-Com: -0.189D+00 0.669D+00 0.520D+00
 Coeff-En:   0.000D+00 0.777D-01 0.922D+00
 Coeff:     -0.163D+00 0.587D+00 0.576D+00
 Gap=     0.182 Goal=   None    Shift=    0.000
 RMSDP=1.29D-03 MaxDP=3.77D-02 DE=-2.97D-02 OVMax= 1.48D-01

 Cycle   4  Pass 0  IDiag  1:
 E= -3074.41891890488     Delta-E=       -0.025443268509 Rises=F Damp=F
 DIIS: error= 5.63D-03 at cycle   4 NSaved=   4.
 NSaved= 4 IEnMin= 4 EnMin= -3074.41891890488     IErMin= 4 ErrMin= 5.63D-03
 ErrMax= 5.63D-03  0.00D+00 EMaxC= 1.00D-01 BMatC= 4.50D-03 BMatP= 2.81D-02
 IDIUse=3 WtCom= 9.44D-01 WtEn= 5.63D-02
 Coeff-Com: -0.133D-01 0.615D-01 0.295D+00 0.657D+00
 Coeff-En:   0.000D+00 0.000D+00 0.183D+00 0.817D+00
 Coeff:     -0.126D-01 0.580D-01 0.289D+00 0.666D+00
 Gap=     0.170 Goal=   None    Shift=    0.000
 RMSDP=4.43D-04 MaxDP=1.23D-02 DE=-2.54D-02 OVMax= 4.57D-02

 Cycle   5  Pass 0  IDiag  1:
 E= -3074.42391554883     Delta-E=       -0.004996643948 Rises=F Damp=F
 DIIS: error= 1.17D-03 at cycle   5 NSaved=   5.
 NSaved= 5 IEnMin= 5 EnMin= -3074.42391554883     IErMin= 5 ErrMin= 1.17D-03
 ErrMax= 1.17D-03  0.00D+00 EMaxC= 1.00D-01 BMatC= 2.27D-04 BMatP= 4.50D-03
 IDIUse=3 WtCom= 9.88D-01 WtEn= 1.17D-02
 Coeff-Com: -0.786D-02 0.138D-01 0.148D+00 0.357D+00 0.489D+00
 Coeff-En:   0.000D+00 0.000D+00 0.000D+00 0.000D+00 0.100D+01
 Coeff:     -0.777D-02 0.136D-01 0.146D+00 0.353D+00 0.495D+00
 Gap=     0.177 Goal=   None    Shift=    0.000
 RMSDP=1.52D-04 MaxDP=5.11D-03 DE=-5.00D-03 OVMax= 1.21D-02

 Cycle   6  Pass 0  IDiag  1:
 E= -3074.42411345658     Delta-E=       -0.000197907754 Rises=F Damp=F
 DIIS: error= 3.03D-04 at cycle   6 NSaved=   6.
 NSaved= 6 IEnMin= 6 EnMin= -3074.42411345658     IErMin= 6 ErrMin= 3.03D-04
 ErrMax= 3.03D-04  0.00D+00 EMaxC= 1.00D-01 BMatC= 1.94D-05 BMatP= 2.27D-04
 IDIUse=3 WtCom= 9.97D-01 WtEn= 3.03D-03
 Coeff-Com: -0.134D-02-0.710D-04 0.330D-01 0.860D-01 0.258D+00 0.624D+00
 Coeff-En:   0.000D+00 0.000D+00 0.000D+00 0.000D+00 0.747D-01 0.925D+00
 Coeff:     -0.133D-02-0.707D-04 0.329D-01 0.857D-01 0.258D+00 0.625D+00
 Gap=     0.174 Goal=   None    Shift=    0.000
 RMSDP=4.35D-05 MaxDP=9.74D-04 DE=-1.98D-04 OVMax= 4.06D-03

 Cycle   7  Pass 0  IDiag  1:
 E= -3074.42413583337     Delta-E=       -0.000022376792 Rises=F Damp=F
 DIIS: error= 9.93D-05 at cycle   7 NSaved=   7.
 NSaved= 7 IEnMin= 7 EnMin= -3074.42413583337     IErMin= 7 ErrMin= 9.93D-05
 ErrMax= 9.93D-05  0.00D+00 EMaxC= 1.00D-01 BMatC= 1.69D-06 BMatP= 1.94D-05
 IDIUse=1 WtCom= 1.00D+00 WtEn= 0.00D+00
 Coeff-Com:  0.165D-03-0.555D-03-0.472D-02-0.111D-01 0.571D-01 0.303D+00
 Coeff-Com:  0.657D+00
 Coeff:      0.165D-03-0.555D-03-0.472D-02-0.111D-01 0.571D-01 0.303D+00
 Coeff:      0.657D+00
 Gap=     0.174 Goal=   None    Shift=    0.000
 RMSDP=9.94D-06 MaxDP=3.98D-04 DE=-2.24D-05 OVMax= 7.19D-04

 Initial convergence to 1.0D-05 achieved.  Increase integral accuracy.
 Cycle   8  Pass 1  IDiag  1:
 E= -3074.42415981137     Delta-E=       -0.000023977996 Rises=F Damp=F
 DIIS: error= 2.75D-05 at cycle   1 NSaved=   1.
 NSaved= 1 IEnMin= 1 EnMin= -3074.42415981137     IErMin= 1 ErrMin= 2.75D-05
 ErrMax= 2.75D-05  0.00D+00 EMaxC= 1.00D-01 BMatC= 6.80D-08 BMatP= 6.80D-08
 IDIUse=1 WtCom= 1.00D+00 WtEn= 0.00D+00
 Coeff-Com:  0.100D+01
 Coeff:      0.100D+01
 Gap=     0.174 Goal=   None    Shift=    0.000
 RMSDP=9.94D-06 MaxDP=3.98D-04 DE=-2.40D-05 OVMax= 1.25D-04

 Cycle   9  Pass 1  IDiag  1:
 E= -3074.42415984618     Delta-E=       -0.000000034807 Rises=F Damp=F
 DIIS: error= 1.88D-05 at cycle   2 NSaved=   2.
 NSaved= 2 IEnMin= 2 EnMin= -3074.42415984618     IErMin= 2 ErrMin= 1.88D-05
 ErrMax= 1.88D-05  0.00D+00 EMaxC= 1.00D-01 BMatC= 2.86D-08 BMatP= 6.80D-08
 IDIUse=1 WtCom= 1.00D+00 WtEn= 0.00D+00
 Coeff-Com:  0.345D+00 0.655D+00
 Coeff:      0.345D+00 0.655D+00
 Gap=     0.174 Goal=   None    Shift=    0.000
 RMSDP=1.78D-06 MaxDP=3.50D-05 DE=-3.48D-08 OVMax= 1.92D-04

 Cycle  10  Pass 1  IDiag  1:
 E= -3074.42415985452     Delta-E=       -0.000000008338 Rises=F Damp=F
 DIIS: error= 1.63D-05 at cycle   3 NSaved=   3.
 NSaved= 3 IEnMin= 3 EnMin= -3074.42415985452     IErMin= 3 ErrMin= 1.63D-05
 ErrMax= 1.63D-05  0.00D+00 EMaxC= 1.00D-01 BMatC= 2.22D-08 BMatP= 2.86D-08
 IDIUse=1 WtCom= 1.00D+00 WtEn= 0.00D+00
 Coeff-Com: -0.849D-02 0.469D+00 0.539D+00
 Coeff:     -0.849D-02 0.469D+00 0.539D+00
 Gap=     0.174 Goal=   None    Shift=    0.000
 RMSDP=8.71D-07 MaxDP=1.82D-05 DE=-8.34D-09 OVMax= 9.58D-05

 Cycle  11  Pass 1  IDiag  1:
 E= -3074.42415988073     Delta-E=       -0.000000026212 Rises=F Damp=F
 DIIS: error= 1.55D-06 at cycle   4 NSaved=   4.
 NSaved= 4 IEnMin= 4 EnMin= -3074.42415988073     IErMin= 4 ErrMin= 1.55D-06
 ErrMax= 1.55D-06  0.00D+00 EMaxC= 1.00D-01 BMatC= 4.43D-10 BMatP= 2.22D-08
 IDIUse=1 WtCom= 1.00D+00 WtEn= 0.00D+00
 Coeff-Com: -0.122D-01 0.230D+00 0.280D+00 0.502D+00
 Coeff:     -0.122D-01 0.230D+00 0.280D+00 0.502D+00
 Gap=     0.174 Goal=   None    Shift=    0.000
 RMSDP=1.53D-07 MaxDP=6.25D-06 DE=-2.62D-08 OVMax= 7.27D-06

 Cycle  12  Pass 1  IDiag  1:
 E= -3074.42415988111     Delta-E=       -0.000000000382 Rises=F Damp=F
 DIIS: error= 2.81D-07 at cycle   5 NSaved=   5.
 NSaved= 5 IEnMin= 5 EnMin= -3074.42415988111     IErMin= 5 ErrMin= 2.81D-07
 ErrMax= 2.81D-07  0.00D+00 EMaxC= 1.00D-01 BMatC= 7.52D-12 BMatP= 4.43D-10
 IDIUse=1 WtCom= 1.00D+00 WtEn= 0.00D+00
 Coeff-Com: -0.398D-02 0.692D-01 0.855D-01 0.176D+00 0.673D+00
 Coeff:     -0.398D-02 0.692D-01 0.855D-01 0.176D+00 0.673D+00
 Gap=     0.174 Goal=   None    Shift=    0.000
 RMSDP=4.38D-08 MaxDP=1.04D-06 DE=-3.82D-10 OVMax= 3.94D-06

 Cycle  13  Pass 1  IDiag  1:
 E= -3074.42415988110     Delta-E=        0.000000000010 Rises=F Damp=F
 DIIS: error= 2.05D-07 at cycle   6 NSaved=   6.
 NSaved= 6 IEnMin= 5 EnMin= -3074.42415988111     IErMin= 6 ErrMin= 2.05D-07
 ErrMax= 2.05D-07  0.00D+00 EMaxC= 1.00D-01 BMatC= 4.53D-12 BMatP= 7.52D-12
 IDIUse=1 WtCom= 1.00D+00 WtEn= 0.00D+00
 Coeff-Com: -0.136D-02 0.208D-01 0.254D-01 0.589D-01 0.432D+00 0.464D+00
 Coeff:     -0.136D-02 0.208D-01 0.254D-01 0.589D-01 0.432D+00 0.464D+00
 Gap=     0.174 Goal=   None    Shift=    0.000
 RMSDP=1.79D-08 MaxDP=4.85D-07 DE= 1.00D-11 OVMax= 1.61D-06

 Cycle  14  Pass 1  IDiag  1:
 E= -3074.42415988113     Delta-E=       -0.000000000034 Rises=F Damp=F
 DIIS: error= 2.49D-08 at cycle   7 NSaved=   7.
 NSaved= 7 IEnMin= 7 EnMin= -3074.42415988113     IErMin= 7 ErrMin= 2.49D-08
 ErrMax= 2.49D-08  0.00D+00 EMaxC= 1.00D-01 BMatC= 8.27D-14 BMatP= 4.53D-12
 IDIUse=1 WtCom= 1.00D+00 WtEn= 0.00D+00
 Coeff-Com: -0.245D-03 0.272D-02 0.267D-02 0.120D-01 0.120D+00 0.149D+00
 Coeff-Com:  0.713D+00
 Coeff:     -0.245D-03 0.272D-02 0.267D-02 0.120D-01 0.120D+00 0.149D+00
 Coeff:      0.713D+00
 Gap=     0.174 Goal=   None    Shift=    0.000
 RMSDP=1.62D-09 MaxDP=3.94D-08 DE=-3.37D-11 OVMax= 1.01D-07

 SCF Done:  E(RB3LYP) =  -3074.42415988     A.U. after   14 cycles
            NFock= 14  Conv=0.16D-08     -V/T= 2.0015
 KE= 3.069723532733D+03 PE=-7.682361445169D+03 EE= 1.373512158999D+03
 Leave Link  502 at Thu Oct 17 18:23:10 2019, MaxMem=   280000000 cpu:              43.2 elap:               2.9
 (Enter /home/soft/g16/l801.exe)
 DoSCS=F DFT=T ScalE2(SS,OS)=  1.000000  1.000000
 Range of M.O.s used for correlation:     1   134
 NBasis=   134 NAE=    31 NBE=    31 NFC=     0 NFV=     0
 NROrb=    134 NOA=    31 NOB=    31 NVA=   103 NVB=   103
 Leave Link  801 at Thu Oct 17 18:23:10 2019, MaxMem=   280000000 cpu:               0.5 elap:               0.0
 (Enter /home/soft/g16/l1101.exe)
 Using compressed storage, NAtomX=     6.
 Will process      7 centers per pass.
   1 Symmetry operations used in ECPInt.
 ECPInt:  NShTT=    1378 NPrTT=    5593 LenC2=    1317 LenP2D=    4195.
 LDataN:  DoStor=T MaxTD1= 7 Len=  274
 R6Disp: Adding Grimme-D3(BJ) dispersion energy 1st derivatives to the gradient.
 Leave Link 1101 at Thu Oct 17 18:23:10 2019, MaxMem=   280000000 cpu:               5.7 elap:               0.3
 (Enter /home/soft/g16/l1102.exe)
 Symmetrizing basis deriv contribution to polar:
 IMax=3 JMax=2 DiffMx= 0.00D+00
 Leave Link 1102 at Thu Oct 17 18:23:10 2019, MaxMem=   280000000 cpu:               1.1 elap:               0.1
 (Enter /home/soft/g16/l1110.exe)
 Forming Gx(P) for the SCF density, NAtomX=     6.
 Integral derivatives from FoFJK, PRISM(SPDF).
 Do as many integral derivatives as possible in FoFJK.
 G2DrvN: MDV=     279999420.
 G2DrvN: will do     7 centers at a time, making    1 passes.
 Calling FoFCou, ICntrl=  3107 FMM=F I1Cent=   0 AccDes= 0.00D+00.
 FoFJK:  IHMeth= 1 ICntrl=    3107 DoSepK=F KAlg= 0 I1Cent=           0 FoldK=F
 IRaf=         0 NMat=       1 IRICut=       1 DoRegI=T DoRafI=F ISym2E= 0 IDoP0=0 IntGTp=1.
 FoFCou: FMM=F IPFlag=           0 FMFlag=      100000 FMFlg1=           0
         NFxFlg=           0 DoJE=F BraDBF=F KetDBF=F FulRan=T
         wScrn=  0.000000 ICntrl=      3107 IOpCl=  0 I1Cent=           0 NGrid=           0
         NMat0=    1 NMatS0=      1 NMatT0=    0 NMatD0=    1 NMtDS0=    0 NMtDT0=    0
 Symmetry not used in FoFCou.
 End of G2Drv F.D. properties file   721 does not exist.
 End of G2Drv F.D. properties file   722 does not exist.
 End of G2Drv F.D. properties file   788 does not exist.
 Leave Link 1110 at Thu Oct 17 18:23:13 2019, MaxMem=   280000000 cpu:              56.5 elap:               2.4
 (Enter /home/soft/g16/l1002.exe)
 Minotr:  Closed shell wavefunction.
          IDoAtm=111111
          Direct CPHF calculation.
          Differentiating once with respect to electric field.
                with respect to dipole field.
          Differentiating once with respect to nuclear coordinates.
          Requested convergence is 1.0D-08 RMS, and 1.0D-07 maximum.
          Secondary convergence is 1.0D-12 RMS, and 1.0D-12 maximum.
          NewPWx=T KeepS1=F KeepF1=F KeepIn=T MapXYZ=F SortEE=F KeepMc=T.
         1761 words used for storage of precomputed grid.
 Keep R1 ints in memory in canonical form, NReq=64236638.
 FoFCou: FMM=F IPFlag=           0 FMFlag=           0 FMFlg1=           0
         NFxFlg=           0 DoJE=F BraDBF=F KetDBF=F FulRan=T
         wScrn=  0.000000 ICntrl=       600 IOpCl=  0 I1Cent=           0 NGrid=           0
         NMat0=    1 NMatS0=   9045 NMatT0=    0 NMatD0=    1 NMtDS0=    0 NMtDT0=    0
 Symmetry not used in FoFCou.
 Two-electron integral symmetry not used.
          MDV=     280000000 using IRadAn=       1.
          Solving linear equations simultaneously, MaxMat=       0.
          There are    21 degrees of freedom in the 1st order CPHF.  IDoFFX=6 NUNeed=     3.
     18 vectors produced by pass  0 Test12= 1.52D-14 4.76D-09 XBig12= 6.92D+01 5.82D+00.
 AX will form    18 AO Fock derivatives at one time.
     18 vectors produced by pass  1 Test12= 1.52D-14 4.76D-09 XBig12= 8.24D+00 1.03D+00.
     18 vectors produced by pass  2 Test12= 1.52D-14 4.76D-09 XBig12= 4.34D-01 2.27D-01.
     18 vectors produced by pass  3 Test12= 1.52D-14 4.76D-09 XBig12= 7.67D-03 1.78D-02.
     18 vectors produced by pass  4 Test12= 1.52D-14 4.76D-09 XBig12= 1.12D-04 2.41D-03.
     17 vectors produced by pass  5 Test12= 1.52D-14 4.76D-09 XBig12= 1.32D-06 2.69D-04.
      6 vectors produced by pass  6 Test12= 1.52D-14 4.76D-09 XBig12= 1.89D-09 8.98D-06.
      3 vectors produced by pass  7 Test12= 1.52D-14 4.76D-09 XBig12= 2.49D-12 3.51D-07.
      1 vectors produced by pass  8 Test12= 1.52D-14 4.76D-09 XBig12= 6.45D-15 2.49D-08.
 InvSVY:  IOpt=1 It=  1 EMax= 7.11D-15
 Solved reduced A of dimension   117 with    21 vectors.
 FullF1:  Do perturbations      1 to       3.
 Isotropic polarizability for W=    0.000000       74.87 Bohr**3.
 End of Minotr F.D. properties file   721 does not exist.
 End of Minotr F.D. properties file   722 does not exist.
 End of Minotr F.D. properties file   788 does not exist.
 Leave Link 1002 at Thu Oct 17 18:23:16 2019, MaxMem=   280000000 cpu:              78.6 elap:               3.4
 (Enter /home/soft/g16/l601.exe)
 Copying SCF densities to generalized density rwf, IOpCl= 0 IROHF=0.

 **********************************************************************

            Population analysis using the SCF density.

 **********************************************************************

 Orbital symmetries:
       Occupied  (A) (A) (A) (A) (A) (A) (A) (A) (A) (A) (A) (A)
                 (A) (A) (A) (A) (A) (A) (A) (A) (A) (A) (A) (A)
                 (A) (A) (A) (A) (A) (A) (A)
       Virtual   (A) (A) (A) (A) (A) (A) (A) (A) (A) (A) (A) (A)
                 (A) (A) (A) (A) (A) (A) (A) (A) (A) (A) (A) (A)
                 (A) (A) (A) (A) (A) (A) (A) (A) (A) (A) (A) (A)
                 (A) (A) (A) (A) (A) (A) (A) (A) (A) (A) (A) (A)
                 (A) (A) (A) (A) (A) (A) (A) (A) (A) (A) (A) (A)
                 (A) (A) (A) (A) (A) (A) (A) (A) (A) (A) (A) (A)
                 (A) (A) (A) (A) (A) (A) (A) (A) (A) (A) (A) (A)
                 (A) (A) (A) (A) (A) (A) (A) (A) (A) (A) (A) (A)
                 (A) (A) (A) (A) (A) (A) (A)
 The electronic state is 1-A.
 Alpha  occ. eigenvalues -- -482.62824-101.29150 -62.27672 -56.09141 -56.08999
 Alpha  occ. eigenvalues --  -56.08999 -10.09419  -9.22281  -8.46744  -6.98153
 Alpha  occ. eigenvalues --   -6.97729  -6.97729  -6.29250  -6.28818  -6.28818
 Alpha  occ. eigenvalues --   -2.40766  -2.40652  -2.40652  -2.40309  -2.40308
 Alpha  occ. eigenvalues --   -0.59289  -0.55223  -0.52102  -0.30670  -0.30670
 Alpha  occ. eigenvalues --   -0.15988  -0.10932  -0.10932  -0.09079  -0.09078
 Alpha  occ. eigenvalues --   -0.08925
 Alpha virt. eigenvalues --    0.08479   0.19000   0.25125   0.25125   0.34107
 Alpha virt. eigenvalues --    0.34107   0.36157   0.41729   0.42814   0.42814
 Alpha virt. eigenvalues --    0.48130   0.48130   0.49045   0.50599   0.50599
 Alpha virt. eigenvalues --    0.53302   0.55005   0.55005   0.57222   0.60396
 Alpha virt. eigenvalues --    0.60396   0.60950   0.64571   0.64571   0.65677
 Alpha virt. eigenvalues --    0.65678   0.68151   0.89728   0.89728   0.90379
 Alpha virt. eigenvalues --    1.08243   1.09838   1.09838   1.21802   1.52519
 Alpha virt. eigenvalues --    1.53572   1.53572   1.56895   1.56895   1.57145
 Alpha virt. eigenvalues --    1.60243   1.60322   1.60322   1.60614   1.73131
 Alpha virt. eigenvalues --    1.73131   1.73854   1.73898   1.77935   1.77936
 Alpha virt. eigenvalues --    1.78029   1.79326   1.79326   1.90481   1.92595
 Alpha virt. eigenvalues --    1.92596   1.96497   1.96497   2.05286   2.05286
 Alpha virt. eigenvalues --    2.09345   2.14793   2.17264   2.17264   2.28520
 Alpha virt. eigenvalues --    2.28521   2.30229   2.30286   2.32616   2.37859
 Alpha virt. eigenvalues --    2.37859   2.41475   2.41476   2.42977   2.57515
 Alpha virt. eigenvalues --    2.57515   2.71169   2.79124   2.79124   2.89126
 Alpha virt. eigenvalues --    3.18309   3.18309   3.33519   3.33519   3.35814
 Alpha virt. eigenvalues --    3.38496   3.38496   3.75789   3.94657   4.18850
 Alpha virt. eigenvalues --    4.18851   4.21909   4.21910   4.27629   4.27629
 Alpha virt. eigenvalues --    4.29796   4.81993   7.50846  10.88817  10.88818
 Alpha virt. eigenvalues --   10.99032  22.18537  24.68179
          Condensed to atoms (all electrons):
               1          2          3          4          5          6
     1  C    4.821431   0.403285   0.403285   0.403286   0.062061   0.037905
     2  H    0.403285   0.503916  -0.023216  -0.023215  -0.003866  -0.003394
     3  H    0.403285  -0.023216   0.503916  -0.023216  -0.003866  -0.003394
     4  H    0.403286  -0.023215  -0.023216   0.503915  -0.003866  -0.003394
     5  Cl   0.062061  -0.003866  -0.003866  -0.003866  17.564843   0.005914
     6  Br   0.037905  -0.003394  -0.003394  -0.003394   0.005914  35.653355
 Mulliken charges:
               1
     1  C   -0.131253
     2  H    0.146489
     3  H    0.146489
     4  H    0.146489
     5  Cl  -0.621221
     6  Br  -0.686993
 Sum of Mulliken charges =  -1.00000
 Mulliken charges with hydrogens summed into heavy atoms:
               1
     1  C    0.308214
     5  Cl  -0.621221
     6  Br  -0.686993
 APT charges:
               1
     1  C    1.038575
     2  H   -0.015286
     3  H   -0.015292
     4  H   -0.015291
     5  Cl  -1.009073
     6  Br  -0.983635
 Sum of APT charges =  -1.00000
 APT charges with hydrogens summed into heavy atoms:
               1
     1  C    0.992707
     5  Cl  -1.009073
     6  Br  -0.983635
 Electronic spatial extent (au):  <R**2>=           1231.5661
 Charge=             -1.0000 electrons
 Dipole moment (field-independent basis, Debye):
    X=             -0.9026    Y=             -1.1216    Z=             -2.1523  Tot=              2.5895
 Quadrupole moment (field-independent basis, Debye-Ang):
   XX=            -47.8970   YY=            -50.7279   ZZ=            -72.2780
   XY=             -6.4654   XZ=            -12.4068   YZ=            -15.4167
 Traceless Quadrupole moment (field-independent basis, Debye-Ang):
   XX=              9.0706   YY=              6.2397   ZZ=            -15.3103
   XY=             -6.4654   XZ=            -12.4068   YZ=            -15.4167
 Octapole moment (field-independent basis, Debye-Ang**2):
  XXX=            -18.4174  YYY=            -25.9890  ZZZ=            -88.1668  XYY=            -11.6969
  XXY=            -11.4312  XXZ=            -21.5430  XZZ=            -26.9059  YZZ=            -33.4335
  YYZ=            -26.2553  XYZ=            -10.7625
 Hexadecapole moment (field-independent basis, Debye-Ang**3):
 XXXX=           -237.6617 YYYY=           -338.0521 ZZZZ=          -1194.2086 XXXY=           -112.6914
 XXXZ=           -215.8989 YYYX=           -116.5896 YYYZ=           -276.1944 ZZZX=           -270.4868
 ZZZY=           -336.1089 XXYY=           -101.6032 XXZZ=           -239.9095 YYZZ=           -270.1534
 XXYZ=            -99.1265 YYXZ=            -86.1441 ZZXY=            -69.0741
 N-N= 1.647015935561D+02 E-N=-7.682361444787D+03  KE= 3.069723532733D+03
  Exact polarizability:  52.208  16.156  59.283  31.004  38.526 113.133
 Approx polarizability:  82.337  26.869  94.101  51.560  64.069 183.659
 No NMR shielding tensors so no spin-rotation constants.
 Leave Link  601 at Thu Oct 17 18:23:17 2019, MaxMem=   280000000 cpu:               5.3 elap:               0.3
 (Enter /home/soft/g16/l701.exe)
 ... and contract with generalized density number  0.
 Compute integral second derivatives.
 R6Disp: Adding Grimme-D3(BJ) dispersion energy 2nd derivatives to the Hessian.
   1 Symmetry operations used in ECPInt.
 ECPInt:  NShTT=    1378 NPrTT=    5593 LenC2=    1317 LenP2D=    4195.
 LDataN:  DoStor=T MaxTD1= 8 Len=  415
 Leave Link  701 at Thu Oct 17 18:23:17 2019, MaxMem=   280000000 cpu:               8.5 elap:               0.4
 (Enter /home/soft/g16/l702.exe)
 L702 exits ... SP integral derivatives will be done elsewhere.
 Leave Link  702 at Thu Oct 17 18:23:17 2019, MaxMem=   280000000 cpu:               0.5 elap:               0.0
 (Enter /home/soft/g16/l703.exe)
 Integral derivatives from FoFJK, PRISM(SPDF).
 Compute integral second derivatives, UseDBF=F ICtDFT=           0.
 Calling FoFJK, ICntrl=    100127 FMM=F ISym2X=0 I1Cent= 0 IOpClX= 0 NMat=1 NMatS=1 NMatT=0.
 FoFJK:  IHMeth= 1 ICntrl=  100127 DoSepK=F KAlg= 0 I1Cent=           0 FoldK=F
 IRaf=         0 NMat=       1 IRICut=       1 DoRegI=T DoRafI=F ISym2E= 0 IDoP0=0 IntGTp=1.
 FoFCou: FMM=F IPFlag=           0 FMFlag=      100000 FMFlg1=         800
         NFxFlg=           0 DoJE=F BraDBF=F KetDBF=F FulRan=T
         wScrn=  0.000000 ICntrl=    100127 IOpCl=  0 I1Cent=           0 NGrid=           0
         NMat0=    1 NMatS0=      1 NMatT0=    0 NMatD0=    1 NMtDS0=    0 NMtDT0=    0
 Symmetry not used in FoFCou.
 Leave Link  703 at Thu Oct 17 18:23:23 2019, MaxMem=   280000000 cpu:             129.3 elap:               5.4
 (Enter /home/soft/g16/l716.exe)
 Dipole        =-3.55117478D-01-4.41279325D-01-8.46789829D-01
 Polarizability= 5.22084677D+01 1.61561109D+01 5.92833914D+01
                 3.10036578D+01 3.85261967D+01 1.13133032D+02
 ***** Axes restored to original set *****
 -------------------------------------------------------------------
 Center     Atomic                   Forces (Hartrees/Bohr)
 Number     Number              X              Y              Z
 -------------------------------------------------------------------
      1        6          -0.010330830   -0.000017171   -0.000002563
      2        1           0.002258258   -0.000684751    0.000000642
      3        1           0.002255375    0.000345094    0.000593780
      4        1           0.002258281    0.000344468   -0.000589670
      5       17           0.011555193    0.000013222    0.000003366
      6       35          -0.007996276   -0.000000862   -0.000005555
 -------------------------------------------------------------------
 Cartesian Forces:  Max     0.011555193 RMS     0.004222181
 Force constants in Cartesian coordinates: 
                1             2             3             4             5 
      1 -0.219149D-01
      2 -0.902802D-03  0.677953D+00
      3 -0.438518D-04  0.188287D-04  0.677970D+00
      4 -0.116298D-01  0.496438D-04  0.237826D-05  0.263657D-01
      5  0.110424D-02 -0.383417D+00  0.000000D+00 -0.113652D-02  0.392156D+00
      6 -0.585550D-05  0.204744D-05 -0.547364D-01  0.603117D-05  0.644723D-05
      7 -0.116235D-01  0.387806D-03  0.582258D-03  0.358949D-02 -0.181864D-04
      8 -0.137648D-03 -0.136907D+00 -0.142324D+00 -0.383037D-03 -0.644968D-02
      9 -0.326134D-03 -0.142323D+00 -0.301252D+00  0.262136D-03  0.397955D-02
     10 -0.116201D-01  0.384379D-03 -0.575959D-03  0.358817D-02 -0.186268D-04
     11 -0.133732D-03 -0.136905D+00  0.142320D+00 -0.381357D-03 -0.644914D-02
     12  0.342657D-03  0.142320D+00 -0.301252D+00 -0.255568D-03 -0.397904D-02
     13  0.313608D-01  0.618126D-04 -0.181031D-05 -0.125858D-01 -0.210898D-02
     14  0.601787D-04 -0.120452D-01 -0.103377D-05  0.581162D-02  0.228419D-02
     15  0.127187D-05 -0.181736D-05 -0.120397D-01 -0.772142D-05  0.136129D-05
     16  0.254274D-01  0.191616D-04  0.369854D-04 -0.932772D-02  0.217807D-02
     17  0.976264D-05 -0.867936D-02 -0.129998D-04 -0.396035D-02  0.187578D-02
     18  0.319117D-04 -0.167191D-04 -0.869006D-02 -0.725675D-05 -0.766455D-05
                6             7             8             9            10 
      6  0.455255D-01
      7  0.504873D-03  0.263786D-01
      8 -0.236484D-01  0.194563D-03  0.132196D+00
      9  0.490742D-02  0.353952D-03  0.150103D+00  0.305499D+00
     10 -0.507135D-03  0.358652D-02  0.413882D-03 -0.191065D-03  0.263676D-01
     11  0.236479D-01  0.418788D-03  0.105862D-01 -0.138142D-01  0.177002D-03
     12  0.490593D-02  0.192210D-03  0.138136D-01 -0.121276D-01 -0.378045D-03
     13  0.419698D-05 -0.125802D-01  0.102550D-02  0.180267D-02 -0.125725D-01
     14  0.000000D+00 -0.293765D-02  0.365281D-03  0.109243D-02 -0.292803D-02
     15 -0.257114D-03 -0.505084D-02  0.108297D-02  0.163619D-02  0.505292D-02
     16 -0.211082D-05 -0.935090D-02 -0.111326D-02 -0.190156D-02 -0.934969D-02
     17 -0.827563D-05  0.195468D-02  0.208711D-03  0.961627D-03  0.197139D-02
     18 -0.345266D-03  0.341755D-02  0.972422D-03  0.133738D-02 -0.340072D-02
               11            12            13            14            15 
     11  0.132170D+00
     12 -0.150087D+00  0.305497D+00
     13  0.102796D-02 -0.180930D-02  0.203059D-01
     14  0.385899D-03 -0.109923D-02  0.139173D-04  0.773289D-02
     15 -0.109010D-02  0.163061D-02  0.441061D-05  0.758565D-05  0.775303D-02
     16 -0.110866D-02  0.190805D-02 -0.139281D-01 -0.200384D-04  0.000000D+00
     17  0.212070D-03 -0.968830D-03 -0.202119D-04  0.127690D-02  0.000000D+00
     18 -0.976513D-03  0.134576D-02  0.000000D+00  0.000000D+00  0.127697D-02
               16            17            18 
     16  0.165290D-01
     17  0.447275D-04  0.510589D-02
     18 -0.413256D-04  0.284858D-04  0.507521D-02
 FormGI is forming the generalized inverse of G from B-inverse, IUseBI=4.
 Force constants in internal coordinates: 
                1             2             3             4             5 
      1  0.392158D+00
      2 -0.221541D-03  0.392166D+00
      3 -0.221356D-03 -0.221304D-03  0.392144D+00
      4 -0.208903D-02 -0.208386D-02 -0.209086D-02  0.203059D-01
      5 -0.219335D-02 -0.219602D-02 -0.219884D-02  0.139282D-01  0.165291D-01
      6  0.170345D-02  0.170374D-02 -0.340363D-02  0.000000D+00  0.000000D+00
      7  0.169998D-02 -0.340355D-02  0.169949D-02  0.000000D+00  0.000000D+00
      8 -0.323667D-02  0.154040D-02  0.155308D-02  0.424234D-02 -0.312358D-02
      9 -0.246827D-02  0.129544D-02  0.131602D-02 -0.423943D-02  0.316181D-02
     10 -0.340343D-02  0.169980D-02  0.170414D-02  0.000000D+00  0.000000D+00
     11  0.154771D-02 -0.322656D-02  0.154452D-02  0.424442D-02 -0.314465D-02
     12  0.129762D-02 -0.247354D-02  0.131256D-02 -0.424099D-02  0.317320D-02
     13  0.155224D-02  0.155039D-02 -0.323141D-02  0.423118D-02 -0.317735D-02
     14  0.130738D-02  0.131383D-02 -0.249475D-02 -0.423753D-02  0.311056D-02
     15 -0.570494D-02  0.283584D-02  0.286911D-02  0.291154D-05  0.382311D-04
     16  0.822551D-05  0.494463D-02 -0.495554D-02 -0.564208D-05 -0.550391D-04
     17 -0.157876D-03 -0.156752D-03 -0.154519D-03  0.146854D-01 -0.109068D-01
     18  0.170345D-02  0.170375D-02 -0.340363D-02  0.000000D+00  0.000000D+00
     19 -0.170345D-02 -0.170375D-02  0.340363D-02  0.000000D+00  0.000000D+00
     20 -0.169998D-02  0.340355D-02 -0.169950D-02  0.000000D+00  0.000000D+00
     21  0.169998D-02 -0.340355D-02  0.169950D-02  0.000000D+00  0.000000D+00
     22 -0.340343D-02  0.169981D-02  0.170413D-02  0.000000D+00  0.000000D+00
     23  0.340343D-02 -0.169981D-02 -0.170413D-02  0.000000D+00  0.000000D+00
                6             7             8             9            10 
      6  0.694553D-02
      7 -0.347270D-02  0.694503D-02
      8 -0.158928D-03 -0.566562D-04  0.243489D-01
      9 -0.333260D-05 -0.106400D-03 -0.117357D-01  0.203166D-01
     10 -0.347282D-02 -0.347233D-02  0.215583D-03  0.109734D-03  0.694515D-02
     11 -0.153693D-03  0.217183D-03 -0.102612D-01  0.391631D-02 -0.634908D-04
     12 -0.873166D-05  0.109866D-03  0.394733D-02 -0.825720D-02 -0.101133D-03
     13  0.117729D-03 -0.633543D-04 -0.102397D-01  0.397468D-02 -0.543755D-04
     14  0.206940D-03 -0.100612D-03  0.394036D-02 -0.821472D-02 -0.106327D-03
     15 -0.162260D-03 -0.163056D-03  0.126132D-01  0.858092D-02  0.325316D-03
     16  0.281228D-03 -0.283500D-03  0.845238D-05  0.582592D-04  0.227252D-05
     17 -0.225035D-03  0.112191D-03  0.444332D-02 -0.443950D-02  0.112839D-03
     18  0.694553D-02 -0.347270D-02 -0.158883D-03 -0.335472D-05 -0.347282D-02
     19 -0.694553D-02  0.347270D-02  0.158950D-03  0.329471D-05  0.347282D-02
     20  0.347270D-02 -0.694503D-02  0.566832D-04  0.106385D-03  0.347233D-02
     21 -0.347270D-02  0.694503D-02 -0.566375D-04 -0.106429D-03 -0.347233D-02
     22 -0.347282D-02 -0.347233D-02  0.215566D-03  0.109740D-03  0.694515D-02
     23  0.347282D-02  0.347233D-02 -0.215587D-03 -0.109724D-03 -0.694515D-02
               11            12            13            14            15 
     11  0.243774D-01
     12 -0.117308D-01  0.203234D-01
     13 -0.102655D-01  0.392952D-02  0.243514D-01
     14  0.396380D-02 -0.821219D-02 -0.117504D-01  0.202732D-01
     15 -0.634493D-02 -0.430987D-02 -0.626500D-02 -0.427436D-02  0.211941D-01
     16 -0.109399D-01 -0.743354D-02  0.109332D-01  0.737341D-02  0.667115D-04
     17  0.444636D-02 -0.445011D-02  0.444128D-02 -0.444134D-02  0.381986D-05
     18 -0.153704D-03 -0.872874D-05  0.117703D-03  0.206950D-03 -0.162237D-03
     19  0.153688D-03  0.874462D-05 -0.117737D-03 -0.206923D-03  0.162244D-03
     20 -0.217215D-03 -0.109853D-03  0.633718D-04  0.100602D-03  0.163069D-03
     21  0.217167D-03  0.109900D-03 -0.633405D-04 -0.100633D-03 -0.163067D-03
     22 -0.635117D-04 -0.101125D-03 -0.543316D-04 -0.106348D-03  0.325306D-03
     23  0.634790D-04  0.101155D-03  0.543964D-04  0.106291D-03 -0.325311D-03
               16            17            18            19            20 
     16  0.211772D-01
     17  0.212917D-05  0.153933D-01
     18  0.281223D-03 -0.225024D-03  0.694553D-02
     19 -0.281227D-03  0.225044D-03 -0.694553D-02  0.694553D-02
     20  0.283516D-03 -0.112177D-03  0.347270D-02 -0.347270D-02  0.694503D-02
     21 -0.283515D-03  0.112210D-03 -0.347270D-02  0.347270D-02 -0.694503D-02
     22  0.229299D-05  0.112847D-03 -0.347282D-02  0.347282D-02  0.347233D-02
     23 -0.228790D-05 -0.112834D-03  0.347282D-02 -0.347282D-02 -0.347233D-02
               21            22            23 
     21  0.694503D-02
     22 -0.347233D-02  0.694515D-02
     23  0.347233D-02 -0.694515D-02  0.694515D-02
 Leave Link  716 at Thu Oct 17 18:23:23 2019, MaxMem=   280000000 cpu:               1.1 elap:               0.1
 (Enter /home/soft/g16/l103.exe)

 GradGradGradGradGradGradGradGradGradGradGradGradGradGradGradGradGradGrad
 Berny optimization.
 Red2BG is reusing G-inverse.
 Internal  Forces:  Max     0.011555200 RMS     0.003016523
 Search for a saddle point.
 Step number   1 out of a maximum of   33
 All quantities printed in internal units (Hartrees-Bohrs-Radians)
 Swapping is turned off.
 Second derivative matrix not updated -- analytic derivatives used.
 ITU=  0
     Eigenvalues ---   -0.01025   0.03029   0.03094   0.03100   0.03505
     Eigenvalues ---    0.03529   0.03975   0.04900   0.04904   0.39179
     Eigenvalues ---    0.39283   0.39284
 Eigenvectors required to have negative eigenvalues:
                          R4        R5        D1        A4        A8
   1                    0.59256  -0.58466  -0.45239   0.13083  -0.13082
                          A7        A6        A3        A9        D2
   1                    0.13081  -0.13058  -0.13038   0.13014  -0.00370
 RFO step:  Lambda0=1.352200520D-03 Lambda=-5.23853223D-03.
 Linear search not attempted -- option 19 set.
 Maximum step size (   0.300) exceeded in Quadratic search.
    -- Step size scaled by   0.603
 Iteration  1 RMS(Cart)=  0.03640537 RMS(Int)=  0.01986210
 Iteration  2 RMS(Cart)=  0.01813380 RMS(Int)=  0.00024069
 Iteration  3 RMS(Cart)=  0.00000009 RMS(Int)=  0.00024069
 ITry= 1 IFail=0 DXMaxC= 2.30D-01 DCOld= 1.00D+10 DXMaxT= 3.00D-01 DXLimC= 3.00D+00 Rises=F
 Variable       Old X    -DE/DX   Delta X   Delta X   Delta X     New X
                                 (Linear)    (Quad)   (Total)
    R1        2.02201   0.00069   0.00000  -0.00072  -0.00072   2.02129
    R2        2.02201   0.00069   0.00000  -0.00073  -0.00073   2.02128
    R3        2.02201   0.00068   0.00000  -0.00080  -0.00080   2.02121
    R4        4.60659  -0.01156   0.00000  -0.02184  -0.02184   4.58475
    R5        5.04066  -0.00800   0.00000  -0.29523  -0.29523   4.74542
    A1        2.09439  -0.00000   0.00000  -0.00077  -0.00144   2.09296
    A2        2.09440   0.00000   0.00000   0.00039  -0.00027   2.09413
    A3        1.57080   0.00076   0.00000  -0.01943  -0.01942   1.55137
    A4        1.57080  -0.00075   0.00000   0.01987   0.01986   1.59065
    A5        2.09439  -0.00000   0.00000   0.00038  -0.00029   2.09410
    A6        1.57080   0.00076   0.00000  -0.01962  -0.01961   1.55119
    A7        1.57080  -0.00076   0.00000   0.01978   0.01978   1.59058
    A8        1.57080   0.00076   0.00000  -0.01981  -0.01980   1.55099
    A9        1.57079  -0.00077   0.00000   0.01921   0.01921   1.59000
   A10        3.14159   0.00001   0.00000   0.00043   0.00043   3.14202
   A11        3.14159  -0.00000   0.00000  -0.00044  -0.00044   3.14115
    D1       -3.14159   0.00264   0.00000  -0.06797  -0.06794   3.07365
    D2        2.09439  -0.00000   0.00000  -0.00077  -0.00078   2.09362
    D3       -2.09439   0.00000   0.00000   0.00077   0.00076  -2.09364
    D4       -2.09440  -0.00000   0.00000  -0.00039  -0.00039  -2.09479
    D5        2.09440   0.00000   0.00000   0.00039   0.00039   2.09479
    D6        2.09439  -0.00000   0.00000   0.00038   0.00038   2.09478
    D7       -2.09439   0.00000   0.00000  -0.00038  -0.00037  -2.09476
         Item               Value     Threshold  Converged?
 Maximum Force            0.011555     0.000450     NO 
 RMS     Force            0.003017     0.000300     NO 
 Maximum Displacement     0.229849     0.001800     NO 
 RMS     Displacement     0.053856     0.001200     NO 
 Predicted change in Energy=-1.744880D-03
 Lowest energy point so far.  Saving SCF results.
 GradGradGradGradGradGradGradGradGradGradGradGradGradGradGradGradGradGrad

 Leave Link  103 at Thu Oct 17 18:23:23 2019, MaxMem=   280000000 cpu:               1.7 elap:               0.1
 (Enter /home/soft/g16/l202.exe)
                          Input orientation:                          
 ---------------------------------------------------------------------
 Center     Atomic      Atomic             Coordinates (Angstroms)
 Number     Number       Type             X           Y           Z
 ---------------------------------------------------------------------
      1          6           0        3.628521   -0.103464    0.000074
      2          1           0        3.608940   -1.172905    0.000489
      3          1           0        3.606746    0.430857    0.926412
      4          1           0        3.606948    0.431200   -0.926026
      5         17           0        1.202380   -0.106175   -0.000466
      6         35           0        6.139687   -0.099575   -0.000486
 ---------------------------------------------------------------------
                    Distance matrix (angstroms):
                    1          2          3          4          5
     1  C    0.000000
     2  H    1.069620   0.000000
     3  H    1.069614   1.851861   0.000000
     4  H    1.069576   1.852454   1.852438   0.000000
     5  Cl   2.426143   2.632384   2.632201   2.631992   0.000000
     6  Br   2.511168   2.748949   2.748871   2.748293   4.937312
                    6
     6  Br   0.000000
 Stoichiometry    CH3BrCl(1-)
 Framework group  C1[X(CH3BrCl)]
 Deg. of freedom    12
 Full point group                 C1      NOp   1
 RotChk:  IX=2 Diff= 1.61D+00
 Largest Abelian subgroup         C1      NOp   1
 Largest concise Abelian subgroup C1      NOp   1
                         Standard orientation:                         
 ---------------------------------------------------------------------
 Center     Atomic      Atomic             Coordinates (Angstroms)
 Number     Number       Type             X           Y           Z
 ---------------------------------------------------------------------
      1          6           0        0.763664   -0.000607    0.000147
      2          1           0        0.784691   -0.547727    0.919008
      3          1           0        0.784737   -0.523518   -0.932695
      4          1           0        0.784497    1.068675    0.014114
      5         17           0        3.189808    0.000189   -0.000039
      6         35           0       -1.747504    0.000086   -0.000019
 ---------------------------------------------------------------------
 Rotational constants (GHZ):         146.1609263           0.8343941           0.8343921
 Leave Link  202 at Thu Oct 17 18:23:23 2019, MaxMem=   280000000 cpu:               0.5 elap:               0.0
 (Enter /home/soft/g16/l301.exe)
 Standard basis: def2TZVP (5D, 7F)
 Ernie: Thresh=  0.10000D-02 Tol=  0.10000D-05 Strict=F.
 There are   151 symmetry adapted cartesian basis functions of A   symmetry.
 There are   134 symmetry adapted basis functions of A   symmetry.
   134 basis functions,   258 primitive gaussians,   151 cartesian basis functions
    31 alpha electrons       31 beta electrons
       nuclear repulsion energy       170.5024814759 Hartrees.
 IExCor=  402 DFT=T Ex+Corr=B3LYP ExCW=0 ScaHFX=  0.200000
 ScaDFX=  0.800000  0.720000  1.000000  0.810000 ScalE2=  1.000000  1.000000
 IRadAn=      5 IRanWt=     -1 IRanGd=            0 ICorTp=0 IEmpDi=141
 NAtoms=    6 NActive=    6 NUniq=    6 SFac= 1.00D+00 NAtFMM=   60 NAOKFM=F Big=F
 Integral buffers will be    131072 words long.
 Raffenetti 2 integral format.
 Two-electron integral symmetry is turned on.
 R6Disp:  Grimme-D3(BJ) Dispersion energy=       -0.0069184928 Hartrees.
 Nuclear repulsion after empirical dispersion term =      170.4955629831 Hartrees.
 Leave Link  301 at Thu Oct 17 18:23:23 2019, MaxMem=   280000000 cpu:               1.6 elap:               0.1
 (Enter /home/soft/g16/l302.exe)
 NPDir=0 NMtPBC=     1 NCelOv=     1 NCel=       1 NClECP=     1 NCelD=      1
         NCelK=      1 NCelE2=     1 NClLst=     1 CellRange=     0.0.
 One-electron integrals computed using PRISM.
 One-electron integral symmetry used in STVInt
   1 Symmetry operations used in ECPInt.
 ECPInt:  NShTT=    1378 NPrTT=    5593 LenC2=    1322 LenP2D=    4247.
 LDataN:  DoStor=T MaxTD1= 6 Len=  172
 NBasis=   134 RedAO= T EigKep=  1.45D-03  NBF=   134
 NBsUse=   134 1.00D-06 EigRej= -1.00D+00 NBFU=   134
 Precomputing XC quadrature grid using
 IXCGrd= 4 IRadAn=           5 IRanWt=          -1 IRanGd=           0 AccXCQ= 0.00D+00.
 Generated NRdTot=       0 NPtTot=           0 NUsed=           0 NTot=          32
 NSgBfM=   150   150   150   150   150 MxSgAt=     6 MxSgA2=     6.
 Leave Link  302 at Thu Oct 17 18:23:23 2019, MaxMem=   280000000 cpu:               3.3 elap:               0.2
 (Enter /home/soft/g16/l303.exe)
 DipDrv:  MaxL=1.
 Leave Link  303 at Thu Oct 17 18:23:23 2019, MaxMem=   280000000 cpu:               1.0 elap:               0.1
 (Enter /home/soft/g16/l401.exe)
 Initial guess from the checkpoint file:  "ts_maugccpvtz.chk"
 B after Tr=     0.000000   -0.000000    0.000000
         Rot=    0.821020   -0.014706   -0.510754    0.254637 Ang= -69.63 deg.
 Guess basis will be translated and rotated to current coordinates.
 JPrj=2 DoOrth=T DoCkMO=T.
 Generating alternative initial guess.
 ExpMin= 9.52D-02 ExpMax= 5.65D+05 ExpMxC= 5.46D+03 IAcc=2 IRadAn=         4 AccDes= 0.00D+00
 Harris functional with IExCor=  402 and IRadAn=       4 diagonalized for initial guess.
 HarFok:  IExCor=  402 AccDes= 0.00D+00 IRadAn=         4 IDoV= 1 UseB2=F ITyADJ=14
 ICtDFT=  3500011 ScaDFX=  1.000000  1.000000  1.000000  1.000000
 FoFCou: FMM=F IPFlag=           0 FMFlag=      100000 FMFlg1=           0
         NFxFlg=           0 DoJE=T BraDBF=F KetDBF=T FulRan=T
         wScrn=  0.000000 ICntrl=       500 IOpCl=  0 I1Cent=   200000004 NGrid=           0
         NMat0=    1 NMatS0=      1 NMatT0=    0 NMatD0=    1 NMtDS0=    0 NMtDT0=    0
 Petite list used in FoFCou.
 Harris En= -3074.57131322773    
 Leave Link  401 at Thu Oct 17 18:23:24 2019, MaxMem=   280000000 cpu:               6.1 elap:               0.3
 (Enter /home/soft/g16/l502.exe)
 Keep R1 ints in memory in canonical form, NReq=64315121.
 FoFCou: FMM=F IPFlag=           0 FMFlag=           0 FMFlg1=           0
         NFxFlg=           0 DoJE=F BraDBF=F KetDBF=F FulRan=T
         wScrn=  0.000000 ICntrl=       600 IOpCl=  0 I1Cent=           0 NGrid=           0
         NMat0=    1 NMatS0=   9045 NMatT0=    0 NMatD0=    1 NMtDS0=    0 NMtDT0=    0
 Symmetry not used in FoFCou.
 Two-electron integral symmetry not used.
 Closed shell SCF:
 Using DIIS extrapolation, IDIIS=  1040.
 NGot=   280000000 LenX=   239038777 LenY=   239015535
 Requested convergence on RMS density matrix=1.00D-08 within 128 cycles.
 Requested convergence on MAX density matrix=1.00D-06.
 Requested convergence on             energy=1.00D-06.
 No special actions if energy rises.
 Integral accuracy reduced to 1.0D-05 until final iterations.

 Cycle   1  Pass 0  IDiag  1:
 E= -3074.42476334538    
 DIIS: error= 2.09D-03 at cycle   1 NSaved=   1.
 NSaved= 1 IEnMin= 1 EnMin= -3074.42476334538     IErMin= 1 ErrMin= 2.09D-03
 ErrMax= 2.09D-03  0.00D+00 EMaxC= 1.00D-01 BMatC= 9.62D-04 BMatP= 9.62D-04
 IDIUse=3 WtCom= 9.79D-01 WtEn= 2.09D-02
 Coeff-Com:  0.100D+01
 Coeff-En:   0.100D+01
 Coeff:      0.100D+01
 Gap=     0.631 Goal=   None    Shift=    0.000
 GapD=    0.631 DampG=2.000 DampE=1.000 DampFc=2.0000 IDamp=-1.
 RMSDP=3.62D-04 MaxDP=7.56D-03              OVMax= 3.41D-02

 Cycle   2  Pass 0  IDiag  1:
 E= -3074.42570779024     Delta-E=       -0.000944444859 Rises=F Damp=F
 DIIS: error= 7.49D-04 at cycle   2 NSaved=   2.
 NSaved= 2 IEnMin= 2 EnMin= -3074.42570779024     IErMin= 2 ErrMin= 7.49D-04
 ErrMax= 7.49D-04  0.00D+00 EMaxC= 1.00D-01 BMatC= 7.43D-05 BMatP= 9.62D-04
 IDIUse=3 WtCom= 9.93D-01 WtEn= 7.49D-03
 Coeff-Com:  0.583D-01 0.942D+00
 Coeff-En:   0.000D+00 0.100D+01
 Coeff:      0.578D-01 0.942D+00
 Gap=     0.189 Goal=   None    Shift=    0.000
 RMSDP=2.19D-04 MaxDP=5.13D-03 DE=-9.44D-04 OVMax= 1.86D-02

 Cycle   3  Pass 0  IDiag  1:
 E= -3074.42560011065     Delta-E=        0.000107679593 Rises=F Damp=F
 DIIS: error= 1.08D-03 at cycle   3 NSaved=   3.
 NSaved= 3 IEnMin= 2 EnMin= -3074.42570779024     IErMin= 2 ErrMin= 7.49D-04
 ErrMax= 1.08D-03  0.00D+00 EMaxC= 1.00D-01 BMatC= 1.81D-04 BMatP= 7.43D-05
 IDIUse=3 WtCom= 2.34D-01 WtEn= 7.66D-01
 Coeff-Com: -0.874D-02 0.620D+00 0.389D+00
 Coeff-En:   0.000D+00 0.634D+00 0.366D+00
 Coeff:     -0.204D-02 0.630D+00 0.372D+00
 Gap=     0.188 Goal=   None    Shift=    0.000
 RMSDP=1.10D-04 MaxDP=2.73D-03 DE= 1.08D-04 OVMax= 1.02D-02

 Cycle   4  Pass 0  IDiag  1:
 E= -3074.42582882095     Delta-E=       -0.000228710298 Rises=F Damp=F
 DIIS: error= 1.48D-04 at cycle   4 NSaved=   4.
 NSaved= 4 IEnMin= 4 EnMin= -3074.42582882095     IErMin= 4 ErrMin= 1.48D-04
 ErrMax= 1.48D-04  0.00D+00 EMaxC= 1.00D-01 BMatC= 1.52D-06 BMatP= 7.43D-05
 IDIUse=3 WtCom= 9.99D-01 WtEn= 1.48D-03
 Coeff-Com: -0.652D-02 0.193D+00 0.770D-01 0.737D+00
 Coeff-En:   0.000D+00 0.000D+00 0.000D+00 0.100D+01
 Coeff:     -0.651D-02 0.192D+00 0.769D-01 0.737D+00
 Gap=     0.188 Goal=   None    Shift=    0.000
 RMSDP=1.28D-05 MaxDP=2.90D-04 DE=-2.29D-04 OVMax= 1.33D-03

 Cycle   5  Pass 0  IDiag  1:
 E= -3074.42583124198     Delta-E=       -0.000002421030 Rises=F Damp=F
 DIIS: error= 3.17D-05 at cycle   5 NSaved=   5.
 NSaved= 5 IEnMin= 5 EnMin= -3074.42583124198     IErMin= 5 ErrMin= 3.17D-05
 ErrMax= 3.17D-05  0.00D+00 EMaxC= 1.00D-01 BMatC= 7.11D-08 BMatP= 1.52D-06
 IDIUse=1 WtCom= 1.00D+00 WtEn= 0.00D+00
 Coeff-Com: -0.107D-02 0.101D-01 0.455D-03 0.192D+00 0.799D+00
 Coeff:     -0.107D-02 0.101D-01 0.455D-03 0.192D+00 0.799D+00
 Gap=     0.188 Goal=   None    Shift=    0.000
 RMSDP=2.23D-06 MaxDP=3.39D-05 DE=-2.42D-06 OVMax= 1.15D-04

 Initial convergence to 1.0D-05 achieved.  Increase integral accuracy.
 Cycle   6  Pass 1  IDiag  1:
 E= -3074.42580697305     Delta-E=        0.000024268927 Rises=F Damp=F
 DIIS: error= 2.16D-05 at cycle   1 NSaved=   1.
 NSaved= 1 IEnMin= 1 EnMin= -3074.42580697305     IErMin= 1 ErrMin= 2.16D-05
 ErrMax= 2.16D-05  0.00D+00 EMaxC= 1.00D-01 BMatC= 6.28D-08 BMatP= 6.28D-08
 IDIUse=1 WtCom= 1.00D+00 WtEn= 0.00D+00
 Coeff-Com:  0.100D+01
 Coeff:      0.100D+01
 Gap=     0.188 Goal=   None    Shift=    0.000
 RMSDP=2.23D-06 MaxDP=3.39D-05 DE= 2.43D-05 OVMax= 2.05D-04

 Cycle   7  Pass 1  IDiag  1:
 E= -3074.42580696637     Delta-E=        0.000000006684 Rises=F Damp=F
 DIIS: error= 1.85D-05 at cycle   2 NSaved=   2.
 NSaved= 2 IEnMin= 1 EnMin= -3074.42580697305     IErMin= 2 ErrMin= 1.85D-05
 ErrMax= 1.85D-05  0.00D+00 EMaxC= 1.00D-01 BMatC= 6.26D-08 BMatP= 6.28D-08
 IDIUse=1 WtCom= 1.00D+00 WtEn= 0.00D+00
 Coeff-Com:  0.500D+00 0.500D+00
 Coeff:      0.500D+00 0.500D+00
 Gap=     0.188 Goal=   None    Shift=    0.000
 RMSDP=2.32D-06 MaxDP=7.16D-05 DE= 6.68D-09 OVMax= 1.70D-04

 Cycle   8  Pass 1  IDiag  1:
 E= -3074.42580702974     Delta-E=       -0.000000063372 Rises=F Damp=F
 DIIS: error= 7.84D-06 at cycle   3 NSaved=   3.
 NSaved= 3 IEnMin= 3 EnMin= -3074.42580702974     IErMin= 3 ErrMin= 7.84D-06
 ErrMax= 7.84D-06  0.00D+00 EMaxC= 1.00D-01 BMatC= 1.05D-08 BMatP= 6.26D-08
 IDIUse=1 WtCom= 1.00D+00 WtEn= 0.00D+00
 Coeff-Com:  0.207D-01 0.288D+00 0.691D+00
 Coeff:      0.207D-01 0.288D+00 0.691D+00
 Gap=     0.188 Goal=   None    Shift=    0.000
 RMSDP=6.18D-07 MaxDP=2.04D-05 DE=-6.34D-08 OVMax= 5.57D-05

 Cycle   9  Pass 1  IDiag  1:
 E= -3074.42580704084     Delta-E=       -0.000000011100 Rises=F Damp=F
 DIIS: error= 1.71D-06 at cycle   4 NSaved=   4.
 NSaved= 4 IEnMin= 4 EnMin= -3074.42580704084     IErMin= 4 ErrMin= 1.71D-06
 ErrMax= 1.71D-06  0.00D+00 EMaxC= 1.00D-01 BMatC= 4.12D-10 BMatP= 1.05D-08
 IDIUse=1 WtCom= 1.00D+00 WtEn= 0.00D+00
 Coeff-Com: -0.544D-02 0.135D+00 0.338D+00 0.532D+00
 Coeff:     -0.544D-02 0.135D+00 0.338D+00 0.532D+00
 Gap=     0.188 Goal=   None    Shift=    0.000
 RMSDP=1.74D-07 MaxDP=5.90D-06 DE=-1.11D-08 OVMax= 1.05D-05

 Cycle  10  Pass 1  IDiag  1:
 E= -3074.42580704120     Delta-E=       -0.000000000365 Rises=F Damp=F
 DIIS: error= 5.65D-07 at cycle   5 NSaved=   5.
 NSaved= 5 IEnMin= 5 EnMin= -3074.42580704120     IErMin= 5 ErrMin= 5.65D-07
 ErrMax= 5.65D-07  0.00D+00 EMaxC= 1.00D-01 BMatC= 4.62D-11 BMatP= 4.12D-10
 IDIUse=1 WtCom= 1.00D+00 WtEn= 0.00D+00
 Coeff-Com: -0.469D-02 0.535D-01 0.130D+00 0.290D+00 0.532D+00
 Coeff:     -0.469D-02 0.535D-01 0.130D+00 0.290D+00 0.532D+00
 Gap=     0.188 Goal=   None    Shift=    0.000
 RMSDP=4.83D-08 MaxDP=1.16D-06 DE=-3.65D-10 OVMax= 3.49D-06

 Cycle  11  Pass 1  IDiag  1:
 E= -3074.42580704124     Delta-E=       -0.000000000039 Rises=F Damp=F
 DIIS: error= 1.32D-07 at cycle   6 NSaved=   6.
 NSaved= 6 IEnMin= 6 EnMin= -3074.42580704124     IErMin= 6 ErrMin= 1.32D-07
 ErrMax= 1.32D-07  0.00D+00 EMaxC= 1.00D-01 BMatC= 2.25D-12 BMatP= 4.62D-11
 IDIUse=1 WtCom= 1.00D+00 WtEn= 0.00D+00
 Coeff-Com: -0.134D-02 0.104D-01 0.228D-01 0.782D-01 0.242D+00 0.648D+00
 Coeff:     -0.134D-02 0.104D-01 0.228D-01 0.782D-01 0.242D+00 0.648D+00
 Gap=     0.188 Goal=   None    Shift=    0.000
 RMSDP=1.35D-08 MaxDP=3.71D-07 DE=-3.91D-11 OVMax= 1.20D-06

 Cycle  12  Pass 1  IDiag  1:
 E= -3074.42580704125     Delta-E=       -0.000000000004 Rises=F Damp=F
 DIIS: error= 2.63D-08 at cycle   7 NSaved=   7.
 NSaved= 7 IEnMin= 7 EnMin= -3074.42580704125     IErMin= 7 ErrMin= 2.63D-08
 ErrMax= 2.63D-08  0.00D+00 EMaxC= 1.00D-01 BMatC= 7.99D-14 BMatP= 2.25D-12
 IDIUse=1 WtCom= 1.00D+00 WtEn= 0.00D+00
 Coeff-Com: -0.296D-03 0.180D-02 0.416D-02 0.186D-01 0.605D-01 0.252D+00
 Coeff-Com:  0.664D+00
 Coeff:     -0.296D-03 0.180D-02 0.416D-02 0.186D-01 0.605D-01 0.252D+00
 Coeff:      0.664D+00
 Gap=     0.188 Goal=   None    Shift=    0.000
 RMSDP=3.04D-09 MaxDP=7.41D-08 DE=-3.64D-12 OVMax= 2.87D-07

 SCF Done:  E(RB3LYP) =  -3074.42580704     A.U. after   12 cycles
            NFock= 12  Conv=0.30D-08     -V/T= 2.0015
 KE= 3.069778842031D+03 PE=-7.694014256786D+03 EE= 1.379314044731D+03
 Leave Link  502 at Thu Oct 17 18:23:26 2019, MaxMem=   280000000 cpu:              39.4 elap:               2.3
 (Enter /home/soft/g16/l801.exe)
 DoSCS=F DFT=T ScalE2(SS,OS)=  1.000000  1.000000
 Range of M.O.s used for correlation:     1   134
 NBasis=   134 NAE=    31 NBE=    31 NFC=     0 NFV=     0
 NROrb=    134 NOA=    31 NOB=    31 NVA=   103 NVB=   103
 Leave Link  801 at Thu Oct 17 18:23:26 2019, MaxMem=   280000000 cpu:               0.5 elap:               0.0
 (Enter /home/soft/g16/l1101.exe)
 Using compressed storage, NAtomX=     6.
 Will process      7 centers per pass.
   1 Symmetry operations used in ECPInt.
 ECPInt:  NShTT=    1378 NPrTT=    5593 LenC2=    1322 LenP2D=    4247.
 LDataN:  DoStor=T MaxTD1= 7 Len=  274
 R6Disp: Adding Grimme-D3(BJ) dispersion energy 1st derivatives to the gradient.
 Leave Link 1101 at Thu Oct 17 18:23:26 2019, MaxMem=   280000000 cpu:               4.5 elap:               0.2
 (Enter /home/soft/g16/l1102.exe)
 Symmetrizing basis deriv contribution to polar:
 IMax=3 JMax=2 DiffMx= 0.00D+00
 Leave Link 1102 at Thu Oct 17 18:23:26 2019, MaxMem=   280000000 cpu:               1.3 elap:               0.1
 (Enter /home/soft/g16/l1110.exe)
 Forming Gx(P) for the SCF density, NAtomX=     6.
 Integral derivatives from FoFJK, PRISM(SPDF).
 Do as many integral derivatives as possible in FoFJK.
 G2DrvN: MDV=     279999420.
 G2DrvN: will do     7 centers at a time, making    1 passes.
 Calling FoFCou, ICntrl=  3107 FMM=F I1Cent=   0 AccDes= 0.00D+00.
 FoFJK:  IHMeth= 1 ICntrl=    3107 DoSepK=F KAlg= 0 I1Cent=           0 FoldK=F
 IRaf=         0 NMat=       1 IRICut=       1 DoRegI=T DoRafI=F ISym2E= 0 IDoP0=0 IntGTp=1.
 FoFCou: FMM=F IPFlag=           0 FMFlag=      100000 FMFlg1=           0
         NFxFlg=           0 DoJE=F BraDBF=F KetDBF=F FulRan=T
         wScrn=  0.000000 ICntrl=      3107 IOpCl=  0 I1Cent=           0 NGrid=           0
         NMat0=    1 NMatS0=      1 NMatT0=    0 NMatD0=    1 NMtDS0=    0 NMtDT0=    0
 Symmetry not used in FoFCou.
 End of G2Drv F.D. properties file   721 does not exist.
 End of G2Drv F.D. properties file   722 does not exist.
 End of G2Drv F.D. properties file   788 does not exist.
 Leave Link 1110 at Thu Oct 17 18:23:28 2019, MaxMem=   280000000 cpu:              54.2 elap:               2.3
 (Enter /home/soft/g16/l1002.exe)
 Minotr:  Closed shell wavefunction.
          IDoAtm=111111
          Direct CPHF calculation.
          Differentiating once with respect to electric field.
                with respect to dipole field.
          Differentiating once with respect to nuclear coordinates.
          Requested convergence is 1.0D-08 RMS, and 1.0D-07 maximum.
          Secondary convergence is 1.0D-12 RMS, and 1.0D-12 maximum.
          NewPWx=T KeepS1=F KeepF1=F KeepIn=T MapXYZ=F SortEE=F KeepMc=T.
         1761 words used for storage of precomputed grid.
 Keep R1 ints in memory in canonical form, NReq=64236638.
 FoFCou: FMM=F IPFlag=           0 FMFlag=           0 FMFlg1=           0
         NFxFlg=           0 DoJE=F BraDBF=F KetDBF=F FulRan=T
         wScrn=  0.000000 ICntrl=       600 IOpCl=  0 I1Cent=           0 NGrid=           0
         NMat0=    1 NMatS0=   9045 NMatT0=    0 NMatD0=    1 NMtDS0=    0 NMtDT0=    0
 Symmetry not used in FoFCou.
 Two-electron integral symmetry not used.
          MDV=     280000000 using IRadAn=       1.
          Solving linear equations simultaneously, MaxMat=       0.
          There are    21 degrees of freedom in the 1st order CPHF.  IDoFFX=6 NUNeed=     3.
     18 vectors produced by pass  0 Test12= 1.52D-14 4.76D-09 XBig12= 2.56D+02 1.55D+01.
 AX will form    18 AO Fock derivatives at one time.
     18 vectors produced by pass  1 Test12= 1.52D-14 4.76D-09 XBig12= 4.31D+01 2.53D+00.
     18 vectors produced by pass  2 Test12= 1.52D-14 4.76D-09 XBig12= 2.57D+00 4.87D-01.
     18 vectors produced by pass  3 Test12= 1.52D-14 4.76D-09 XBig12= 5.32D-02 4.43D-02.
     18 vectors produced by pass  4 Test12= 1.52D-14 4.76D-09 XBig12= 1.22D-03 1.13D-02.
     17 vectors produced by pass  5 Test12= 1.52D-14 4.76D-09 XBig12= 6.98D-06 7.16D-04.
      7 vectors produced by pass  6 Test12= 1.52D-14 4.76D-09 XBig12= 9.18D-09 2.49D-05.
      1 vectors produced by pass  7 Test12= 1.52D-14 4.76D-09 XBig12= 1.34D-11 8.16D-07.
      1 vectors produced by pass  8 Test12= 1.52D-14 4.76D-09 XBig12= 3.83D-14 5.96D-08.
 InvSVY:  IOpt=1 It=  1 EMax= 8.88D-15
 Solved reduced A of dimension   116 with    21 vectors.
 FullF1:  Do perturbations      1 to       3.
 Isotropic polarizability for W=    0.000000       72.03 Bohr**3.
 End of Minotr F.D. properties file   721 does not exist.
 End of Minotr F.D. properties file   722 does not exist.
 End of Minotr F.D. properties file   788 does not exist.
 Leave Link 1002 at Thu Oct 17 18:23:32 2019, MaxMem=   280000000 cpu:              75.4 elap:               3.3
 (Enter /home/soft/g16/l701.exe)
 ... and contract with generalized density number  0.
 Compute integral second derivatives.
 R6Disp: Adding Grimme-D3(BJ) dispersion energy 2nd derivatives to the Hessian.
   1 Symmetry operations used in ECPInt.
 ECPInt:  NShTT=    1378 NPrTT=    5593 LenC2=    1322 LenP2D=    4247.
 LDataN:  DoStor=T MaxTD1= 8 Len=  415
 Leave Link  701 at Thu Oct 17 18:23:32 2019, MaxMem=   280000000 cpu:               6.9 elap:               0.3
 (Enter /home/soft/g16/l702.exe)
 L702 exits ... SP integral derivatives will be done elsewhere.
 Leave Link  702 at Thu Oct 17 18:23:32 2019, MaxMem=   280000000 cpu:               0.5 elap:               0.0
 (Enter /home/soft/g16/l703.exe)
 Integral derivatives from FoFJK, PRISM(SPDF).
 Compute integral second derivatives, UseDBF=F ICtDFT=           0.
 Calling FoFJK, ICntrl=    100127 FMM=F ISym2X=0 I1Cent= 0 IOpClX= 0 NMat=1 NMatS=1 NMatT=0.
 FoFJK:  IHMeth= 1 ICntrl=  100127 DoSepK=F KAlg= 0 I1Cent=           0 FoldK=F
 IRaf=         0 NMat=       1 IRICut=       1 DoRegI=T DoRafI=F ISym2E= 0 IDoP0=0 IntGTp=1.
 FoFCou: FMM=F IPFlag=           0 FMFlag=      100000 FMFlg1=         800
         NFxFlg=           0 DoJE=F BraDBF=F KetDBF=F FulRan=T
         wScrn=  0.000000 ICntrl=    100127 IOpCl=  0 I1Cent=           0 NGrid=           0
         NMat0=    1 NMatS0=      1 NMatT0=    0 NMatD0=    1 NMtDS0=    0 NMtDT0=    0
 Symmetry not used in FoFCou.
 Leave Link  703 at Thu Oct 17 18:23:38 2019, MaxMem=   280000000 cpu:             131.8 elap:               5.5
 (Enter /home/soft/g16/l716.exe)
 Dipole        =-1.33978313D+00-6.39053444D-04 1.21125085D-04
 Polarizability= 1.37854184D+02 1.62881340D-05 3.91223207D+01
                -1.77683444D-04 2.93938299D-05 3.91221937D+01
 ***** Axes restored to original set *****
 -------------------------------------------------------------------
 Center     Atomic                   Forces (Hartrees/Bohr)
 Number     Number              X              Y              Z
 -------------------------------------------------------------------
      1        6          -0.004220826   -0.000037406    0.000064944
      2        1           0.000627634   -0.000286706   -0.000057557
      3        1           0.000629735    0.000194144    0.000222438
      4        1           0.000616728    0.000147335   -0.000256179
      5       17           0.004985208   -0.000002808    0.000010446
      6       35          -0.002638479   -0.000014558    0.000015908
 -------------------------------------------------------------------
 Cartesian Forces:  Max     0.004985208 RMS     0.001684345
 Force constants in Cartesian coordinates: 
                1             2             3             4             5 
      1 -0.316019D-01
      2 -0.931011D-03  0.679867D+00
      3 -0.603882D-04 -0.241045D-03  0.680156D+00
      4 -0.917589D-02 -0.671051D-02  0.274231D-05  0.297438D-01
      5 -0.559546D-02 -0.383919D+00  0.110142D-03  0.582860D-02  0.392146D+00
      6  0.281937D-05  0.129085D-03 -0.545946D-01  0.000000D+00 -0.875403D-04
      7 -0.919203D-02  0.378214D-02  0.645030D-02  0.285664D-02 -0.360945D-03
      8  0.322502D-02 -0.136813D+00 -0.142525D+00  0.580628D-03 -0.656681D-02
      9  0.548437D-02 -0.142544D+00 -0.301686D+00  0.985807D-04  0.387874D-02
     10 -0.912492D-02  0.375173D-02 -0.639303D-02  0.284282D-02 -0.360525D-03
     11  0.319659D-02 -0.136938D+00  0.142652D+00  0.578136D-03 -0.652712D-02
     12 -0.543023D-02  0.142653D+00 -0.301673D+00 -0.986127D-04 -0.388950D-02
     13  0.307904D-01  0.503308D-04  0.586470D-05 -0.132445D-01 -0.199957D-02
     14  0.441461D-04 -0.112878D-01  0.164013D-05  0.569145D-02  0.238278D-02
     15  0.792827D-05  0.157461D-05 -0.112907D-01 -0.186741D-05 -0.731673D-05
     16  0.283043D-01  0.573155D-04 -0.548670D-05 -0.130229D-01  0.248790D-02
     17  0.607085D-04 -0.109095D-01  0.140028D-05 -0.596830D-02  0.248361D-02
     18 -0.450125D-05  0.000000D+00 -0.109120D-01  0.000000D+00 -0.452489D-05
                6             7             8             9            10 
      6  0.454225D-01
      7 -0.408006D-03  0.297740D-01
      8 -0.235488D-01 -0.330044D-02  0.132023D+00
      9  0.479039D-02 -0.568087D-02  0.150086D+00  0.305542D+00
     10  0.407015D-03  0.284272D-02 -0.203326D-03  0.561173D-03  0.297626D-01
     11  0.235171D-01 -0.203233D-03  0.104681D-01 -0.137006D-01 -0.326950D-02
     12  0.480213D-02 -0.560288D-03  0.137031D-01 -0.121941D-01  0.562569D-02
     13 -0.250785D-05 -0.132455D-01  0.971860D-03  0.171077D-02 -0.132640D-01
     14 -0.553325D-05 -0.287234D-02  0.422961D-03  0.111965D-02 -0.286986D-02
     15 -0.215529D-03 -0.494992D-02  0.111302D-02  0.173286D-02  0.494385D-02
     16  0.130596D-05 -0.130358D-01 -0.127374D-02 -0.217402D-02 -0.130592D-01
     17 -0.424867D-05  0.295481D-02  0.464964D-03  0.116016D-02  0.295148D-02
     18 -0.204861D-03  0.514879D-02  0.117123D-02  0.181569D-02 -0.514470D-02
               11            12            13            14            15 
     11  0.132077D+00
     12 -0.150184D+00  0.305511D+00
     13  0.976865D-03 -0.172055D-02  0.266392D-01
     14  0.434914D-03 -0.112271D-02  0.292837D-04  0.647249D-02
     15 -0.111422D-02  0.172840D-02  0.277257D-05  0.721773D-05  0.646969D-02
     16 -0.127886D-02  0.218398D-02 -0.176755D-01 -0.226777D-04 -0.276457D-05
     17  0.485768D-03 -0.116078D-02 -0.287744D-04  0.157470D-02  0.000000D+00
     18 -0.117113D-02  0.182564D-02  0.364349D-05  0.000000D+00  0.157526D-02
               16            17            18 
     16  0.284892D-01
     17  0.300735D-04  0.590044D-02
     18 -0.301857D-05  0.374874D-05  0.590030D-02
 FormGI is forming the generalized inverse of G from B-inverse, IUseBI=4.
 Force constants in internal coordinates: 
                1             2             3             4             5 
      1  0.392238D+00
      2 -0.948491D-04  0.392258D+00
      3 -0.115065D-03 -0.114674D-03  0.392330D+00
      4 -0.223892D-02 -0.223862D-02 -0.224652D-02  0.266392D-01
      5 -0.225275D-02 -0.225234D-02 -0.226459D-02  0.176756D-01  0.284892D-01
      6  0.171618D-02  0.171710D-02 -0.340260D-02  0.167382D-03 -0.168018D-03
      7  0.171141D-02 -0.340474D-02  0.171665D-02  0.369496D-03 -0.365144D-03
      8 -0.305879D-02  0.168987D-02  0.174187D-02  0.443894D-02 -0.440325D-02
      9 -0.341275D-02  0.152739D-02  0.150503D-02 -0.444567D-02  0.439865D-02
     10 -0.340445D-02  0.171080D-02  0.171707D-02  0.370201D-03 -0.365410D-03
     11  0.169185D-02 -0.305438D-02  0.173974D-02  0.445254D-02 -0.440564D-02
     12  0.152899D-02 -0.340956D-02  0.150303D-02 -0.444830D-02  0.440784D-02
     13  0.170608D-02  0.170460D-02 -0.302047D-02  0.446769D-02 -0.442499D-02
     14  0.154122D-02  0.153935D-02 -0.346311D-02 -0.446514D-02  0.442732D-02
     15 -0.647154D-02  0.321726D-02  0.324690D-02 -0.672949D-05 -0.459885D-05
     16  0.110699D-04  0.560631D-02 -0.561277D-02  0.000000D+00  0.000000D+00
     17  0.460144D-03  0.460710D-03  0.394972D-03  0.154067D-01 -0.152623D-01
     18  0.176391D-02  0.176425D-02 -0.352279D-02 -0.132832D-03  0.129406D-03
     19 -0.165302D-02 -0.165378D-02  0.330209D-02  0.137557D-03 -0.133921D-03
     20 -0.175924D-02  0.352275D-02 -0.176092D-02 -0.670001D-04  0.653086D-04
     21  0.165031D-02 -0.330353D-02  0.165075D-02  0.681667D-04 -0.666810D-04
     22 -0.352315D-02  0.175850D-02  0.176187D-02  0.658315D-04 -0.640975D-04
     23  0.330333D-02 -0.164975D-02 -0.165134D-02 -0.693907D-04  0.672400D-04
                6             7             8             9            10 
      6  0.689932D-02
      7 -0.345157D-02  0.691359D-02
      8  0.231812D-03  0.399604D-03  0.251101D-01
      9 -0.349891D-03 -0.510055D-03 -0.134991D-01  0.265269D-01
     10 -0.345166D-02 -0.343214D-02 -0.357834D-03  0.586592D-03  0.691370D-02
     11  0.230827D-03 -0.356913D-03 -0.105413D-01  0.473543D-02  0.399785D-03
     12 -0.350107D-03  0.586966D-03  0.473625D-02 -0.112536D-01 -0.510281D-03
     13 -0.521226D-03  0.397245D-03 -0.105318D-01  0.473385D-02  0.399480D-03
     14  0.754841D-03 -0.515745D-03  0.472966D-02 -0.112394D-01 -0.515089D-03
     15 -0.118080D-03 -0.110451D-03  0.116110D-01  0.130279D-01  0.228758D-03
     16  0.201023D-03 -0.199526D-03  0.866122D-05  0.146523D-04 -0.193244D-05
     17  0.204096D-03  0.371882D-03  0.465388D-02 -0.465464D-02  0.372346D-03
     18  0.688894D-02 -0.345568D-02 -0.262015D-03 -0.531683D-04 -0.345566D-02
     19 -0.688072D-02  0.345162D-02  0.681697D-04 -0.172877D-03  0.345177D-02
     20  0.344447D-02 -0.689182D-02  0.995957D-04  0.210469D-03  0.343611D-02
     21 -0.344029D-02  0.688414D-02  0.106525D-03  0.000000D+00 -0.343255D-02
     22 -0.344447D-02 -0.343614D-02  0.361610D-03  0.263638D-03  0.689178D-02
     23  0.344043D-02  0.343253D-02  0.383554D-04  0.172754D-03 -0.688432D-02
               11            12            13            14            15 
     11  0.251167D-01
     12 -0.135016D-01  0.265311D-01
     13 -0.105362D-01  0.473432D-02  0.251096D-01
     14  0.473108D-02 -0.112421D-01 -0.135174D-01  0.265294D-01
     15 -0.580584D-02 -0.651731D-02 -0.579794D-02 -0.650972D-02  0.246389D-01
     16 -0.100618D-01 -0.112846D-01  0.100399D-01  0.112688D-01  0.233135D-04
     17  0.465584D-02 -0.465579D-02  0.465689D-02 -0.465612D-02  0.000000D+00
     18 -0.259444D-03 -0.552577D-04  0.190025D-03  0.435845D-03 -0.315183D-03
     19  0.700884D-04 -0.174500D-03  0.196869D-03  0.157018D-04 -0.104707D-03
     20 -0.359351D-03 -0.265463D-03  0.941120D-04  0.219402D-03  0.310065D-03
     21 -0.367686D-04 -0.174005D-03  0.968049D-04  0.851218D-05  0.106403D-03
     22 -0.999067D-04 -0.210205D-03 -0.959134D-04 -0.216442D-03  0.625248D-03
     23 -0.106857D-03  0.000000D+00 -0.100064D-03 -0.718961D-05  0.211110D-03
               16            17            18            19            20 
     16  0.246289D-01
     17  0.000000D+00  0.161083D-01
     18  0.540223D-03 -0.110218D-03  0.691179D-02
     19  0.185640D-03  0.115100D-03 -0.689062D-02  0.689803D-02
     20  0.540181D-03 -0.556456D-04  0.345584D-02 -0.344528D-02  0.690371D-02
     21  0.184359D-03  0.570199D-04 -0.344527D-02  0.344897D-02 -0.688253D-02
     22  0.000000D+00  0.545719D-04 -0.345595D-02  0.344535D-02  0.344787D-02
     23 -0.128068D-05 -0.580796D-04  0.344535D-02 -0.344907D-02 -0.343725D-02
               21            22            23 
     21  0.688968D-02
     22 -0.343726D-02  0.690382D-02
     23  0.344072D-02 -0.688260D-02  0.688978D-02
 Leave Link  716 at Thu Oct 17 18:23:38 2019, MaxMem=   280000000 cpu:               0.6 elap:               0.0
 (Enter /home/soft/g16/l103.exe)

[...]
     13  0.288590D-01  0.532331D-04 -0.213551D-05 -0.132318D-01 -0.174163D-02
     14  0.593623D-04 -0.997510D-02 -0.119331D-05  0.529183D-02  0.228741D-02
     15 -0.103439D-04 -0.107771D-05 -0.997364D-02  0.329109D-05 -0.588410D-05
     16  0.279715D-01  0.533882D-04  0.173742D-05 -0.153549D-01  0.281301D-02
     17  0.445597D-04 -0.129008D-01 -0.200875D-05 -0.743678D-02  0.299370D-02
     18  0.140046D-04 -0.126419D-05 -0.128981D-01 -0.520466D-05  0.240345D-05
                6             7             8             9            10 
      6  0.453330D-01
      7 -0.138759D-02  0.324881D-01
      8 -0.234632D-01 -0.842854D-02  0.131617D+00
      9  0.468726D-02 -0.145701D-01  0.149466D+00  0.304228D+00
     10  0.138422D-02  0.254481D-02 -0.771538D-03  0.153299D-02  0.324793D-01
     11  0.234649D-01 -0.771674D-03  0.103690D-01 -0.136176D-01 -0.841710D-02
     12  0.468761D-02 -0.153322D-02  0.136191D-01 -0.123622D-01  0.145490D-01
     13  0.228833D-05 -0.132227D-01  0.844807D-03  0.149194D-02 -0.132110D-01
     14 -0.540683D-05 -0.267425D-02  0.399442D-03  0.108752D-02 -0.267503D-02
     15 -0.224473D-03 -0.459930D-02  0.107934D-02  0.166578D-02  0.460071D-02
     16  0.000000D+00 -0.153618D-01 -0.144629D-02 -0.246119D-02 -0.153491D-01
     17  0.180425D-05  0.368313D-02  0.695444D-03  0.133777D-02  0.368318D-02
     18 -0.866444D-04  0.641326D-02  0.134803D-02  0.223306D-02 -0.641132D-02
               11            12            13            14            15 
     11  0.131593D+00
     12 -0.149451D+00  0.304202D+00
     13  0.843300D-03 -0.149415D-02  0.310704D-01
     14  0.402779D-03 -0.108556D-02  0.287435D-04  0.514864D-02
     15 -0.107702D-02  0.166276D-02  0.369290D-05  0.447383D-05  0.513291D-02
     16 -0.144382D-02  0.246577D-02 -0.202639D-01 -0.306642D-04  0.195045D-05
     17  0.702071D-03 -0.133608D-02 -0.284578D-04  0.173682D-02  0.000000D+00
     18 -0.134767D-02  0.224672D-02 -0.163475D-05  0.000000D+00  0.173666D-02
               16            17            18 
     16  0.383582D-01
     17  0.543676D-04  0.677274D-02
     18 -0.910985D-05 -0.165534D-05  0.676829D-02
 FormGI is forming the generalized inverse of G from B-inverse, IUseBI=4.
 Force constants in internal coordinates: 
                1             2             3             4             5 
      1  0.391315D+00
      2 -0.185135D-04  0.391300D+00
      3 -0.190339D-04 -0.191558D-04  0.391259D+00
      4 -0.238748D-02 -0.239136D-02 -0.239175D-02  0.310704D-01
      5 -0.205680D-02 -0.206168D-02 -0.206643D-02  0.202640D-01  0.383583D-01
      6  0.173832D-02  0.173840D-02 -0.337240D-02  0.437123D-03 -0.516464D-03
      7  0.178266D-02 -0.334967D-02  0.179833D-02  0.947856D-03 -0.111845D-02
      8 -0.267925D-02  0.183186D-02  0.193072D-02  0.445223D-02 -0.523838D-02
      9 -0.408017D-02  0.155734D-02  0.146001D-02 -0.444157D-02  0.525724D-02
     10 -0.334965D-02  0.178255D-02  0.179765D-02  0.947597D-03 -0.111758D-02
     11  0.182548D-02 -0.268572D-02  0.193134D-02  0.444526D-02 -0.524150D-02
     12  0.155026D-02 -0.408695D-02  0.145852D-02 -0.444268D-02  0.524670D-02
     13  0.183608D-02  0.183582D-02 -0.258134D-02  0.447128D-02 -0.529558D-02
     14  0.154819D-02  0.154818D-02 -0.420040D-02 -0.448460D-02  0.527162D-02
     15 -0.675942D-02  0.338921D-02  0.339073D-02  0.106613D-04  0.188529D-04
     16  0.544573D-05  0.587162D-02 -0.588079D-02 -0.928332D-05 -0.167447D-04
     17  0.129332D-02  0.129298D-02  0.111879D-02  0.152651D-01 -0.180132D-01
     18  0.182222D-02  0.182233D-02 -0.372892D-02 -0.342146D-03  0.401388D-03
     19 -0.152556D-02 -0.152569D-02  0.313395D-02  0.338901D-03 -0.401038D-03
     20 -0.186531D-02  0.368811D-02 -0.186484D-02 -0.170867D-03  0.201230D-03
     21  0.156940D-02 -0.309438D-02  0.156739D-02  0.169651D-03 -0.200518D-03
     22 -0.368753D-02  0.186579D-02  0.186409D-02  0.171279D-03 -0.200158D-03
     23  0.309497D-02 -0.156869D-02 -0.156656D-02 -0.169249D-03  0.200520D-03
                6             7             8             9            10 
      6  0.690299D-02
      7 -0.345016D-02  0.703177D-02
      8  0.750763D-03  0.111649D-02  0.245815D-01
      9 -0.915159D-03 -0.128120D-02 -0.144585D-01  0.306307D-01
     10 -0.345002D-02 -0.338782D-02 -0.113154D-02  0.146206D-02  0.703155D-02
     11  0.751644D-03 -0.113215D-02 -0.102162D-01  0.515488D-02  0.111593D-02
     12 -0.915261D-03  0.146171D-02  0.515667D-02 -0.132487D-01 -0.128030D-02
     13 -0.148543D-02  0.112585D-02 -0.101494D-01  0.509545D-02  0.112532D-02
     14  0.181504D-02 -0.129147D-02  0.508551D-02 -0.131742D-01 -0.129234D-02
     15 -0.164396D-03 -0.164706D-03  0.101230D-01  0.161722D-01  0.330526D-03
     16  0.286076D-03 -0.286766D-03 -0.323556D-05  0.829430D-05 -0.199227D-05
     17  0.714549D-03  0.916505D-03  0.487657D-02 -0.488386D-02  0.916039D-03
     18  0.680644D-02 -0.346648D-02 -0.507092D-03 -0.102713D-03 -0.346635D-02
     19 -0.677787D-02  0.345196D-02  0.602741D-04 -0.602900D-03  0.345170D-02
     20  0.340325D-02 -0.687120D-02  0.139763D-03  0.468813D-03  0.340473D-02
     21 -0.338900D-02  0.684206D-02  0.299042D-03  0.245672D-03 -0.339014D-02
     22 -0.340319D-02 -0.340472D-02  0.646855D-03  0.571526D-03  0.687108D-02
     23  0.338886D-02  0.339010D-02  0.238767D-03  0.848572D-03 -0.684184D-02
               11            12            13            14            15 
     11  0.245595D-01
     12 -0.144732D-01  0.306033D-01
     13 -0.101290D-01  0.511090D-02  0.246683D-01
     14  0.510369D-02 -0.131492D-01 -0.145958D-01  0.307309D-01
     15 -0.506131D-02 -0.809206D-02 -0.505394D-02 -0.808872D-02  0.262953D-01
     16 -0.873566D-02 -0.139713D-01  0.872409D-02  0.139790D-01  0.505874D-05
     17  0.487473D-02 -0.488098D-02  0.484697D-02 -0.483346D-02 -0.728703D-05
     18 -0.504423D-03 -0.101592D-03  0.288104D-03  0.929381D-03 -0.609805D-03
     19  0.607676D-04 -0.600234D-03  0.598938D-03  0.481612D-03 -0.542626D-03
     20 -0.644585D-03 -0.569586D-03  0.142982D-03  0.463402D-03  0.608576D-03
     21 -0.238002D-03 -0.846604D-03  0.299097D-03  0.240062D-03  0.544713D-03
     22 -0.140161D-03 -0.467993D-03 -0.145122D-03 -0.465979D-03  0.121838D-02
     23 -0.298769D-03 -0.246370D-03 -0.299841D-03 -0.241549D-03  0.108734D-02
               16            17            18            19            20 
     16  0.262513D-01
     17  0.113476D-04  0.166928D-01
     18  0.105514D-02 -0.138291D-03  0.693020D-02
     19  0.935588D-03  0.137198D-03 -0.682327D-02  0.691785D-02
     20  0.105293D-02 -0.692657D-04  0.346505D-02 -0.341179D-02  0.693105D-02
     21  0.938165D-03  0.687306D-04 -0.341175D-02  0.345894D-02 -0.682458D-02
     22 -0.221257D-05  0.690256D-04 -0.346515D-02  0.341148D-02  0.346600D-02
     23  0.257668D-05 -0.684671D-04  0.341152D-02 -0.345891D-02 -0.341280D-02
               21            22            23 
     21  0.691969D-02
     22 -0.341283D-02  0.693115D-02
     23  0.346075D-02 -0.682431D-02  0.691966D-02
 Leave Link  716 at Thu Oct 17 18:24:23 2019, MaxMem=   280000000 cpu:               0.7 elap:               0.0
 (Enter /home/soft/g16/l103.exe)

 GradGradGradGradGradGradGradGradGradGradGradGradGradGradGradGradGradGrad
 Berny optimization.
 Red2BG is reusing G-inverse.
 Internal  Forces:  Max     0.000003948 RMS     0.000000976
 Search for a saddle point.
 Step number   1 out of a maximum of    2
 All quantities printed in internal units (Hartrees-Bohrs-Radians)
 Swapping is turned off.
 Second derivative matrix not updated -- analytic derivatives used.
 ITU=  0
     Eigenvalues ---   -0.00965   0.03045   0.03055   0.04278   0.04289
     Eigenvalues ---    0.04727   0.05715   0.06211   0.06215   0.39136
     Eigenvalues ---    0.39187   0.39190
 Eigenvectors required to have negative eigenvalues:
                          R4        R5        D1        A4        A7
   1                    0.55903  -0.53039  -0.51735   0.15084   0.15081
                          A3        A6        A8        A9        A2
   1                   -0.15079  -0.15079  -0.15073   0.15066  -0.02767
 Angle between quadratic step and forces=  97.24 degrees.
 Linear search not attempted -- option 19 set.
 Iteration  1 RMS(Cart)=  0.00002651 RMS(Int)=  0.00000000
 Iteration  2 RMS(Cart)=  0.00000000 RMS(Int)=  0.00000000
 ITry= 1 IFail=0 DXMaxC= 8.84D-05 DCOld= 1.00D+10 DXMaxT= 3.00D-01 DXLimC= 3.00D+00 Rises=F
 Variable       Old X    -DE/DX   Delta X   Delta X   Delta X     New X
                                 (Linear)    (Quad)   (Total)
    R1        2.02150   0.00000   0.00000   0.00000   0.00000   2.02150
    R2        2.02150   0.00000   0.00000   0.00000   0.00000   2.02151
    R3        2.02153   0.00000   0.00000   0.00000   0.00000   2.02153
    R4        4.61365   0.00000   0.00000   0.00016   0.00016   4.61381
    R5        4.56930   0.00000   0.00000  -0.00006  -0.00006   4.56924
    A1        2.09003  -0.00000   0.00000  -0.00002  -0.00002   2.09001
    A2        2.08995   0.00000   0.00000   0.00000   0.00000   2.08995
    A3        1.52013  -0.00000   0.00000  -0.00004  -0.00004   1.52009
    A4        1.62132  -0.00000   0.00000   0.00003   0.00003   1.62135
    A5        2.08994   0.00000   0.00000  -0.00001  -0.00001   2.08994
    A6        1.52014   0.00000   0.00000  -0.00002  -0.00002   1.52011
    A7        1.62133   0.00000   0.00000   0.00004   0.00004   1.62137
    A8        1.52038   0.00000   0.00000  -0.00004  -0.00004   1.52034
    A9        1.62148  -0.00000   0.00000   0.00003   0.00003   1.62151
   A10        3.14145  -0.00000   0.00000  -0.00001  -0.00001   3.14144
   A11        3.14182  -0.00000   0.00000  -0.00001  -0.00001   3.14181
    D1        2.96690   0.00000   0.00000  -0.00011  -0.00011   2.96678
    D2        2.09447  -0.00000   0.00000  -0.00001  -0.00001   2.09446
    D3       -2.09444   0.00000   0.00000   0.00001   0.00001  -2.09443
    D4       -2.09436  -0.00000   0.00000  -0.00001  -0.00001  -2.09437
    D5        2.09437   0.00000   0.00000   0.00001   0.00001   2.09438
    D6        2.09436  -0.00000   0.00000  -0.00000  -0.00000   2.09436
    D7       -2.09437  -0.00000   0.00000  -0.00000  -0.00000  -2.09437
         Item               Value     Threshold  Converged?
 Maximum Force            0.000004     0.000450     YES
 RMS     Force            0.000001     0.000300     YES
 Maximum Displacement     0.000088     0.001800     YES
 RMS     Displacement     0.000027     0.001200     YES
 Predicted change in Energy= 6.586611D-11
 Optimization completed.
    -- Stationary point found.
                           ----------------------------
                           !   Optimized Parameters   !
                           ! (Angstroms and Degrees)  !
 --------------------------                            --------------------------
 ! Name  Definition              Value          Derivative Info.                !
 --------------------------------------------------------------------------------
 ! R1    R(1,2)                  1.0697         -DE/DX =    0.0                 !
 ! R2    R(1,3)                  1.0697         -DE/DX =    0.0                 !
 ! R3    R(1,4)                  1.0697         -DE/DX =    0.0                 !
 ! R4    R(1,5)                  2.4414         -DE/DX =    0.0                 !
 ! R5    R(1,6)                  2.418          -DE/DX =    0.0                 !
 ! A1    A(2,1,3)              119.7499         -DE/DX =    0.0                 !
 ! A2    A(2,1,4)              119.7451         -DE/DX =    0.0                 !
 ! A3    A(2,1,5)               87.097          -DE/DX =    0.0                 !
 ! A4    A(2,1,6)               92.895          -DE/DX =    0.0                 !
 ! A5    A(3,1,4)              119.7449         -DE/DX =    0.0                 !
 ! A6    A(3,1,5)               87.0974         -DE/DX =    0.0                 !
 ! A7    A(3,1,6)               92.8953         -DE/DX =    0.0                 !
 ! A8    A(4,1,5)               87.1113         -DE/DX =    0.0                 !
 ! A9    A(4,1,6)               92.9041         -DE/DX =    0.0                 !
 ! A10   L(5,1,6,2,-1)         179.9919         -DE/DX =    0.0                 !
 ! A11   L(5,1,6,2,-2)         180.0131         -DE/DX =    0.0                 !
 ! D1    D(2,1,4,3)            169.9907         -DE/DX =    0.0                 !
 ! D2    D(2,1,5,3)            120.0041         -DE/DX =    0.0                 !
 ! D3    D(2,1,6,3)           -120.0028         -DE/DX =    0.0                 !
 ! D4    D(2,1,5,4)           -119.9981         -DE/DX =    0.0                 !
 ! D5    D(2,1,6,4)            119.9987         -DE/DX =    0.0                 !
 ! D6    D(3,1,5,4)            119.9978         -DE/DX =    0.0                 !
 ! D7    D(3,1,6,4)           -119.9985         -DE/DX =    0.0                 !
 --------------------------------------------------------------------------------
 GradGradGradGradGradGradGradGradGradGradGradGradGradGradGradGradGradGrad

 Leave Link  103 at Thu Oct 17 18:24:23 2019, MaxMem=   280000000 cpu:               0.6 elap:               0.0
 (Enter /home/soft/g16/l9999.exe)

 ----------------------------------------------------------------------

 Electric dipole moment (input orientation):
 (Debye = 10**-18 statcoulomb cm , SI units = C m)
                  (au)            (Debye)         (10**-30 SI)
   Tot        0.163097D+01      0.414550D+01      0.138279D+02
   x          0.163096D+01      0.414550D+01      0.138279D+02
   y          0.230040D-02      0.584704D-02      0.195036D-01
   z         -0.187968D-03     -0.477766D-03     -0.159366D-02

 Dipole polarizability, Alpha (input orientation).
 (esu units = cm**3 , SI units = C**2 m**2 J**-1)
 Alpha(0;0):
               (au)            (10**-24 esu)      (10**-40 SI)
   iso        0.705714D+02      0.104576D+02      0.116356D+02
   aniso      0.945879D+02      0.140165D+02      0.155954D+02
   xx         0.133630D+03      0.198019D+02      0.220326D+02
   yx         0.126457D+00      0.187390D-01      0.208499D-01
   yy         0.390427D+02      0.578553D+01      0.643727D+01
   zx         0.128514D-03      0.190438D-04      0.211891D-04
   zy         0.504375D-03      0.747406D-04      0.831601D-04
   zz         0.390416D+02      0.578537D+01      0.643710D+01

 ----------------------------------------------------------------------

 Dipole orientation:
     6         -0.00035204         -0.20488146          6.92208235
     1          0.00256709         -2.22378510          6.81969703
     1         -1.75016131          0.80217007          6.81971214
     1          1.74668884          0.80706503          6.82021259
    17         -0.00033500         -0.20487144          2.30843451
    35         -0.00141372         -0.20553807         11.49138603

 Electric dipole moment (dipole orientation):
 (Debye = 10**-18 statcoulomb cm , SI units = C m)
                  (au)            (Debye)         (10**-30 SI)
   Tot        0.163097D+01      0.414550D+01      0.138279D+02
   x          0.000000D+00      0.000000D+00      0.000000D+00
   y          0.000000D+00      0.000000D+00      0.000000D+00
   z          0.163097D+01      0.414550D+01      0.138279D+02

 Dipole polarizability, Alpha (dipole orientation).
 (esu units = cm**3 , SI units = C**2 m**2 J**-1)
 Alpha(0;0):
               (au)            (10**-24 esu)      (10**-40 SI)
   iso        0.705714D+02      0.104576D+02      0.116356D+02
   aniso      0.945879D+02      0.140165D+02      0.155954D+02
   xx         0.390416D+02      0.578537D+01      0.643710D+01
   yx        -0.504612D-03     -0.747758D-04     -0.831993D-04
   yy         0.390425D+02      0.578550D+01      0.643724D+01
   zx        -0.110206D-01     -0.163309D-02     -0.181706D-02
   zy        -0.697002D-02     -0.103285D-02     -0.114920D-02
   zz         0.133630D+03      0.198019D+02      0.220326D+02

 ----------------------------------------------------------------------
 1\1\GINC-NODE12\Freq\RB3LYP\def2TZVP\C1H3Br1Cl1(1-)\ROOT\17-Oct-2019\0
 \\#P Geom=AllCheck Guess=TCheck SCRF=Check GenChk RB3LYP/def2TZVP Freq
 \\Title Card Required\\-1,1\C,3.6631575241,-0.1032516123,-0.0000829477
 \H,3.6104844654,-1.1716858847,-0.0001145698\H,3.608338736,0.4308858103
 ,0.9251299158\H,3.6083903293,0.4308662011,-0.9253253297\Cl,1.221722664
 3,-0.1066898612,0.0001894022\Br,6.0811270309,-0.1001878431,0.000200689
 1\\Version=ES64L-G16RevA.03\State=1-A\HF=-3074.4259201\RMSD=1.917e-09\
 RMSF=1.546e-06\ZeroPoint=0.0366212\Thermal=0.0414375\Dipole=1.630964,0
 .0023004,-0.000188\DipoleDeriv=3.2262318,0.0042832,0.0000009,0.0042578
 ,0.0232426,-0.0000336,0.0000548,-0.0000361,0.0232812,-0.1812185,-0.004
 6887,-0.0000006,0.0238158,0.0550329,0.0000078,-0.0000101,0.0000076,0.0
 633738,-0.1811748,0.0018632,0.003794,-0.0123842,0.061274,-0.0036168,-0
 .0208986,-0.0036484,0.0570898,-0.1810776,0.0018681,-0.0038034,-0.01237
 08,0.0612609,0.003645,0.0208638,0.00368,0.0570575,-1.867798,-0.001657,
 0.0000095,-0.0017471,-0.6335982,-0.0000026,0.0001511,-0.000003,-0.6335
 926,-1.8149631,-0.0016688,-0.0000004,-0.0015715,-0.5672123,0.0000002,-
 0.000161,-0.0000001,-0.5672097\Polar=133.6297751,0.1264568,39.0426792,
 0.0001285,0.0005044,39.0416423\Quadrupole=-20.7238205,10.361929,10.361
 8915,-0.0418041,0.0002673,0.0000732\PG=C01 [X(C1H3Br1Cl1)]\NImag=1\\-0
 .02992194,-0.00093678,0.67819584,-0.00002035,0.00002785,0.67815756,-0.
 00891846,-0.01737963,-0.00000062,0.03242745,-0.01534661,-0.38252623,-0
 .00000371,0.01611319,0.39059864,-0.00000324,-0.00000490,-0.05439677,0.
 00000348,0.00000681,0.04533301,-0.00898533,0.00911026,0.01567697,0.002
 53694,-0.00091893,-0.00138759,0.03248808,0.00809523,-0.13640400,-0.142
 04961,0.00170634,-0.00667690,-0.02346324,-0.00842854,0.13161700,0.0139
 1459,-0.14205041,-0.30045222,0.00009179,0.00377631,0.00468726,-0.01457
 013,0.14946643,0.30422832,-0.00900474,0.00909952,-0.01565560,0.0025407
 1,-0.00091904,0.00138422,0.00254481,-0.00077154,0.00153299,0.03247929,
 0.00808425,-0.13638974,0.14202867,0.00170505,-0.00667662,0.02346494,-0
 .00077167,0.01036900,-0.01361762,-0.00841710,0.13159251,-0.01389466,0.
 14202980,-0.30043685,-0.00009273,-0.00377593,0.00468761,-0.00153322,0.
 01361906,-0.01236221,0.01454899,-0.14945130,0.30420196,0.02885901,0.00
 005323,-0.00000214,-0.01323177,-0.00174163,0.00000229,-0.01322270,0.00
 084481,0.00149194,-0.01321099,0.00084330,-0.00149415,0.03107039,0.0000
 5936,-0.00997510,-0.00000119,0.00529183,0.00228741,-0.00000541,-0.0026
 7425,0.00039944,0.00108752,-0.00267503,0.00040278,-0.00108556,0.000028
 74,0.00514864,-0.00001034,-0.00000108,-0.00997364,0.00000329,-0.000005
 88,-0.00022447,-0.00459930,0.00107934,0.00166578,0.00460071,-0.0010770
 2,0.00166276,0.00000369,0.00000447,0.00513291,0.02797147,0.00005339,0.
 00000174,-0.01535486,0.00281301,0.00000084,-0.01536180,-0.00144629,-0.
 00246119,-0.01534908,-0.00144382,0.00246577,-0.02026394,-0.00003066,0.
 00000195,0.03835821,0.00004456,-0.01290077,-0.00000201,-0.00743678,0.0
 0299370,0.00000180,0.00368313,0.00069544,0.00133777,0.00368318,0.00070
 207,-0.00133608,-0.00002846,0.00173682,0.00000017,0.00005437,0.0067727
 4,0.00001400,-0.00000126,-0.01289808,-0.00000520,0.00000240,-0.0000866
 4,0.00641326,0.00134803,0.00223306,-0.00641132,-0.00134767,0.00224672,
 -0.00000163,0.00000016,0.00173666,-0.00000911,-0.00000166,0.00676829\\
 0.00000447,-0.00000064,0.00000088,-0.00000054,0.00000106,-0.00000093,-
 0.00000033,-0.00000007,-0.00000102,-0.00000068,-0.00000080,0.00000056,
 0.00000103,0.00000031,0.00000047,-0.00000395,0.00000013,0.00000004\\\@


 Children are likely to live up to what you believe of them.
 -- Lady Bird Johnson
 Job cpu time:       0 days  0 hours  5 minutes 16.5 seconds.
 Elapsed time:       0 days  0 hours  0 minutes 14.0 seconds.
 File lengths (MBytes):  RWF=    332 Int=      0 D2E=      0 Chk=      8 Scr=      8
 Normal termination of Gaussian 16 at Thu Oct 17 18:24:23 2019.
