 Entering Gaussian System, Link 0=g16
 Input=carbene3.gjf
 Output=carbene3.log
 Initial command:
 /usr/g16/l1.exe "/scratch/wsr/gaussian/Gau-304614.inp" -scrdir="/scratch/wsr/gaussian/"
 Entering Link 1 = /usr/g16/l1.exe PID=    304615.
  
 Copyright (c) 1988,1990,1992,1993,1995,1998,2003,2009,2016,
            Gaussian, Inc.  All Rights Reserved.
  
 This is part of the Gaussian(R) 16 program.  It is based on
 the Gaussian(R) 09 system (copyright 2009, Gaussian, Inc.),
 the Gaussian(R) 03 system (copyright 2003, Gaussian, Inc.),
 the Gaussian(R) 98 system (copyright 1998, Gaussian, Inc.),
 the Gaussian(R) 94 system (copyright 1995, Gaussian, Inc.),
 the Gaussian 92(TM) system (copyright 1992, Gaussian, Inc.),
 the Gaussian 90(TM) system (copyright 1990, Gaussian, Inc.),
 the Gaussian 88(TM) system (copyright 1988, Gaussian, Inc.),
 the Gaussian 86(TM) system (copyright 1986, Carnegie Mellon
 University), and the Gaussian 82(TM) system (copyright 1983,
 Carnegie Mellon University). Gaussian is a federally registered
 trademark of Gaussian, Inc.
  
 This software contains proprietary and confidential information,
 including trade secrets, belonging to Gaussian, Inc.
  
 This software is provided under written license and may be
 used, copied, transmitted, or stored only in accord with that
 written license.
  
 The following legend is applicable only to US Government
 contracts under FAR:
  
                    RESTRICTED RIGHTS LEGEND
  
 Use, reproduction and disclosure by the US Government is
 subject to restrictions as set forth in subparagraphs (a)
 and (c) of the Commercial Computer Software - Restricted
 Rights clause in FAR 52.227-19.
  
 Gaussian, Inc.
 340 Quinnipiac St., Bldg. 40, Wallingford CT 06492
  
  
 ---------------------------------------------------------------
 Warning -- This program may not be used in any manner that
 competes with the business of Gaussian, Inc. or will provide
 assistance to any competitor of Gaussian, Inc.  The licensee
 of this program is prohibited from giving any competitor of
 Gaussian, Inc. access to this program.  By using this program,
 the user acknowledges that Gaussian, Inc. is engaged in the
 business of creating and licensing software in the field of
 computational chemistry and represents and warrants to the
 licensee that it is not a competitor of Gaussian, Inc. and that
 it will not use this program in any manner prohibited above.
 ---------------------------------------------------------------
  

 Cite this work as:
 Gaussian 16, Revision A.03,
 M. J. Frisch, G. W. Trucks, H. B. Schlegel, G. E. Scuseria, 
 M. A. Robb, J. R. Cheeseman, G. Scalmani, V. Barone, 
 G. A. Petersson, H. Nakatsuji, X. Li, M. Caricato, A. V. Marenich, 
 J. Bloino, B. G. Janesko, R. Gomperts, B. Mennucci, H. P. Hratchian, 
 J. V. Ortiz, A. F. Izmaylov, J. L. Sonnenberg, D. Williams-Young, 
 F. Ding, F. Lipparini, F. Egidi, J. Goings, B. Peng, A. Petrone, 
 T. Henderson, D. Ranasinghe, V. G. Zakrzewski, J. Gao, N. Rega, 
 G. Zheng, W. Liang, M. Hada, M. Ehara, K. Toyota, R. Fukuda, 
 J. Hasegawa, M. Ishida, T. Nakajima, Y. Honda, O. Kitao, H. Nakai, 
 T. Vreven, K. Throssell, J. A. Montgomery, Jr., J. E. Peralta, 
 F. Ogliaro, M. J. Bearpark, J. J. Heyd, E. N. Brothers, K. N. Kudin, 
 V. N. Staroverov, T. A. Keith, R. Kobayashi, J. Normand, 
 K. Raghavachari, A. P. Rendell, J. C. Burant, S. S. Iyengar, 
 J. Tomasi, M. Cossi, J. M. Millam, M. Klene, C. Adamo, R. Cammi, 
 J. W. Ochterski, R. L. Martin, K. Morokuma, O. Farkas, 
 J. B. Foresman, and D. J. Fox, Gaussian, Inc., Wallingford CT, 2016.
 
 ******************************************
 Gaussian 16:  ES64L-G16RevA.03 25-Dec-2016
                21-Nov-2019 
 ******************************************
 %oldchk=../carbene.chk
 %chk=carbene3.chk
 %nproc=24
 Will use up to   24 processors via shared memory.
 Copying data from "../carbene.chk" to current chk file "carbene3.chk"
 IOpt=  2 FromEx=T IUOpen= 4 IOptOp= 5 NList=   0 IFRang= 0 IUIn= 4 IUOut= 2.
 ----------------------------------------------------------------------
 #p b3lyp/6-31g* em=gd3bj opt=(ts,calcfc,noeigen) freq scrf=(smd,solven
 t=benzene)
 ----------------------------------------------------------------------
 1/5=1,10=4,11=1,18=20,26=3,38=1/1,3;
 2/9=110,12=2,17=6,18=5,40=1/2;
 3/5=1,6=6,7=1,11=2,25=1,30=1,70=32201,71=2,72=12,74=-5,124=41,140=1/1,2,3;
 4//1;
 5/5=2,38=5,53=12/2;
 8/6=4,10=90,11=11/1;
 11/6=1,8=1,9=11,15=111,16=1/1,2,10;
 10/6=1,13=1/2;
 6/7=2,8=2,9=2,10=2,28=1/1;
 7/10=1,18=20,25=1/1,2,3,16;
 1/5=1,10=4,11=1,18=20,26=3/3(2);
 2/9=110/2;
 99//99;
 2/9=110/2;
 3/5=1,6=6,7=1,11=2,25=1,30=1,70=32205,71=1,72=12,74=-5,124=41/1,2,3;
 4/5=5,16=3,69=1/1;
 5/5=2,38=5,53=12/2;
 7//1,2,3,16;
 1/5=1,11=1,18=20,26=3/3(-5);
 2/9=110/2;
 6/7=2,8=2,9=2,10=2,19=2,28=1/1;
 99/9=1/99;
 Leave Link    1 at Thu Nov 21 13:15:07 2019, MaxMem=   140000000 cpu:               2.6 elap:               0.1
 (Enter /usr/g16/l101.exe)
 -------------------
 Title Card Required
 -------------------
 Symbolic Z-matrix:
 Charge =  0 Multiplicity = 3
 C                    -0.29428  -0.26367  -1.51786 
 C                     1.55889   1.06088  -1.74841 
 C                     0.50395   1.88157  -1.56926 
 H                     2.53135   1.37809  -2.06241 
 H                     0.52263   2.94048  -1.72178 
 N                    -0.67999   1.11542  -1.16312 
 N                     1.17913  -0.33121  -1.47961 
 C                    -0.93849   1.2308    0.27937 
 H                    -1.15876   2.24941   0.52189 
 H                    -1.77157   0.61323   0.54295 
 H                    -0.07328   0.91375   0.82324 
 C                     1.74426  -1.26288  -2.46629 
 H                     1.42585  -0.97941  -3.4477 
 H                     2.81258  -1.23186  -2.41507 
 H                     1.40569  -2.25552  -2.25429 
 H                    -0.99888  -0.98297  -2.36859 
 H                    -1.04254  -1.29611  -1.19379 
 
 Add virtual bond connecting atoms H17        and H16        Dist= 2.30D+00.
 Add virtual bond connecting atoms H16        and C1         Dist= 2.49D+00.
 Add virtual bond connecting atoms H17        and C1         Dist= 2.49D+00.
 ITRead=  0  0  0  0  0  0  0  0  0  0  0  0  0  0  0  0  0
 MicOpt= -1 -1 -1 -1 -1 -1 -1 -1 -1 -1 -1 -1 -1 -1 -1 -1 -1
 NAtoms=     17 NQM=       17 NQMF=       0 NMMI=      0 NMMIF=      0
                NMic=       0 NMicF=      0.
                    Isotopes and Nuclear Properties:
 (Nuclear quadrupole moments (NQMom) in fm**2, nuclear magnetic moments (NMagM)
  in nuclear magnetons)

  Atom         1           2           3           4           5           6           7           8           9          10
 IAtWgt=          12          12          12           1           1          14          14          12           1           1
 AtmWgt=  12.0000000  12.0000000  12.0000000   1.0078250   1.0078250  14.0030740  14.0030740  12.0000000   1.0078250   1.0078250
 NucSpn=           0           0           0           1           1           2           2           0           1           1
 AtZEff=  -0.0000000  -0.0000000  -0.0000000  -0.0000000  -0.0000000  -0.0000000  -0.0000000  -0.0000000  -0.0000000  -0.0000000
 NQMom=    0.0000000   0.0000000   0.0000000   0.0000000   0.0000000   2.0440000   2.0440000   0.0000000   0.0000000   0.0000000
 NMagM=    0.0000000   0.0000000   0.0000000   2.7928460   2.7928460   0.4037610   0.4037610   0.0000000   2.7928460   2.7928460
 AtZNuc=   6.0000000   6.0000000   6.0000000   1.0000000   1.0000000   7.0000000   7.0000000   6.0000000   1.0000000   1.0000000

  Atom        11          12          13          14          15          16          17
 IAtWgt=           1          12           1           1           1           1           1
 AtmWgt=   1.0078250  12.0000000   1.0078250   1.0078250   1.0078250   1.0078250   1.0078250
 NucSpn=           1           0           1           1           1           1           1
 AtZEff=  -0.0000000  -0.0000000  -0.0000000  -0.0000000  -0.0000000  -0.0000000  -0.0000000
 NQMom=    0.0000000   0.0000000   0.0000000   0.0000000   0.0000000   0.0000000   0.0000000
 NMagM=    2.7928460   0.0000000   2.7928460   2.7928460   2.7928460   2.7928460   2.7928460
 AtZNuc=   1.0000000   6.0000000   1.0000000   1.0000000   1.0000000   1.0000000   1.0000000
 Leave Link  101 at Thu Nov 21 13:15:08 2019, MaxMem=   140000000 cpu:               3.6 elap:               0.2
 (Enter /usr/g16/l103.exe)

 GradGradGradGradGradGradGradGradGradGradGradGradGradGradGradGradGradGrad
 Berny optimization.
 Initialization pass.
                           ----------------------------
                           !    Initial Parameters    !
                           ! (Angstroms and Degrees)  !
 --------------------------                            --------------------------
 ! Name  Definition              Value          Derivative Info.                !
 --------------------------------------------------------------------------------
 ! R1    R(1,6)                  1.4753         calculate D2E/DX2 analytically  !
 ! R2    R(1,7)                  1.4755         calculate D2E/DX2 analytically  !
 ! R3    R(1,16)                 1.3182         calculate D2E/DX2 analytically  !
 ! R4    R(1,17)                 1.3156         calculate D2E/DX2 analytically  !
 ! R5    R(2,3)                  1.3485         calculate D2E/DX2 analytically  !
 ! R6    R(2,4)                  1.07           calculate D2E/DX2 analytically  !
 ! R7    R(2,7)                  1.4678         calculate D2E/DX2 analytically  !
 ! R8    R(3,5)                  1.07           calculate D2E/DX2 analytically  !
 ! R9    R(3,6)                  1.4675         calculate D2E/DX2 analytically  !
 ! R10   R(6,8)                  1.47           calculate D2E/DX2 analytically  !
 ! R11   R(7,12)                 1.47           calculate D2E/DX2 analytically  !
 ! R12   R(8,9)                  1.07           calculate D2E/DX2 analytically  !
 ! R13   R(8,10)                 1.07           calculate D2E/DX2 analytically  !
 ! R14   R(8,11)                 1.07           calculate D2E/DX2 analytically  !
 ! R15   R(12,13)                1.07           calculate D2E/DX2 analytically  !
 ! R16   R(12,14)                1.07           calculate D2E/DX2 analytically  !
 ! R17   R(12,15)                1.07           calculate D2E/DX2 analytically  !
 ! R18   R(16,17)                1.2166         calculate D2E/DX2 analytically  !
 ! A1    A(6,1,7)              107.3163         calculate D2E/DX2 analytically  !
 ! A2    A(6,1,16)             121.7039         calculate D2E/DX2 analytically  !
 ! A3    A(6,1,17)             121.7124         calculate D2E/DX2 analytically  !
 ! A4    A(7,1,16)             121.7039         calculate D2E/DX2 analytically  !
 ! A5    A(7,1,17)             121.7124         calculate D2E/DX2 analytically  !
 ! A6    A(3,2,4)              124.7187         calculate D2E/DX2 analytically  !
 ! A7    A(3,2,7)              110.516          calculate D2E/DX2 analytically  !
 ! A8    A(4,2,7)              124.7539         calculate D2E/DX2 analytically  !
 ! A9    A(2,3,5)              124.7279         calculate D2E/DX2 analytically  !
 ! A10   A(2,3,6)              110.4972         calculate D2E/DX2 analytically  !
 ! A11   A(5,3,6)              124.7635         calculate D2E/DX2 analytically  !
 ! A12   A(1,6,3)              102.1549         calculate D2E/DX2 analytically  !
 ! A13   A(1,6,8)              110.812          calculate D2E/DX2 analytically  !
 ! A14   A(3,6,8)              111.8671         calculate D2E/DX2 analytically  !
 ! A15   A(1,7,2)              102.1344         calculate D2E/DX2 analytically  !
 ! A16   A(1,7,12)             113.2986         calculate D2E/DX2 analytically  !
 ! A17   A(2,7,12)             112.2545         calculate D2E/DX2 analytically  !
 ! A18   A(6,8,9)              109.4712         calculate D2E/DX2 analytically  !
 ! A19   A(6,8,10)             109.4712         calculate D2E/DX2 analytically  !
 ! A20   A(6,8,11)             109.4712         calculate D2E/DX2 analytically  !
 ! A21   A(9,8,10)             109.4712         calculate D2E/DX2 analytically  !
 ! A22   A(9,8,11)             109.4712         calculate D2E/DX2 analytically  !
 ! A23   A(10,8,11)            109.4712         calculate D2E/DX2 analytically  !
 ! A24   A(7,12,13)            109.4712         calculate D2E/DX2 analytically  !
 ! A25   A(7,12,14)            109.4712         calculate D2E/DX2 analytically  !
 ! A26   A(7,12,15)            109.4712         calculate D2E/DX2 analytically  !
 ! A27   A(13,12,14)           109.4712         calculate D2E/DX2 analytically  !
 ! A28   A(13,12,15)           109.4712         calculate D2E/DX2 analytically  !
 ! A29   A(14,12,15)           109.4712         calculate D2E/DX2 analytically  !
 ! D1    D(7,1,6,3)             26.2213         calculate D2E/DX2 analytically  !
 ! D2    D(7,1,6,8)            -93.0836         calculate D2E/DX2 analytically  !
 ! D3    D(16,1,6,3)          -120.8785         calculate D2E/DX2 analytically  !
 ! D4    D(16,1,6,8)           119.8166         calculate D2E/DX2 analytically  !
 ! D5    D(17,1,6,3)           173.3506         calculate D2E/DX2 analytically  !
 ! D6    D(17,1,6,8)            54.0456         calculate D2E/DX2 analytically  !
 ! D7    D(6,1,7,2)            -26.1974         calculate D2E/DX2 analytically  !
 ! D8    D(6,1,7,12)          -147.1521         calculate D2E/DX2 analytically  !
 ! D9    D(16,1,7,2)           120.9024         calculate D2E/DX2 analytically  !
 ! D10   D(16,1,7,12)           -0.0523         calculate D2E/DX2 analytically  !
 ! D11   D(17,1,7,2)          -173.3266         calculate D2E/DX2 analytically  !
 ! D12   D(17,1,7,12)           65.7186         calculate D2E/DX2 analytically  !
 ! D13   D(4,2,3,5)              0.0327         calculate D2E/DX2 analytically  !
 ! D14   D(4,2,3,6)            178.8526         calculate D2E/DX2 analytically  !
 ! D15   D(7,2,3,5)           -178.7869         calculate D2E/DX2 analytically  !
 ! D16   D(7,2,3,6)              0.033          calculate D2E/DX2 analytically  !
 ! D17   D(3,2,7,1)             16.199          calculate D2E/DX2 analytically  !
 ! D18   D(3,2,7,12)           137.8744         calculate D2E/DX2 analytically  !
 ! D19   D(4,2,7,1)           -162.62           calculate D2E/DX2 analytically  !
 ! D20   D(4,2,7,12)           -40.9446         calculate D2E/DX2 analytically  !
 ! D21   D(2,3,6,1)            -16.2534         calculate D2E/DX2 analytically  !
 ! D22   D(2,3,6,8)            102.3058         calculate D2E/DX2 analytically  !
 ! D23   D(5,3,6,1)            162.566          calculate D2E/DX2 analytically  !
 ! D24   D(5,3,6,8)            -78.8748         calculate D2E/DX2 analytically  !
 ! D25   D(1,6,8,9)            176.6412         calculate D2E/DX2 analytically  !
 ! D26   D(1,6,8,10)           -63.3588         calculate D2E/DX2 analytically  !
 ! D27   D(1,6,8,11)            56.6412         calculate D2E/DX2 analytically  !
 ! D28   D(3,6,8,9)             63.3588         calculate D2E/DX2 analytically  !
 ! D29   D(3,6,8,10)          -176.6412         calculate D2E/DX2 analytically  !
 ! D30   D(3,6,8,11)           -56.6412         calculate D2E/DX2 analytically  !
 ! D31   D(1,7,12,13)           57.5281         calculate D2E/DX2 analytically  !
 ! D32   D(1,7,12,14)          177.5281         calculate D2E/DX2 analytically  !
 ! D33   D(1,7,12,15)          -62.4719         calculate D2E/DX2 analytically  !
 ! D34   D(2,7,12,13)          -57.5281         calculate D2E/DX2 analytically  !
 ! D35   D(2,7,12,14)           62.4719         calculate D2E/DX2 analytically  !
 ! D36   D(2,7,12,15)         -177.5281         calculate D2E/DX2 analytically  !
 --------------------------------------------------------------------------------
 Trust Radius=3.00D-01 FncErr=1.00D-07 GrdErr=1.00D-06 EigMax=2.50D+02 EigMin=1.00D-04
 Number of steps in this run=     93 maximum allowed number of steps=    102.
 Search for a saddle point of order  1.
 GradGradGradGradGradGradGradGradGradGradGradGradGradGradGradGradGradGrad

 Leave Link  103 at Thu Nov 21 13:15:08 2019, MaxMem=   140000000 cpu:               0.3 elap:               0.0
 (Enter /usr/g16/l202.exe)
                          Input orientation:                          
 ---------------------------------------------------------------------
 Center     Atomic      Atomic             Coordinates (Angstroms)
 Number     Number       Type             X           Y           Z
 ---------------------------------------------------------------------
      1          6           0       -0.294283   -0.263669   -1.517855
      2          6           0        1.558889    1.060884   -1.748406
      3          6           0        0.503947    1.881573   -1.569259
      4          1           0        2.531351    1.378093   -2.062407
      5          1           0        0.522627    2.940482   -1.721777
      6          7           0       -0.679995    1.115416   -1.163116
      7          7           0        1.179130   -0.331213   -1.479612
      8          6           0       -0.938485    1.230804    0.279371
      9          1           0       -1.158759    2.249413    0.521887
     10          1           0       -1.771570    0.613233    0.542954
     11          1           0       -0.073279    0.913754    0.823245
     12          6           0        1.744256   -1.262880   -2.466287
     13          1           0        1.425852   -0.979415   -3.447698
     14          1           0        2.812579   -1.231861   -2.415068
     15          1           0        1.405688   -2.255517   -2.254290
     16          1           0       -0.998881   -0.982974   -2.368593
     17          1           0       -1.042543   -1.296111   -1.193793
 ---------------------------------------------------------------------
                    Distance matrix (angstroms):
                    1          2          3          4          5
     1  C    0.000000
     2  C    2.289507   0.000000
     3  C    2.289514   1.348527   0.000000
     4  H    3.313024   1.070000   2.146405   0.000000
     5  H    3.312931   2.146494   1.070000   2.567501   0.000000
     6  N    1.475293   2.314765   1.467537   3.345215   2.255940
     7  N    1.475456   1.467788   2.315239   2.256075   3.345688
     8  C    2.424555   3.221433   2.433422   4.188720   3.010389
     9  H    3.350142   3.735297   2.696811   4.588539   2.887674
    10  H    2.682959   4.067269   3.353819   5.088029   3.975982
    11  H    2.629813   3.049427   2.644605   3.914932   3.307546
    12  C    2.460404   2.439179   3.497229   2.785206   4.440150
    13  H    2.682433   2.658592   3.544530   2.949407   4.377238
    14  H    3.375645   2.696823   3.967196   2.648644   4.809675
    15  H    2.720238   3.358259   4.289279   3.808813   5.297336
    16  H    1.318185   3.332293   3.332125   4.258042   4.257566
    17  H    1.315616   3.553937   3.553910   4.547370   4.547224
                    6          7          8          9         10
     6  N    0.000000
     7  N    2.376815   0.000000
     8  C    1.470000   3.165156   0.000000
     9  H    2.086720   4.016386   1.070000   0.000000
    10  H    2.086720   3.699916   1.070000   1.747303   0.000000
    11  H    2.086720   2.902003   1.070000   1.747303   1.747303
    12  C    3.637518   1.470000   4.577576   5.449118   4.993633
    13  H    3.747295   2.086720   4.936213   5.732639   5.355869
    14  H    4.390349   2.086720   5.234042   6.042888   5.759226
    15  H    4.111438   2.086720   4.906018   5.880301   5.113635
    16  H    2.440923   2.441068   3.451981   4.339212   3.409110
    17  H    2.438820   2.438965   2.926830   3.940533   2.682044
                   11         12         13         14         15
    11  H    0.000000
    12  C    4.343063   0.000000
    13  H    4.906367   1.070000   0.000000
    14  H    4.839268   1.070000   1.747303   0.000000
    15  H    4.658631   1.070000   1.747303   1.747303   0.000000
    16  H    3.826505   2.759111   2.654018   3.819860   2.722936
    17  H    3.145062   3.063755   3.357582   4.044454   2.835303
                   16         17
    16  H    0.000000
    17  H    1.216600   0.000000
 Stoichiometry    C5H10N2(3)
 Framework group  C1[X(C5H10N2)]
 Deg. of freedom    45
 Full point group                 C1      NOp   1
 Largest Abelian subgroup         C1      NOp   1
 Largest concise Abelian subgroup C1      NOp   1
                         Standard orientation:                         
 ---------------------------------------------------------------------
 Center     Atomic      Atomic             Coordinates (Angstroms)
 Number     Number       Type             X           Y           Z
 ---------------------------------------------------------------------
      1          6           0        0.035708   -0.927909   -0.366905
      2          6           0        0.523407    1.244553    0.166387
      3          6           0       -0.707850    1.237436   -0.383598
      4          1           0        1.101962    2.124874    0.354026
      5          1           0       -1.242062    2.111189   -0.693555
      6          7           0       -1.200420   -0.137915   -0.523064
      7          7           0        0.970023   -0.125479    0.445579
      8          6           0       -2.174302   -0.479483    0.523733
      9          1           0       -3.037151    0.145663    0.425832
     10          1           0       -2.463146   -1.504660    0.421356
     11          1           0       -1.731489   -0.328076    1.485966
     12          6           0        2.380121   -0.335296    0.087107
     13          1           0        2.522506   -0.107632   -0.948652
     14          1           0        2.998237    0.304880    0.681250
     15          1           0        2.646016   -1.355861    0.267792
     16          1           0        0.462441   -1.740838   -1.312768
     17          1           0        0.012963   -2.241584   -0.299191
 ---------------------------------------------------------------------
 Rotational constants (GHZ):           5.4079528           2.1832953           1.7746674
 Leave Link  202 at Thu Nov 21 13:15:08 2019, MaxMem=   140000000 cpu:               0.2 elap:               0.0
 (Enter /usr/g16/l301.exe)
 Standard basis: 6-31G(d) (6D, 7F)
 Ernie: Thresh=  0.10000D-02 Tol=  0.10000D-05 Strict=F.
 There are   125 symmetry adapted cartesian basis functions of A   symmetry.
 There are   125 symmetry adapted basis functions of A   symmetry.
   125 basis functions,   236 primitive gaussians,   125 cartesian basis functions
    28 alpha electrons       26 beta electrons
       nuclear repulsion energy       314.2325018565 Hartrees.
 IExCor=  402 DFT=T Ex+Corr=B3LYP ExCW=0 ScaHFX=  0.200000
 ScaDFX=  0.800000  0.720000  1.000000  0.810000 ScalE2=  1.000000  1.000000
 IRadAn=      5 IRanWt=     -1 IRanGd=            0 ICorTp=0 IEmpDi=141
 NAtoms=   17 NActive=   17 NUniq=   17 SFac= 1.00D+00 NAtFMM=   60 NAOKFM=F Big=F
 Integral buffers will be    131072 words long.
 Raffenetti 2 integral format.
 Two-electron integral symmetry is turned on.
 R6Disp:  Grimme-D3(BJ) Dispersion energy=       -0.0247077954 Hartrees.
 Nuclear repulsion after empirical dispersion term =      314.2077940611 Hartrees.
 Force inversion solution in PCM.
 ------------------------------------------------------------------------------
 Polarizable Continuum Model (PCM)
 =================================
 Model                : PCM.
 Atomic radii         : SMD-Coulomb.
 Polarization charges : Total charges.
 Charge compensation  : None.
 Solution method      : Matrix inversion.
 Cavity type          : VdW (van der Waals Surface) (Alpha=1.000).
 Cavity algorithm     : GePol (No added spheres)
                        Default sphere list used, NSphG=   17.
                        Lebedev-Laikov grids with approx.  5.0 points / Ang**2.
                        Smoothing algorithm: York/Karplus (Gamma=1.0000).
                        Polarization charges: spherical gaussians, with
                                              point-specific exponents (IZeta= 3).
                        Self-potential: point-specific (ISelfS= 7).
                        Self-field    : sphere-specific E.n sum rule (ISelfD= 2).
 1st derivatives      : Analytical E(r).r(x)/FMM algorithm (CHGder, D1EAlg=3).
                        Cavity 1st derivative terms included.
 2nd derivatives      : Analytical E(r).r(xy)/FMM algorithm (CHGder, D2EAlg=3).
                        Cavity 2nd derivative terms included.
 Solvent              : Benzene, Eps=   2.270600 Eps(inf)=   2.253301
 ------------------------------------------------------------------------------
 Spheres list:
 ISph  on   Nord     Re0    Alpha      Xe            Ye            Ze
    1   C      1    1.8500  1.000      0.035708     -0.927909     -0.366905
    2   C      2    1.8500  1.000      0.523407      1.244553      0.166387
    3   C      3    1.8500  1.000     -0.707850      1.237436     -0.383598
    4   H      4    1.2000  1.000      1.101962      2.124874      0.354026
    5   H      5    1.2000  1.000     -1.242062      2.111189     -0.693555
    6   N      6    1.8900  1.000     -1.200420     -0.137915     -0.523064
    7   N      7    1.8900  1.000      0.970023     -0.125479      0.445579
    8   C      8    1.8500  1.000     -2.174302     -0.479483      0.523733
    9   H      9    1.2000  1.000     -3.037151      0.145663      0.425832
   10   H     10    1.2000  1.000     -2.463146     -1.504660      0.421356
   11   H     11    1.2000  1.000     -1.731489     -0.328076      1.485966
   12   C     12    1.8500  1.000      2.380121     -0.335296      0.087107
   13   H     13    1.2000  1.000      2.522506     -0.107632     -0.948652
   14   H     14    1.2000  1.000      2.998237      0.304880      0.681250
   15   H     15    1.2000  1.000      2.646016     -1.355861      0.267792
   16   H     16    1.2000  1.000      0.462441     -1.740838     -1.312768
   17   H     17    1.2000  1.000      0.012963     -2.241584     -0.299191
 ------------------------------------------------------------------------------
 GePol: Number of generator spheres                  =      17
 GePol: Total number of spheres                      =      17
 GePol: Number of exposed spheres                    =      17 (100.00%)
 GePol: Number of points                             =    1245
 GePol: Average weight of points                     =       0.11
 GePol: Minimum weight of points                     =   0.48D-09
 GePol: Maximum weight of points                     =    0.17992
 GePol: Number of points with low weight             =      58
 GePol: Fraction of low-weight points (<1% of avg)   =       4.66%
 GePol: Cavity surface area                          =    142.044 Ang**2
 GePol: Cavity volume                                =    118.474 Ang**3
 ------------------------------------------------------------------------------
 Atomic radii for non-electrostatic terms: SMD-CDS.
 ------------------------------------------------------------------------------
 PCM non-electrostatic energy =        -0.0043288018 Hartrees.
 Nuclear repulsion after PCM non-electrostatic terms =      314.2034652593 Hartrees.
 Leave Link  301 at Thu Nov 21 13:15:08 2019, MaxMem=   140000000 cpu:               2.3 elap:               0.1
 (Enter /usr/g16/l302.exe)
 NPDir=0 NMtPBC=     1 NCelOv=     1 NCel=       1 NClECP=     1 NCelD=      1
         NCelK=      1 NCelE2=     1 NClLst=     1 CellRange=     0.0.
 One-electron integrals computed using PRISM.
 One-electron integral symmetry used in STVInt
 NBasis=   125 RedAO= T EigKep=  2.07D-03  NBF=   125
 NBsUse=   125 1.00D-06 EigRej= -1.00D+00 NBFU=   125
 Precomputing XC quadrature grid using
 IXCGrd= 4 IRadAn=           5 IRanWt=          -1 IRanGd=           0 AccXCQ= 0.00D+00.
 Generated NRdTot=       0 NPtTot=           0 NUsed=           0 NTot=          32
 NSgBfM=   125   125   125   125   125 MxSgAt=    17 MxSgA2=    17.
 Leave Link  302 at Thu Nov 21 13:15:08 2019, MaxMem=   140000000 cpu:               4.2 elap:               0.2
 (Enter /usr/g16/l303.exe)
 DipDrv:  MaxL=1.
 Leave Link  303 at Thu Nov 21 13:15:08 2019, MaxMem=   140000000 cpu:               0.6 elap:               0.0
 (Enter /usr/g16/l401.exe)
 ExpMin= 1.61D-01 ExpMax= 4.17D+03 ExpMxC= 6.27D+02 IAcc=3 IRadAn=         5 AccDes= 0.00D+00
 Harris functional with IExCor=  402 and IRadAn=       5 diagonalized for initial guess.
 HarFok:  IExCor=  402 AccDes= 0.00D+00 IRadAn=         5 IDoV= 1 UseB2=F ITyADJ=14
 ICtDFT=  3500011 ScaDFX=  1.000000  1.000000  1.000000  1.000000
 FoFCou: FMM=F IPFlag=           0 FMFlag=      100000 FMFlg1=           0
         NFxFlg=           0 DoJE=T BraDBF=F KetDBF=T FulRan=T
         wScrn=  0.000000 ICntrl=       500 IOpCl=  0 I1Cent=   200000004 NGrid=           0
         NMat0=    1 NMatS0=      1 NMatT0=    0 NMatD0=    1 NMtDS0=    0 NMtDT0=    0
 Petite list used in FoFCou.
 Harris En= -305.767383351374    
 JPrj=0 DoOrth=F DoCkMO=F.
 Initial guess <Sx>= 0.0000 <Sy>= 0.0000 <Sz>= 1.0000 <S**2>= 2.0000 S= 1.0000
 Leave Link  401 at Thu Nov 21 13:15:08 2019, MaxMem=   140000000 cpu:              10.3 elap:               0.5
 (Enter /usr/g16/l502.exe)
 Integral symmetry usage will be decided dynamically.
 UHF open shell SCF:
 Using DIIS extrapolation, IDIIS=  1040.
 NGot=   140000000 LenX=   139964128 LenY=   139948062
 Requested convergence on RMS density matrix=1.00D-08 within 128 cycles.
 Requested convergence on MAX density matrix=1.00D-06.
 Requested convergence on             energy=1.00D-06.
 No special actions if energy rises.
 Fock matrices will be formed incrementally for  20 cycles.

 Cycle   1  Pass 1  IDiag  1:
 FoFJK:  IHMeth= 1 ICntrl=       0 DoSepK=F KAlg= 0 I1Cent=           0 FoldK=F
 IRaf= 980000000 NMat=       1 IRICut=       1 DoRegI=T DoRafI=F ISym2E= 0 IDoP0=0 IntGTp=1.
 FoFCou: FMM=F IPFlag=           0 FMFlag=      100000 FMFlg1=           0
         NFxFlg=           0 DoJE=F BraDBF=F KetDBF=F FulRan=T
         wScrn=  0.000000 ICntrl=         0 IOpCl=  1 I1Cent=           0 NGrid=           0
         NMat0=    1 NMatS0=      1 NMatT0=    0 NMatD0=    1 NMtDS0=    0 NMtDT0=    0
 Symmetry not used in FoFCou.
 Inv3:  Mode=1 IEnd=     4650075.
 Iteration    1 A*A^-1 deviation from unit magnitude is 4.88D-15 for   1212.
 Iteration    1 A*A^-1 deviation from orthogonality  is 2.01D-15 for   1212    943.
 Iteration    1 A^-1*A deviation from unit magnitude is 4.66D-15 for   1212.
 Iteration    1 A^-1*A deviation from orthogonality  is 1.76D-15 for   1239   1210.
 E= -305.509298511856    
 DIIS: error= 3.81D-02 at cycle   1 NSaved=   1.
 NSaved= 1 IEnMin= 1 EnMin= -305.509298511856     IErMin= 1 ErrMin= 3.81D-02
 ErrMax= 3.81D-02  0.00D+00 EMaxC= 1.00D-01 BMatC= 8.86D-01 BMatP= 8.86D-01
 IDIUse=3 WtCom= 6.19D-01 WtEn= 3.81D-01
 Coeff-Com:  0.100D+01
 Coeff-En:   0.100D+01
 Coeff:      0.100D+01
 Gap=    -0.157 Goal=   None    Shift=    0.000
 Gap=     0.050 Goal=   None    Shift=    0.000
 GapD=   -0.157 DampG=0.250 DampE=0.500 DampFc=0.2500 IDamp=-1.
 Damping current iteration by 2.50D-01
 RMSDP=2.58D-02 MaxDP=1.68D+00              OVMax= 9.56D-01

 Cycle   2  Pass 1  IDiag  1:
 RMSU=  6.42D-03    CP:  9.78D-01
 E= -305.613125458626     Delta-E=       -0.103826946769 Rises=F Damp=T
 DIIS: error= 1.70D-02 at cycle   2 NSaved=   2.
 NSaved= 2 IEnMin= 2 EnMin= -305.613125458626     IErMin= 2 ErrMin= 1.70D-02
 ErrMax= 1.70D-02  0.00D+00 EMaxC= 1.00D-01 BMatC= 1.70D-01 BMatP= 8.86D-01
 IDIUse=3 WtCom= 8.30D-01 WtEn= 1.70D-01
 Coeff-Com: -0.441D+00 0.144D+01
 Coeff-En:   0.000D+00 0.100D+01
 Coeff:     -0.366D+00 0.137D+01
 Gap=     0.091 Goal=   None    Shift=    0.000
 Gap=     0.285 Goal=   None    Shift=    0.000
 RMSDP=7.15D-03 MaxDP=4.19D-01 DE=-1.04D-01 OVMax= 9.91D-01

 Cycle   3  Pass 1  IDiag  1:
 RMSU=  4.50D-03    CP:  9.76D-01  1.35D-01
 E= -305.725927069663     Delta-E=       -0.112801611038 Rises=F Damp=F
 DIIS: error= 1.82D-02 at cycle   3 NSaved=   3.
 NSaved= 3 IEnMin= 3 EnMin= -305.725927069663     IErMin= 2 ErrMin= 1.70D-02
 ErrMax= 1.82D-02  0.00D+00 EMaxC= 1.00D-01 BMatC= 1.54D-01 BMatP= 1.70D-01
 IDIUse=3 WtCom= 8.18D-01 WtEn= 1.82D-01
 Coeff-Com: -0.359D+00 0.901D+00 0.458D+00
 Coeff-En:   0.000D+00 0.000D+00 0.100D+01
 Coeff:     -0.294D+00 0.737D+00 0.556D+00
 Gap=     0.019 Goal=   None    Shift=    0.000
 Gap=     0.101 Goal=   None    Shift=    0.000
 RMSDP=3.17D-03 MaxDP=5.71D-02 DE=-1.13D-01 OVMax= 2.75D-01

 Cycle   4  Pass 1  IDiag  1:
 RMSU=  3.08D-03    CP:  9.85D-01  2.25D-01  9.08D-01
 E= -305.771942126919     Delta-E=       -0.046015057256 Rises=F Damp=F
 DIIS: error= 3.93D-03 at cycle   4 NSaved=   4.
 NSaved= 4 IEnMin= 4 EnMin= -305.771942126919     IErMin= 4 ErrMin= 3.93D-03
 ErrMax= 3.93D-03  0.00D+00 EMaxC= 1.00D-01 BMatC= 2.28D-02 BMatP= 1.54D-01
 IDIUse=3 WtCom= 9.61D-01 WtEn= 3.93D-02
 Coeff-Com: -0.989D-01 0.225D+00 0.295D+00 0.579D+00
 Coeff-En:   0.000D+00 0.000D+00 0.192D-01 0.981D+00
 Coeff:     -0.950D-01 0.216D+00 0.284D+00 0.595D+00
 Gap=     0.053 Goal=   None    Shift=    0.000
 Gap=     0.119 Goal=   None    Shift=    0.000
 RMSDP=1.15D-03 MaxDP=2.37D-02 DE=-4.60D-02 OVMax= 3.85D-02

 Cycle   5  Pass 1  IDiag  1:
 RMSU=  8.03D-04    CP:  9.80D-01  2.16D-01  9.69D-01  7.50D-01
 E= -305.778303377319     Delta-E=       -0.006361250400 Rises=F Damp=F
 DIIS: error= 1.54D-03 at cycle   5 NSaved=   5.
 NSaved= 5 IEnMin= 5 EnMin= -305.778303377319     IErMin= 5 ErrMin= 1.54D-03
 ErrMax= 1.54D-03  0.00D+00 EMaxC= 1.00D-01 BMatC= 1.26D-03 BMatP= 2.28D-02
 IDIUse=3 WtCom= 9.85D-01 WtEn= 1.54D-02
 Coeff-Com: -0.778D-02 0.185D-01 0.681D-01 0.220D+00 0.701D+00
 Coeff-En:   0.000D+00 0.000D+00 0.000D+00 0.000D+00 0.100D+01
 Coeff:     -0.766D-02 0.182D-01 0.671D-01 0.216D+00 0.706D+00
 Gap=     0.068 Goal=   None    Shift=    0.000
 Gap=     0.123 Goal=   None    Shift=    0.000
 RMSDP=4.99D-04 MaxDP=9.13D-03 DE=-6.36D-03 OVMax= 4.61D-02

 Cycle   6  Pass 1  IDiag  1:
 RMSU=  4.12D-04    CP:  9.79D-01  2.16D-01  9.62D-01  7.23D-01  1.33D+00
 E= -305.778994808387     Delta-E=       -0.000691431068 Rises=F Damp=F
 DIIS: error= 7.46D-04 at cycle   6 NSaved=   6.
 NSaved= 6 IEnMin= 6 EnMin= -305.778994808387     IErMin= 6 ErrMin= 7.46D-04
 ErrMax= 7.46D-04  0.00D+00 EMaxC= 1.00D-01 BMatC= 9.88D-04 BMatP= 1.26D-03
 IDIUse=3 WtCom= 9.93D-01 WtEn= 7.46D-03
 Coeff-Com:  0.263D-01-0.454D-01-0.539D-02-0.556D-02 0.407D+00 0.623D+00
 Coeff-En:   0.000D+00 0.000D+00 0.000D+00 0.000D+00 0.000D+00 0.100D+01
 Coeff:      0.261D-01-0.451D-01-0.535D-02-0.552D-02 0.404D+00 0.625D+00
 Gap=     0.075 Goal=   None    Shift=    0.000
 Gap=     0.126 Goal=   None    Shift=    0.000
 RMSDP=3.12D-04 MaxDP=7.16D-03 DE=-6.91D-04 OVMax= 2.24D-02

 Cycle   7  Pass 1  IDiag  1:
 RMSU=  1.37D-04    CP:  9.78D-01  2.15D-01  9.70D-01  6.81D-01  1.61D+00
                    CP:  1.23D+00
 E= -305.779316030085     Delta-E=       -0.000321221698 Rises=F Damp=F
 DIIS: error= 4.65D-04 at cycle   7 NSaved=   7.
 NSaved= 7 IEnMin= 7 EnMin= -305.779316030085     IErMin= 7 ErrMin= 4.65D-04
 ErrMax= 4.65D-04  0.00D+00 EMaxC= 1.00D-01 BMatC= 2.80D-04 BMatP= 9.88D-04
 IDIUse=3 WtCom= 9.95D-01 WtEn= 4.65D-03
 Coeff-Com:  0.211D-01-0.289D-01 0.305D-02-0.767D-01-0.130D+00 0.101D+00
 Coeff-Com:  0.111D+01
 Coeff-En:   0.000D+00 0.000D+00 0.000D+00 0.000D+00 0.000D+00 0.000D+00
 Coeff-En:   0.100D+01
 Coeff:      0.210D-01-0.287D-01 0.304D-02-0.763D-01-0.129D+00 0.101D+00
 Coeff:      0.111D+01
 Gap=     0.080 Goal=   None    Shift=    0.000
 Gap=     0.126 Goal=   None    Shift=    0.000
 RMSDP=3.48D-04 MaxDP=9.21D-03 DE=-3.21D-04 OVMax= 1.84D-02

 Cycle   8  Pass 1  IDiag  1:
 RMSU=  6.35D-05    CP:  9.77D-01  2.13D-01  9.68D-01  6.20D-01  1.88D+00
                    CP:  1.65D+00  1.42D+00
 E= -305.779435974750     Delta-E=       -0.000119944664 Rises=F Damp=F
 DIIS: error= 2.60D-04 at cycle   8 NSaved=   8.
 NSaved= 8 IEnMin= 8 EnMin= -305.779435974750     IErMin= 8 ErrMin= 2.60D-04
 ErrMax= 2.60D-04  0.00D+00 EMaxC= 1.00D-01 BMatC= 7.13D-05 BMatP= 2.80D-04
 IDIUse=3 WtCom= 9.97D-01 WtEn= 2.60D-03
 Coeff-Com:  0.121D-01-0.151D-01 0.792D-02-0.405D-01-0.114D+00-0.236D-01
 Coeff-Com:  0.667D+00 0.506D+00
 Coeff-En:   0.000D+00 0.000D+00 0.000D+00 0.000D+00 0.000D+00 0.000D+00
 Coeff-En:   0.000D+00 0.100D+01
 Coeff:      0.121D-01-0.151D-01 0.790D-02-0.404D-01-0.114D+00-0.236D-01
 Coeff:      0.665D+00 0.508D+00
 Gap=     0.080 Goal=   None    Shift=    0.000
 Gap=     0.126 Goal=   None    Shift=    0.000
 RMSDP=7.50D-05 MaxDP=2.21D-03 DE=-1.20D-04 OVMax= 3.01D-03

 Cycle   9  Pass 1  IDiag  1:
 RMSU=  3.14D-05    CP:  9.77D-01  2.13D-01  9.67D-01  6.05D-01  1.92D+00
                    CP:  1.72D+00  1.57D+00  9.93D-01
 E= -305.779453247444     Delta-E=       -0.000017272694 Rises=F Damp=F
 DIIS: error= 1.21D-04 at cycle   9 NSaved=   9.
 NSaved= 9 IEnMin= 9 EnMin= -305.779453247444     IErMin= 9 ErrMin= 1.21D-04
 ErrMax= 1.21D-04  0.00D+00 EMaxC= 1.00D-01 BMatC= 1.18D-05 BMatP= 7.13D-05
 IDIUse=3 WtCom= 9.99D-01 WtEn= 1.21D-03
 Coeff-Com:  0.717D-03-0.309D-03 0.618D-02 0.104D-01 0.474D-02-0.491D-01
 Coeff-Com: -0.858D-01 0.223D+00 0.890D+00
 Coeff-En:   0.000D+00 0.000D+00 0.000D+00 0.000D+00 0.000D+00 0.000D+00
 Coeff-En:   0.000D+00 0.000D+00 0.100D+01
 Coeff:      0.717D-03-0.308D-03 0.617D-02 0.104D-01 0.473D-02-0.490D-01
 Coeff:     -0.857D-01 0.222D+00 0.891D+00
 Gap=     0.080 Goal=   None    Shift=    0.000
 Gap=     0.126 Goal=   None    Shift=    0.000
 RMSDP=5.74D-05 MaxDP=1.83D-03 DE=-1.73D-05 OVMax= 2.61D-03

 Cycle  10  Pass 1  IDiag  1:
 RMSU=  1.58D-05    CP:  9.77D-01  2.12D-01  9.67D-01  5.92D-01  1.94D+00
                    CP:  1.77D+00  1.69D+00  1.29D+00  1.18D+00
 E= -305.779457481354     Delta-E=       -0.000004233910 Rises=F Damp=F
 DIIS: error= 2.84D-05 at cycle  10 NSaved=  10.
 NSaved=10 IEnMin=10 EnMin= -305.779457481354     IErMin=10 ErrMin= 2.84D-05
 ErrMax= 2.84D-05  0.00D+00 EMaxC= 1.00D-01 BMatC= 8.67D-07 BMatP= 1.18D-05
 IDIUse=1 WtCom= 1.00D+00 WtEn= 0.00D+00
 Coeff-Com: -0.438D-03 0.603D-03 0.180D-02 0.806D-02 0.162D-01-0.141D-01
 Coeff-Com: -0.108D+00 0.402D-01 0.392D+00 0.663D+00
 Coeff:     -0.438D-03 0.603D-03 0.180D-02 0.806D-02 0.162D-01-0.141D-01
 Coeff:     -0.108D+00 0.402D-01 0.392D+00 0.663D+00
 Gap=     0.080 Goal=   None    Shift=    0.000
 Gap=     0.126 Goal=   None    Shift=    0.000
 RMSDP=1.54D-05 MaxDP=5.03D-04 DE=-4.23D-06 OVMax= 6.96D-04

 Cycle  11  Pass 1  IDiag  1:
 RMSU=  6.14D-06    CP:  9.77D-01  2.11D-01  9.68D-01  5.89D-01  1.95D+00
                    CP:  1.78D+00  1.73D+00  1.37D+00  1.34D+00  1.19D+00
 E= -305.779457801576     Delta-E=       -0.000000320222 Rises=F Damp=F
 DIIS: error= 1.54D-05 at cycle  11 NSaved=  11.
 NSaved=11 IEnMin=11 EnMin= -305.779457801576     IErMin=11 ErrMin= 1.54D-05
 ErrMax= 1.54D-05  0.00D+00 EMaxC= 1.00D-01 BMatC= 2.65D-07 BMatP= 8.67D-07
 IDIUse=1 WtCom= 1.00D+00 WtEn= 0.00D+00
 Coeff-Com: -0.413D-03 0.431D-03-0.329D-03 0.239D-02 0.744D-02 0.125D-02
 Coeff-Com: -0.467D-01-0.252D-01 0.317D-01 0.381D+00 0.649D+00
 Coeff:     -0.413D-03 0.431D-03-0.329D-03 0.239D-02 0.744D-02 0.125D-02
 Coeff:     -0.467D-01-0.252D-01 0.317D-01 0.381D+00 0.649D+00
 Gap=     0.081 Goal=   None    Shift=    0.000
 Gap=     0.126 Goal=   None    Shift=    0.000
 RMSDP=1.08D-05 MaxDP=3.53D-04 DE=-3.20D-07 OVMax= 4.90D-04

 Cycle  12  Pass 1  IDiag  1:
 RMSU=  2.86D-06    CP:  9.77D-01  2.11D-01  9.68D-01  5.87D-01  1.96D+00
                    CP:  1.79D+00  1.74D+00  1.43D+00  1.42D+00  1.40D+00
                    CP:  1.18D+00
 E= -305.779457925950     Delta-E=       -0.000000124374 Rises=F Damp=F
 DIIS: error= 5.65D-06 at cycle  12 NSaved=  12.
 NSaved=12 IEnMin=12 EnMin= -305.779457925950     IErMin=12 ErrMin= 5.65D-06
 ErrMax= 5.65D-06  0.00D+00 EMaxC= 1.00D-01 BMatC= 2.13D-08 BMatP= 2.65D-07
 IDIUse=1 WtCom= 1.00D+00 WtEn= 0.00D+00
 Coeff-Com: -0.288D-04 0.741D-05-0.546D-03-0.127D-02-0.131D-02 0.383D-02
 Coeff-Com:  0.140D-01-0.135D-01-0.798D-01-0.631D-01 0.661D-01 0.108D+01
 Coeff:     -0.288D-04 0.741D-05-0.546D-03-0.127D-02-0.131D-02 0.383D-02
 Coeff:      0.140D-01-0.135D-01-0.798D-01-0.631D-01 0.661D-01 0.108D+01
 Gap=     0.081 Goal=   None    Shift=    0.000
 Gap=     0.126 Goal=   None    Shift=    0.000
 RMSDP=6.36D-06 MaxDP=2.00D-04 DE=-1.24D-07 OVMax= 2.89D-04

 Cycle  13  Pass 1  IDiag  1:
 RMSU=  1.40D-06    CP:  9.77D-01  2.11D-01  9.68D-01  5.86D-01  1.96D+00
                    CP:  1.80D+00  1.76D+00  1.46D+00  1.48D+00  1.59D+00
                    CP:  1.47D+00  1.40D+00
 E= -305.779457954039     Delta-E=       -0.000000028089 Rises=F Damp=F
 DIIS: error= 2.94D-06 at cycle  13 NSaved=  13.
 NSaved=13 IEnMin=13 EnMin= -305.779457954039     IErMin=13 ErrMin= 2.94D-06
 ErrMax= 2.94D-06  0.00D+00 EMaxC= 1.00D-01 BMatC= 8.14D-09 BMatP= 2.13D-08
 IDIUse=1 WtCom= 1.00D+00 WtEn= 0.00D+00
 Coeff-Com:  0.346D-04-0.334D-04-0.204D-03-0.992D-03-0.189D-02 0.114D-02
 Coeff-Com:  0.149D-01-0.194D-02-0.440D-01-0.102D+00-0.114D+00 0.518D+00
 Coeff-Com:  0.731D+00
 Coeff:      0.346D-04-0.334D-04-0.204D-03-0.992D-03-0.189D-02 0.114D-02
 Coeff:      0.149D-01-0.194D-02-0.440D-01-0.102D+00-0.114D+00 0.518D+00
 Coeff:      0.731D+00
 Gap=     0.081 Goal=   None    Shift=    0.000
 Gap=     0.126 Goal=   None    Shift=    0.000
 RMSDP=2.56D-06 MaxDP=7.82D-05 DE=-2.81D-08 OVMax= 1.12D-04

 Cycle  14  Pass 1  IDiag  1:
 RMSU=  4.79D-07    CP:  9.77D-01  2.11D-01  9.68D-01  5.86D-01  1.96D+00
                    CP:  1.80D+00  1.76D+00  1.47D+00  1.50D+00  1.66D+00
                    CP:  1.59D+00  1.67D+00  1.13D+00
 E= -305.779457959374     Delta-E=       -0.000000005336 Rises=F Damp=F
 DIIS: error= 1.01D-06 at cycle  14 NSaved=  14.
 NSaved=14 IEnMin=14 EnMin= -305.779457959374     IErMin=14 ErrMin= 1.01D-06
 ErrMax= 1.01D-06  0.00D+00 EMaxC= 1.00D-01 BMatC= 7.26D-10 BMatP= 8.14D-09
 IDIUse=1 WtCom= 1.00D+00 WtEn= 0.00D+00
 Coeff-Com:  0.102D-04-0.739D-05 0.451D-04 0.230D-05-0.728D-04-0.424D-03
 Coeff-Com:  0.118D-02 0.128D-02 0.210D-02-0.145D-01-0.438D-01-0.526D-01
 Coeff-Com:  0.184D+00 0.922D+00
 Coeff:      0.102D-04-0.739D-05 0.451D-04 0.230D-05-0.728D-04-0.424D-03
 Coeff:      0.118D-02 0.128D-02 0.210D-02-0.145D-01-0.438D-01-0.526D-01
 Coeff:      0.184D+00 0.922D+00
 Gap=     0.081 Goal=   None    Shift=    0.000
 Gap=     0.126 Goal=   None    Shift=    0.000
 RMSDP=6.97D-07 MaxDP=2.78D-05 DE=-5.34D-09 OVMax= 2.72D-05

 Cycle  15  Pass 1  IDiag  1:
 RMSU=  2.10D-07    CP:  9.77D-01  2.11D-01  9.68D-01  5.86D-01  1.96D+00
                    CP:  1.80D+00  1.76D+00  1.47D+00  1.50D+00  1.68D+00
                    CP:  1.63D+00  1.76D+00  1.28D+00  1.25D+00
 E= -305.779457959983     Delta-E=       -0.000000000608 Rises=F Damp=F
 DIIS: error= 2.68D-07 at cycle  15 NSaved=  15.
 NSaved=15 IEnMin=15 EnMin= -305.779457959983     IErMin=15 ErrMin= 2.68D-07
 ErrMax= 2.68D-07  0.00D+00 EMaxC= 1.00D-01 BMatC= 1.04D-10 BMatP= 7.26D-10
 IDIUse=1 WtCom= 1.00D+00 WtEn= 0.00D+00
 Coeff-Com:  0.556D-05-0.870D-05 0.307D-04 0.885D-04 0.169D-03-0.127D-03
 Coeff-Com: -0.130D-02 0.327D-03 0.450D-02 0.750D-02 0.553D-02-0.620D-01
 Coeff-Com: -0.568D-01 0.153D+00 0.950D+00
 Coeff:      0.556D-05-0.870D-05 0.307D-04 0.885D-04 0.169D-03-0.127D-03
 Coeff:     -0.130D-02 0.327D-03 0.450D-02 0.750D-02 0.553D-02-0.620D-01
 Coeff:     -0.568D-01 0.153D+00 0.950D+00
 Gap=     0.081 Goal=   None    Shift=    0.000
 Gap=     0.126 Goal=   None    Shift=    0.000
 RMSDP=1.88D-07 MaxDP=7.78D-06 DE=-6.08D-10 OVMax= 7.68D-06

 Cycle  16  Pass 1  IDiag  1:
 RMSU=  8.78D-08    CP:  9.77D-01  2.11D-01  9.68D-01  5.86D-01  1.96D+00
                    CP:  1.80D+00  1.76D+00  1.47D+00  1.50D+00  1.68D+00
                    CP:  1.63D+00  1.76D+00  1.36D+00  1.44D+00  1.23D+00
 E= -305.779457960055     Delta-E=       -0.000000000072 Rises=F Damp=F
 DIIS: error= 1.29D-07 at cycle  16 NSaved=  16.
 NSaved=16 IEnMin=16 EnMin= -305.779457960055     IErMin=16 ErrMin= 1.29D-07
 ErrMax= 1.29D-07  0.00D+00 EMaxC= 1.00D-01 BMatC= 1.98D-11 BMatP= 1.04D-10
 IDIUse=1 WtCom= 1.00D+00 WtEn= 0.00D+00
 Coeff-Com:  0.281D-05-0.474D-05 0.877D-06 0.774D-05 0.178D-04 0.607D-04
 Coeff-Com: -0.333D-03-0.180D-03 0.233D-03 0.290D-02 0.841D-02 0.109D-03
 Coeff-Com: -0.381D-01-0.120D+00 0.178D+00 0.969D+00
 Coeff:      0.281D-05-0.474D-05 0.877D-06 0.774D-05 0.178D-04 0.607D-04
 Coeff:     -0.333D-03-0.180D-03 0.233D-03 0.290D-02 0.841D-02 0.109D-03
 Coeff:     -0.381D-01-0.120D+00 0.178D+00 0.969D+00
 Gap=     0.081 Goal=   None    Shift=    0.000
 Gap=     0.126 Goal=   None    Shift=    0.000
 RMSDP=1.12D-07 MaxDP=3.32D-06 DE=-7.17D-11 OVMax= 5.12D-06

 Cycle  17  Pass 1  IDiag  1:
 RMSU=  2.72D-08    CP:  9.77D-01  2.11D-01  9.68D-01  5.86D-01  1.96D+00
                    CP:  1.80D+00  1.76D+00  1.47D+00  1.50D+00  1.68D+00
                    CP:  1.63D+00  1.76D+00  1.37D+00  1.51D+00  1.46D+00
                    CP:  1.38D+00
 E= -305.779457960066     Delta-E=       -0.000000000011 Rises=F Damp=F
 DIIS: error= 4.19D-08 at cycle  17 NSaved=  17.
 NSaved=17 IEnMin=17 EnMin= -305.779457960066     IErMin=17 ErrMin= 4.19D-08
 ErrMax= 4.19D-08  0.00D+00 EMaxC= 1.00D-01 BMatC= 2.34D-12 BMatP= 1.98D-11
 IDIUse=1 WtCom= 1.00D+00 WtEn= 0.00D+00
 Coeff-Com:  0.565D-06-0.922D-06-0.177D-05-0.374D-05-0.972D-05 0.347D-04
 Coeff-Com:  0.241D-05-0.845D-04-0.358D-03 0.335D-03 0.291D-02 0.627D-02
 Coeff-Com: -0.786D-02-0.611D-01-0.360D-01 0.350D+00 0.746D+00
 Coeff:      0.565D-06-0.922D-06-0.177D-05-0.374D-05-0.972D-05 0.347D-04
 Coeff:      0.241D-05-0.845D-04-0.358D-03 0.335D-03 0.291D-02 0.627D-02
 Coeff:     -0.786D-02-0.611D-01-0.360D-01 0.350D+00 0.746D+00
 Gap=     0.081 Goal=   None    Shift=    0.000
 Gap=     0.126 Goal=   None    Shift=    0.000
 RMSDP=5.03D-08 MaxDP=1.66D-06 DE=-1.13D-11 OVMax= 2.40D-06

 Cycle  18  Pass 1  IDiag  1:
 RMSU=  1.02D-08    CP:  9.77D-01  2.11D-01  9.68D-01  5.86D-01  1.96D+00
                    CP:  1.80D+00  1.76D+00  1.47D+00  1.50D+00  1.68D+00
                    CP:  1.63D+00  1.76D+00  1.37D+00  1.53D+00  1.54D+00
                    CP:  1.53D+00  1.21D+00
 E= -305.779457960070     Delta-E=       -0.000000000004 Rises=F Damp=F
 DIIS: error= 1.85D-08 at cycle  18 NSaved=  18.
 NSaved=18 IEnMin=18 EnMin= -305.779457960070     IErMin=18 ErrMin= 1.85D-08
 ErrMax= 1.85D-08  0.00D+00 EMaxC= 1.00D-01 BMatC= 3.70D-13 BMatP= 2.34D-12
 IDIUse=1 WtCom= 1.00D+00 WtEn= 0.00D+00
 Coeff-Com: -0.373D-06 0.567D-06-0.711D-06-0.256D-05-0.763D-05-0.954D-07
 Coeff-Com:  0.786D-04 0.120D-04-0.176D-03-0.545D-03-0.674D-03 0.167D-02
 Coeff-Com:  0.565D-02 0.606D-02-0.460D-01-0.883D-01 0.232D+00 0.890D+00
 Coeff:     -0.373D-06 0.567D-06-0.711D-06-0.256D-05-0.763D-05-0.954D-07
 Coeff:      0.786D-04 0.120D-04-0.176D-03-0.545D-03-0.674D-03 0.167D-02
 Coeff:      0.565D-02 0.606D-02-0.460D-01-0.883D-01 0.232D+00 0.890D+00
 Gap=     0.081 Goal=   None    Shift=    0.000
 Gap=     0.126 Goal=   None    Shift=    0.000
 RMSDP=2.91D-08 MaxDP=9.39D-07 DE=-4.43D-12 OVMax= 1.41D-06

 Cycle  19  Pass 1  IDiag  1:
 RMSU=  3.31D-09    CP:  9.77D-01  2.11D-01  9.68D-01  5.86D-01  1.96D+00
                    CP:  1.80D+00  1.76D+00  1.47D+00  1.50D+00  1.68D+00
                    CP:  1.62D+00  1.76D+00  1.37D+00  1.53D+00  1.56D+00
                    CP:  1.63D+00  1.44D+00  1.13D+00
 E= -305.779457960068     Delta-E=        0.000000000003 Rises=F Damp=F
 DIIS: error= 5.08D-09 at cycle  19 NSaved=  19.
 NSaved=19 IEnMin=18 EnMin= -305.779457960070     IErMin=19 ErrMin= 5.08D-09
 ErrMax= 5.08D-09  0.00D+00 EMaxC= 1.00D-01 BMatC= 2.57D-14 BMatP= 3.70D-13
 IDIUse=1 WtCom= 1.00D+00 WtEn= 0.00D+00
 Coeff-Com: -0.149D-06 0.204D-06 0.973D-07 0.359D-06 0.657D-06-0.308D-05
 Coeff-Com:  0.266D-05 0.738D-05 0.382D-04-0.441D-04-0.249D-03-0.587D-03
 Coeff-Com:  0.877D-03 0.559D-02 0.675D-03-0.322D-01-0.504D-01 0.600D-01
 Coeff-Com:  0.102D+01
 Coeff:     -0.149D-06 0.204D-06 0.973D-07 0.359D-06 0.657D-06-0.308D-05
 Coeff:      0.266D-05 0.738D-05 0.382D-04-0.441D-04-0.249D-03-0.587D-03
 Coeff:      0.877D-03 0.559D-02 0.675D-03-0.322D-01-0.504D-01 0.600D-01
 Coeff:      0.102D+01
 Gap=     0.081 Goal=   None    Shift=    0.000
 Gap=     0.126 Goal=   None    Shift=    0.000
 RMSDP=8.06D-09 MaxDP=2.53D-07 DE= 2.73D-12 OVMax= 3.90D-07

 Error on total polarization charges =  0.02350
 SCF Done:  E(UB3LYP) =  -305.779457960     A.U. after   19 cycles
            NFock= 19  Conv=0.81D-08     -V/T= 2.0094
 <Sx>= 0.0000 <Sy>= 0.0000 <Sz>= 1.0000 <S**2>= 2.0071 S= 1.0024
 <L.S>= 0.000000000000E+00
 KE= 3.029269442134D+02 PE=-1.337727843569D+03 EE= 4.148179761359D+02
 SMD-CDS (non-electrostatic) energy       (kcal/mol) =      -2.72
 (included in total energy above)
 Annihilation of the first spin contaminant:
 S**2 before annihilation     2.0071,   after     2.0000
 Leave Link  502 at Thu Nov 21 13:15:23 2019, MaxMem=   140000000 cpu:             340.6 elap:              14.5
 (Enter /usr/g16/l801.exe)
 DoSCS=F DFT=T ScalE2(SS,OS)=  1.000000  1.000000
 Range of M.O.s used for correlation:     1   125
 NBasis=   125 NAE=    28 NBE=    26 NFC=     0 NFV=     0
 NROrb=    125 NOA=    28 NOB=    26 NVA=    97 NVB=    99

 **** Warning!!: The smallest alpha delta epsilon is  0.80587384D-01

 Leave Link  801 at Thu Nov 21 13:15:23 2019, MaxMem=   140000000 cpu:               0.5 elap:               0.0
 (Enter /usr/g16/l1101.exe)
 Using compressed storage, NAtomX=    17.
 Will process     18 centers per pass.
 R6Disp: Adding Grimme-D3(BJ) dispersion energy 1st derivatives to the gradient.
 Leave Link 1101 at Thu Nov 21 13:15:23 2019, MaxMem=   140000000 cpu:               3.1 elap:               0.2
 (Enter /usr/g16/l1102.exe)
 Symmetrizing basis deriv contribution to polar:
 IMax=3 JMax=2 DiffMx= 0.00D+00
 Leave Link 1102 at Thu Nov 21 13:15:23 2019, MaxMem=   140000000 cpu:               0.6 elap:               0.0
 (Enter /usr/g16/l1110.exe)
 Forming Gx(P) for the SCF density, NAtomX=    17.
 Integral derivatives from FoFJK, PRISM(SPDF).
 Do as many integral derivatives as possible in FoFJK.
 G2DrvN: MDV=     139998640.
 G2DrvN: will do    18 centers at a time, making    1 passes.
 Calling FoFCou, ICntrl=  3107 FMM=F I1Cent=   0 AccDes= 0.00D+00.
 FoFJK:  IHMeth= 1 ICntrl=    3107 DoSepK=F KAlg= 0 I1Cent=           0 FoldK=F
 IRaf=         0 NMat=       1 IRICut=       1 DoRegI=T DoRafI=F ISym2E= 0 IDoP0=0 IntGTp=1.
 FoFCou: FMM=F IPFlag=           0 FMFlag=      100000 FMFlg1=           0
         NFxFlg=           0 DoJE=F BraDBF=F KetDBF=F FulRan=T
         wScrn=  0.000000 ICntrl=      3107 IOpCl=  1 I1Cent=           0 NGrid=           0
         NMat0=    1 NMatS0=      1 NMatT0=    0 NMatD0=    1 NMtDS0=    0 NMtDT0=    0
 Symmetry not used in FoFCou.
 NEqPCM:  Using equilibrium solvation (IEInf=0, Eps=   2.2706, EpsInf=   2.2533)
 G2PCM: DoFxE=T DoFxN=T DoGrad=T DoDP/DQ/DG/TGxP=FFFF NFrqRd=   0 IEInf=0 SqF1=F DoCFld=F IF1Alg=4.
 GePol: Maximum number of non-zero 1st derivatives   =     238
 End of G2Drv F.D. properties file   721 does not exist.
 End of G2Drv F.D. properties file   722 does not exist.
 End of G2Drv F.D. properties file   788 does not exist.
 Leave Link 1110 at Thu Nov 21 13:15:38 2019, MaxMem=   140000000 cpu:             352.3 elap:              14.7
 (Enter /usr/g16/l1002.exe)
 Minotr:  UHF open shell wavefunction.
          IDoAtm=11111111111111111
 NEqPCM:  Using equilibrium solvation (IEInf=0, Eps=   2.2706, EpsInf=   2.2533)
          Direct CPHF calculation.
          Differentiating once with respect to nuclear coordinates.
          Requested convergence is 1.0D-08 RMS, and 1.0D-07 maximum.
          Secondary convergence is 1.0D-12 RMS, and 1.0D-12 maximum.
          NewPWx=T KeepS1=F KeepF1=F KeepIn=T MapXYZ=F SortEE=F KeepMc=T.
         5032 words used for storage of precomputed grid.
 Keep R1 and R2 ints in memory in canonical form, NReq=84765460.
 FoFCou: FMM=F IPFlag=           0 FMFlag=           0 FMFlg1=           0
         NFxFlg=           0 DoJE=F BraDBF=F KetDBF=F FulRan=T
         wScrn=  0.000000 ICntrl=       600 IOpCl=  0 I1Cent=           0 NGrid=           0
         NMat0=    1 NMatS0=   7875 NMatT0=    0 NMatD0=    1 NMtDS0=    0 NMtDT0=    0
 Symmetry not used in FoFCou.
 Two-electron integral symmetry not used.
          MDV=     140000000 using IRadAn=       1.
          Solving linear equations simultaneously, MaxMat=       0.
 CoulSu:  requested number of processors reduced to:  22 ShMem   1 Linda.
 CoulSu:  requested number of processors reduced to:  20 ShMem   1 Linda.
          There are    54 degrees of freedom in the 1st order CPHF.  IDoFFX=6 NUNeed=     0.
     48 vectors produced by pass  0 Test12= 9.80D-15 1.85D-09 XBig12= 3.14D-01 3.06D-01.
 AX will form    48 AO Fock derivatives at one time.
 CoulSu:  requested number of processors reduced to:  22 ShMem   1 Linda.
     48 vectors produced by pass  1 Test12= 9.80D-15 1.85D-09 XBig12= 6.07D-02 5.68D-02.
 CoulSu:  requested number of processors reduced to:  22 ShMem   1 Linda.
     48 vectors produced by pass  2 Test12= 9.80D-15 1.85D-09 XBig12= 1.81D-03 8.60D-03.
 CoulSu:  requested number of processors reduced to:  22 ShMem   1 Linda.
     48 vectors produced by pass  3 Test12= 9.80D-15 1.85D-09 XBig12= 1.37D-05 5.78D-04.
 CoulSu:  requested number of processors reduced to:  22 ShMem   1 Linda.
     48 vectors produced by pass  4 Test12= 9.80D-15 1.85D-09 XBig12= 8.82D-08 3.09D-05.
 CoulSu:  requested number of processors reduced to:  22 ShMem   1 Linda.
     48 vectors produced by pass  5 Test12= 9.80D-15 1.85D-09 XBig12= 3.15D-10 2.19D-06.
 CoulSu:  requested number of processors reduced to:  22 ShMem   1 Linda.
     28 vectors produced by pass  6 Test12= 9.80D-15 1.85D-09 XBig12= 9.13D-13 9.68D-08.
      4 vectors produced by pass  7 Test12= 9.80D-15 1.85D-09 XBig12= 1.82D-15 3.92D-09.
 InvSVY:  IOpt=1 It=  1 EMax= 6.66D-16
 Solved reduced A of dimension   320 with    54 vectors.
 End of Minotr F.D. properties file   721 does not exist.
 End of Minotr F.D. properties file   722 does not exist.
 End of Minotr F.D. properties file   788 does not exist.
 Leave Link 1002 at Thu Nov 21 13:15:54 2019, MaxMem=   140000000 cpu:             373.5 elap:              15.6
 (Enter /usr/g16/l601.exe)
 Copying SCF densities to generalized density rwf, IOpCl= 1 IROHF=0.

 **********************************************************************

            Population analysis using the SCF density.

 **********************************************************************

 Orbital symmetries:
 Alpha Orbitals:
       Occupied  (A) (A) (A) (A) (A) (A) (A) (A) (A) (A) (A) (A)
                 (A) (A) (A) (A) (A) (A) (A) (A) (A) (A) (A) (A)
                 (A) (A) (A) (A)
       Virtual   (A) (A) (A) (A) (A) (A) (A) (A) (A) (A) (A) (A)
                 (A) (A) (A) (A) (A) (A) (A) (A) (A) (A) (A) (A)
                 (A) (A) (A) (A) (A) (A) (A) (A) (A) (A) (A) (A)
                 (A) (A) (A) (A) (A) (A) (A) (A) (A) (A) (A) (A)
                 (A) (A) (A) (A) (A) (A) (A) (A) (A) (A) (A) (A)
                 (A) (A) (A) (A) (A) (A) (A) (A) (A) (A) (A) (A)
                 (A) (A) (A) (A) (A) (A) (A) (A) (A) (A) (A) (A)
                 (A) (A) (A) (A) (A) (A) (A) (A) (A) (A) (A) (A)
                 (A)
 Beta  Orbitals:
       Occupied  (A) (A) (A) (A) (A) (A) (A) (A) (A) (A) (A) (A)
                 (A) (A) (A) (A) (A) (A) (A) (A) (A) (A) (A) (A)
                 (A) (A)
       Virtual   (A) (A) (A) (A) (A) (A) (A) (A) (A) (A) (A) (A)
                 (A) (A) (A) (A) (A) (A) (A) (A) (A) (A) (A) (A)
                 (A) (A) (A) (A) (A) (A) (A) (A) (A) (A) (A) (A)
                 (A) (A) (A) (A) (A) (A) (A) (A) (A) (A) (A) (A)
                 (A) (A) (A) (A) (A) (A) (A) (A) (A) (A) (A) (A)
                 (A) (A) (A) (A) (A) (A) (A) (A) (A) (A) (A) (A)
                 (A) (A) (A) (A) (A) (A) (A) (A) (A) (A) (A) (A)
                 (A) (A) (A) (A) (A) (A) (A) (A) (A) (A) (A) (A)
                 (A) (A) (A)
 The electronic state is 3-A.
 Alpha  occ. eigenvalues --  -14.37713 -14.35884 -10.27349 -10.20080 -10.19185
 Alpha  occ. eigenvalues --  -10.17154 -10.16697  -0.97345  -0.88838  -0.74747
 Alpha  occ. eigenvalues --   -0.70637  -0.66912  -0.59936  -0.56416  -0.51102
 Alpha  occ. eigenvalues --   -0.46704  -0.44983  -0.44672  -0.42371  -0.41869
 Alpha  occ. eigenvalues --   -0.40544  -0.38018  -0.36380  -0.33061  -0.27788
 Alpha  occ. eigenvalues --   -0.26804  -0.19664  -0.04957
 Alpha virt. eigenvalues --    0.03101   0.08471   0.11598   0.12644   0.15174
 Alpha virt. eigenvalues --    0.15529   0.16624   0.16938   0.17755   0.18388
 Alpha virt. eigenvalues --    0.19630   0.20571   0.21712   0.23634   0.29579
 Alpha virt. eigenvalues --    0.33912   0.38890   0.50184   0.52232   0.53287
 Alpha virt. eigenvalues --    0.53878   0.54343   0.55677   0.56454   0.60007
 Alpha virt. eigenvalues --    0.61495   0.63783   0.67410   0.68256   0.72071
 Alpha virt. eigenvalues --    0.75167   0.76480   0.76856   0.81399   0.85165
 Alpha virt. eigenvalues --    0.86004   0.87151   0.88331   0.90427   0.91860
 Alpha virt. eigenvalues --    0.93069   0.94844   0.98070   0.98758   0.99711
 Alpha virt. eigenvalues --    0.99825   1.02219   1.08797   1.10359   1.18690
 Alpha virt. eigenvalues --    1.19421   1.27301   1.37530   1.41430   1.42573
 Alpha virt. eigenvalues --    1.47117   1.54763   1.59488   1.60858   1.69856
 Alpha virt. eigenvalues --    1.79148   1.80807   1.84727   1.91363   1.92044
 Alpha virt. eigenvalues --    1.92701   1.95462   1.98965   2.01132   2.04374
 Alpha virt. eigenvalues --    2.09974   2.12432   2.17130   2.19990   2.20560
 Alpha virt. eigenvalues --    2.22391   2.27283   2.32208   2.33599   2.44009
 Alpha virt. eigenvalues --    2.50865   2.55827   2.58092   2.63824   2.68350
 Alpha virt. eigenvalues --    2.73055   2.76779   2.80252   2.91910   3.00077
 Alpha virt. eigenvalues --    3.98361   4.08967   4.17829   4.23557   4.30223
 Alpha virt. eigenvalues --    4.32201   4.43525
  Beta  occ. eigenvalues --  -14.37124 -14.35600 -10.27368 -10.20029 -10.19042
  Beta  occ. eigenvalues --  -10.16007 -10.15615  -0.96264  -0.87790  -0.72789
  Beta  occ. eigenvalues --   -0.69830  -0.66317  -0.58843  -0.54636  -0.50413
  Beta  occ. eigenvalues --   -0.45774  -0.43974  -0.43753  -0.41842  -0.41382
  Beta  occ. eigenvalues --   -0.39917  -0.37228  -0.35971  -0.30868  -0.24687
  Beta  occ. eigenvalues --   -0.22217
  Beta virt. eigenvalues --   -0.09614   0.03583   0.08430   0.09345   0.11929
  Beta virt. eigenvalues --    0.13097   0.15671   0.16554   0.17004   0.17773
  Beta virt. eigenvalues --    0.18630   0.18766   0.20000   0.21148   0.22513
  Beta virt. eigenvalues --    0.24355   0.30035   0.34938   0.40856   0.50739
  Beta virt. eigenvalues --    0.53233   0.54243   0.54605   0.55774   0.56379
  Beta virt. eigenvalues --    0.58037   0.61311   0.64127   0.67045   0.67999
  Beta virt. eigenvalues --    0.69482   0.73517   0.76213   0.77353   0.77771
  Beta virt. eigenvalues --    0.82068   0.86055   0.86811   0.87710   0.89092
  Beta virt. eigenvalues --    0.91000   0.92437   0.93787   0.95789   0.98656
  Beta virt. eigenvalues --    0.99064   1.00163   1.00494   1.02871   1.09480
  Beta virt. eigenvalues --    1.12119   1.19390   1.20512   1.27846   1.38658
  Beta virt. eigenvalues --    1.42233   1.43682   1.50399   1.55938   1.60901
  Beta virt. eigenvalues --    1.62935   1.70990   1.80892   1.82180   1.85747
  Beta virt. eigenvalues --    1.92139   1.92823   1.93348   1.96480   1.99483
  Beta virt. eigenvalues --    2.01815   2.05302   2.11604   2.14759   2.18764
  Beta virt. eigenvalues --    2.21124   2.22453   2.24334   2.27671   2.33167
  Beta virt. eigenvalues --    2.37287   2.45465   2.52544   2.57634   2.59777
  Beta virt. eigenvalues --    2.65079   2.70876   2.74441   2.77593   2.81034
  Beta virt. eigenvalues --    2.92822   3.00994   3.99258   4.09870   4.19631
  Beta virt. eigenvalues --    4.24436   4.30860   4.32639   4.46033
          Condensed to atoms (all electrons):
               1          2          3          4          5          6
     1  C    5.028786  -0.081293  -0.065540   0.004993   0.005132   0.342398
     2  C   -0.081293   5.376680   0.242835   0.374281  -0.051222  -0.039633
     3  C   -0.065540   0.242835   5.331980  -0.043338   0.380201   0.321330
     4  H    0.004993   0.374281  -0.043338   0.559194  -0.001333   0.004881
     5  H    0.005132  -0.051222   0.380201  -0.001333   0.561243  -0.038143
     6  N    0.342398  -0.039633   0.321330   0.004881  -0.038143   6.742872
     7  N    0.251268   0.292074  -0.018562  -0.038162   0.003815  -0.081068
     8  C   -0.065614   0.003273  -0.077094  -0.000150   0.001895   0.290256
     9  H    0.006270  -0.000384  -0.000784   0.000002   0.001523  -0.034071
    10  H   -0.001270  -0.000682   0.008723   0.000010  -0.000121  -0.032628
    11  H   -0.004209   0.001459   0.001803  -0.000211  -0.000892  -0.049360
    12  C   -0.026719  -0.060215   0.006201  -0.000605  -0.000089   0.005057
    13  H   -0.007842   0.008939  -0.002155   0.000251  -0.000066   0.000027
    14  H    0.006067  -0.006253   0.000286   0.002166   0.000004  -0.000115
    15  H   -0.008882   0.006952  -0.000433   0.000032   0.000004  -0.000115
    16  H    0.288914  -0.002612  -0.001375   0.000019   0.000032  -0.020720
    17  H    0.312936   0.004572   0.002671  -0.000065  -0.000065  -0.017422
               7          8          9         10         11         12
     1  C    0.251268  -0.065614   0.006270  -0.001270  -0.004209  -0.026719
     2  C    0.292074   0.003273  -0.000384  -0.000682   0.001459  -0.060215
     3  C   -0.018562  -0.077094  -0.000784   0.008723   0.001803   0.006201
     4  H   -0.038162  -0.000150   0.000002   0.000010  -0.000211  -0.000605
     5  H    0.003815   0.001895   0.001523  -0.000121  -0.000892  -0.000089
     6  N   -0.081068   0.290256  -0.034071  -0.032628  -0.049360   0.005057
     7  N    6.847695  -0.005361  -0.000174   0.000577   0.008589   0.259679
     8  C   -0.005361   5.050314   0.377476   0.347436   0.368232   0.000205
     9  H   -0.000174   0.377476   0.549090  -0.027160  -0.034918   0.000004
    10  H    0.000577   0.347436  -0.027160   0.587737  -0.033441  -0.000025
    11  H    0.008589   0.368232  -0.034918  -0.033441   0.582251  -0.000263
    12  C    0.259679   0.000205   0.000004  -0.000025  -0.000263   5.030460
    13  H   -0.040100  -0.000038   0.000000   0.000004   0.000018   0.356491
    14  H   -0.033563   0.000013  -0.000000  -0.000001  -0.000001   0.385661
    15  H   -0.030319  -0.000029   0.000000   0.000008   0.000002   0.362223
    16  H   -0.025483   0.003478  -0.000224   0.000636  -0.000146  -0.005744
    17  H   -0.023316  -0.003595   0.000392   0.000119  -0.000012   0.001021
              13         14         15         16         17
     1  C   -0.007842   0.006067  -0.008882   0.288914   0.312936
     2  C    0.008939  -0.006253   0.006952  -0.002612   0.004572
     3  C   -0.002155   0.000286  -0.000433  -0.001375   0.002671
     4  H    0.000251   0.002166   0.000032   0.000019  -0.000065
     5  H   -0.000066   0.000004   0.000004   0.000032  -0.000065
     6  N    0.000027  -0.000115  -0.000115  -0.020720  -0.017422
     7  N   -0.040100  -0.033563  -0.030319  -0.025483  -0.023316
     8  C   -0.000038   0.000013  -0.000029   0.003478  -0.003595
     9  H    0.000000  -0.000000   0.000000  -0.000224   0.000392
    10  H    0.000004  -0.000001   0.000008   0.000636   0.000119
    11  H    0.000018  -0.000001   0.000002  -0.000146  -0.000012
    12  C    0.356491   0.385661   0.362223  -0.005744   0.001021
    13  H    0.574054  -0.033995  -0.031629   0.009769  -0.001838
    14  H   -0.033995   0.536961  -0.032352   0.000210  -0.000286
    15  H   -0.031629  -0.032352   0.574106  -0.002193   0.004048
    16  H    0.009769   0.000210  -0.002193   0.828053  -0.195606
    17  H   -0.001838  -0.000286   0.004048  -0.195606   0.785488
          Atomic-Atomic Spin Densities.
               1          2          3          4          5          6
     1  C    0.019869  -0.011008   0.008157   0.000049  -0.000161   0.008454
     2  C   -0.011008   1.164764  -0.271140   0.002025  -0.004380  -0.007432
     3  C    0.008157  -0.271140   1.184446  -0.002281   0.001943  -0.065796
     4  H    0.000049   0.002025  -0.002281  -0.044859   0.000391   0.000033
     5  H   -0.000161  -0.004380   0.001943   0.000391  -0.042912  -0.000571
     6  N    0.008454  -0.007432  -0.065796   0.000033  -0.000571   0.182560
     7  N   -0.047171  -0.106829  -0.010404  -0.000307  -0.000297  -0.000891
     8  C   -0.011449   0.002958  -0.041245   0.000039   0.001340  -0.002153
     9  H   -0.000051  -0.000090   0.000652  -0.000001  -0.000157   0.000266
    10  H    0.004522  -0.000487   0.004068  -0.000001  -0.000113   0.001902
    11  H    0.001453  -0.001246   0.012846  -0.000020  -0.000085  -0.004254
    12  C    0.020467  -0.024398   0.003188  -0.000326   0.000030   0.000044
    13  H   -0.003514   0.021707  -0.001524   0.000489  -0.000017  -0.000134
    14  H    0.000979  -0.002646   0.000225  -0.000213   0.000004   0.000017
    15  H   -0.005145   0.001631  -0.000276  -0.000017  -0.000002  -0.000045
    16  H   -0.017737   0.004938   0.000623   0.000045  -0.000008  -0.008970
    17  H    0.023978  -0.000743   0.000277  -0.000008   0.000005   0.002818
               7          8          9         10         11         12
     1  C   -0.047171  -0.011449  -0.000051   0.004522   0.001453   0.020467
     2  C   -0.106829   0.002958  -0.000090  -0.000487  -0.001246  -0.024398
     3  C   -0.010404  -0.041245   0.000652   0.004068   0.012846   0.003188
     4  H   -0.000307   0.000039  -0.000001  -0.000001  -0.000020  -0.000326
     5  H   -0.000297   0.001340  -0.000157  -0.000113  -0.000085   0.000030
     6  N   -0.000891  -0.002153   0.000266   0.001902  -0.004254   0.000044
     7  N    0.420821  -0.003820   0.000037   0.000874  -0.001119  -0.014696
     8  C   -0.003820   0.133936   0.000901  -0.035410  -0.016999   0.000179
     9  H    0.000037   0.000901  -0.003046  -0.000010   0.000709  -0.000001
    10  H    0.000874  -0.035410  -0.000010   0.029928   0.006713  -0.000042
    11  H   -0.001119  -0.016999   0.000709   0.006713   0.011162  -0.000009
    12  C   -0.014696   0.000179  -0.000001  -0.000042  -0.000009   0.061004
    13  H   -0.009370  -0.000007   0.000000   0.000004  -0.000007  -0.032701
    14  H   -0.002445   0.000005  -0.000000  -0.000001  -0.000002   0.007167
    15  H    0.006734  -0.000039   0.000000   0.000010   0.000016  -0.014604
    16  H   -0.008486   0.001403  -0.000005  -0.000075  -0.000294  -0.008534
    17  H   -0.001955  -0.001509  -0.000011   0.000105   0.000688   0.003140
              13         14         15         16         17
     1  C   -0.003514   0.000979  -0.005145  -0.017737   0.023978
     2  C    0.021707  -0.002646   0.001631   0.004938  -0.000743
     3  C   -0.001524   0.000225  -0.000276   0.000623   0.000277
     4  H    0.000489  -0.000213  -0.000017   0.000045  -0.000008
     5  H   -0.000017   0.000004  -0.000002  -0.000008   0.000005
     6  N   -0.000134   0.000017  -0.000045  -0.008970   0.002818
     7  N   -0.009370  -0.002445   0.006734  -0.008486  -0.001955
     8  C   -0.000007   0.000005  -0.000039   0.001403  -0.001509
     9  H    0.000000  -0.000000   0.000000  -0.000005  -0.000011
    10  H    0.000004  -0.000001   0.000010  -0.000075   0.000105
    11  H   -0.000007  -0.000002   0.000016  -0.000294   0.000688
    12  C   -0.032701   0.007167  -0.014604  -0.008534   0.003140
    13  H    0.047329  -0.006084   0.007079   0.006439  -0.000909
    14  H   -0.006084   0.007836  -0.003651  -0.000158   0.000063
    15  H    0.007079  -0.003651   0.011323   0.001433  -0.001153
    16  H    0.006439  -0.000158   0.001433   0.158335  -0.038039
    17  H   -0.000909   0.000063  -0.001153  -0.038039   0.020760
 Mulliken charges and spin densities:
               1          2
     1  C    0.014605  -0.008309
     2  C   -0.068772   0.767624
     3  C   -0.086749   0.823759
     4  H    0.138036  -0.044963
     5  H    0.138083  -0.044990
     6  N   -0.393547   0.105847
     7  N   -0.367589   0.220678
     8  C   -0.290698   0.028130
     9  H    0.162959  -0.000808
    10  H    0.150078   0.011986
    11  H    0.161101   0.009552
    12  C   -0.313342  -0.000090
    13  H    0.168110   0.028780
    14  H    0.175198   0.001095
    15  H    0.158576   0.003293
    16  H    0.122991   0.090909
    17  H    0.130959   0.007505
 Sum of Mulliken charges =  -0.00000   2.00000
 Mulliken charges and spin densities with hydrogens summed into heavy atoms:
               1          2
     1  C    0.268555   0.090105
     2  C    0.069264   0.722660
     3  C    0.051334   0.778770
     6  N   -0.393547   0.105847
     7  N   -0.367589   0.220678
     8  C    0.183440   0.048861
    12  C    0.188542   0.033078
 APT charges:
               1
     1  C   -0.684873
     2  C   -0.477054
     3  C   -0.514190
     4  H    0.539687
     5  H    0.564505
     6  N   -0.324536
     7  N   -0.337735
     8  C   -1.105856
     9  H    0.538493
    10  H    0.442431
    11  H    0.251720
    12  C   -1.170630
    13  H    0.336074
    14  H    0.529381
    15  H    0.449475
    16  H    0.472121
    17  H    0.490985
 Sum of APT charges =  -0.00000
 APT charges with hydrogens summed into heavy atoms:
               1
     1  C    0.278233
     2  C    0.062633
     3  C    0.050315
     6  N   -0.324536
     7  N   -0.337735
     8  C    0.126789
    12  C    0.144301
 Electronic spatial extent (au):  <R**2>=            764.7372
 Charge=             -0.0000 electrons
 Dipole moment (field-independent basis, Debye):
    X=              1.1072    Y=             -1.5273    Z=              0.0772  Tot=              1.8880
 Quadrupole moment (field-independent basis, Debye-Ang):
   XX=            -39.2932   YY=            -39.0854   ZZ=            -47.7759
   XY=             -0.7191   XZ=             -1.5945   YZ=              1.3798
 Traceless Quadrupole moment (field-independent basis, Debye-Ang):
   XX=              2.7583   YY=              2.9661   ZZ=             -5.7244
   XY=             -0.7191   XZ=             -1.5945   YZ=              1.3798
 Octapole moment (field-independent basis, Debye-Ang**2):
  XXX=              4.9315  YYY=             -4.3978  ZZZ=              2.9410  XYY=              1.5658
  XXY=              0.4171  XXZ=              4.8193  XZZ=              1.2866  YZZ=             -1.5083
  YYZ=             -4.7174  XYZ=              2.4376
 Hexadecapole moment (field-independent basis, Debye-Ang**3):
 XXXX=           -611.6605 YYYY=           -242.7636 ZZZZ=           -117.0971 XXXY=             -1.2549
 XXXZ=              1.6340 YYYX=             -3.4955 YYYZ=              7.3454 ZZZX=             -3.1711
 ZZZY=             -0.5348 XXYY=           -147.7118 XXZZ=           -129.9859 YYZZ=            -65.6312
 XXYZ=             -0.8815 YYXZ=              3.7646 ZZXY=              0.0719
 N-N= 3.142034652593D+02 E-N=-1.337727843418D+03  KE= 3.029269442134D+02
  Exact polarizability:   0.000   0.000   0.000   0.000   0.000   0.000
 Approx polarizability: 100.013  -7.451 150.101   4.930  12.023  72.257
                          Isotropic Fermi Contact Couplings
        Atom                 a.u.       MegaHertz       Gauss      10(-4) cm-1
     1  C(13)             -0.00794      -4.46133      -1.59191      -1.48814
     2  C(13)              0.07579      42.60102      15.20110      14.21017
     3  C(13)              0.07403      41.61311      14.84859      13.88064
     4  H(1)              -0.01443     -32.24614     -11.50622     -10.75615
     5  H(1)              -0.01433     -32.02872     -11.42864     -10.68363
     6  N(14)              0.05163       8.34133       2.97640       2.78237
     7  N(14)              0.13577      21.93416       7.82666       7.31645
     8  C(13)              0.07861      44.18831      15.76749      14.73963
     9  H(1)               0.00073       1.64054       0.58539       0.54723
    10  H(1)               0.00074       1.65123       0.58920       0.55079
    11  H(1)               0.00157       3.51216       1.25323       1.17153
    12  C(13)              0.03620      20.34826       7.26077       6.78745
    13  H(1)               0.00371       8.28374       2.95584       2.76316
    14  H(1)               0.00152       3.40516       1.21505       1.13584
    15  H(1)               0.00011       0.25619       0.09141       0.08546
    16  H(1)               0.03094      69.14321      24.67202      23.06369
    17  H(1)               0.00529      11.83105       4.22161       3.94641
 --------------------------------------------------------
       Center         ----  Spin Dipole Couplings  ----
                      3XX-RR        3YY-RR        3ZZ-RR
 --------------------------------------------------------
     1   Atom        0.003591      0.023357     -0.026947
     2   Atom       -0.232522     -0.470823      0.703344
     3   Atom       -0.216076     -0.490175      0.706251
     4   Atom       -0.012153      0.022384     -0.010231
     5   Atom       -0.013853      0.023020     -0.009167
     6   Atom       -0.130040     -0.171324      0.301364
     7   Atom       -0.299255     -0.285084      0.584338
     8   Atom        0.009913     -0.023685      0.013772
     9   Atom        0.018132     -0.007354     -0.010778
    10   Atom        0.000266      0.006485     -0.006751
    11   Atom       -0.002417     -0.003709      0.006126
    12   Atom        0.037918     -0.014922     -0.022996
    13   Atom        0.009573     -0.005110     -0.004463
    14   Atom        0.016927     -0.008465     -0.008462
    15   Atom        0.005882      0.001565     -0.007447
    16   Atom       -0.003182      0.007350     -0.004169
    17   Atom       -0.007606      0.012222     -0.004617
 --------------------------------------------------------
                        XY            XZ            YZ
 --------------------------------------------------------
     1   Atom        0.001081      0.040304     -0.007331
     2   Atom        0.004014     -0.471386     -0.004840
     3   Atom       -0.043283     -0.526196      0.093176
     4   Atom        0.062135     -0.004589      0.021823
     5   Atom       -0.062904     -0.001761     -0.028322
     6   Atom        0.022071      0.167308      0.075421
     7   Atom        0.017375     -0.088433     -0.169701
     8   Atom        0.024174     -0.046043     -0.024221
     9   Atom        0.002703     -0.007940      0.000372
    10   Atom        0.011366     -0.003901     -0.003892
    11   Atom        0.009289     -0.008413     -0.009177
    12   Atom       -0.016260      0.000676      0.001194
    13   Atom       -0.008065     -0.010817      0.002023
    14   Atom       -0.001580      0.005715     -0.000824
    15   Atom       -0.011980      0.000493     -0.000258
    16   Atom       -0.003101      0.000541      0.006615
    17   Atom        0.000572     -0.001187      0.002503
 --------------------------------------------------------


 ---------------------------------------------------------------------------------
              Anisotropic Spin Dipole Couplings in Principal Axis System
 ---------------------------------------------------------------------------------

       Atom             a.u.   MegaHertz   Gauss  10(-4) cm-1        Axes

              Baa    -0.0553    -7.426    -2.650    -2.477 -0.5636  0.0843  0.8218
     1 C(13)  Bbb     0.0227     3.046     1.087     1.016  0.3338  0.9332  0.1332
              Bcc     0.0326     4.380     1.563     1.461  0.7556 -0.3494  0.5540
 
              Baa    -0.4709   -63.194   -22.549   -21.079 -0.0421  0.9990 -0.0128
     2 C(13)  Bbb    -0.4287   -57.529   -20.528   -19.190  0.9222  0.0437  0.3842
              Bcc     0.8996   120.723    43.077    40.269 -0.3844 -0.0044  0.9232
 
              Baa    -0.4975   -66.762   -23.822   -22.269  0.0495  0.9972 -0.0555
     3 C(13)  Bbb    -0.4546   -60.999   -21.766   -20.347  0.9099 -0.0221  0.4142
              Bcc     0.9521   127.761    45.588    42.616 -0.4119  0.0711  0.9085
 
              Baa    -0.0647   -34.544   -12.326   -11.523  0.7383 -0.6025  0.3033
     4 H(1)   Bbb    -0.0075    -4.009    -1.431    -1.337 -0.3494  0.0430  0.9360
              Bcc     0.0723    38.554    13.757    12.860  0.5769  0.7970  0.1788
 
              Baa    -0.0672   -35.833   -12.786   -11.953  0.7275  0.6076  0.3188
     5 H(1)   Bbb    -0.0086    -4.608    -1.644    -1.537 -0.4071  0.0082  0.9133
              Bcc     0.0758    40.441    14.430    13.490 -0.5523  0.7942 -0.2533
 
              Baa    -0.1892    -7.298    -2.604    -2.434  0.8108  0.4701 -0.3488
     6 N(14)  Bbb    -0.1808    -6.974    -2.488    -2.326 -0.4903  0.8709  0.0339
              Bcc     0.3700    14.271     5.092     4.760  0.3197  0.1435  0.9366
 
              Baa    -0.3171   -12.229    -4.364    -4.079 -0.0779  0.9811  0.1771
     7 N(14)  Bbb    -0.3080   -11.878    -4.238    -3.962  0.9922  0.0590  0.1095
              Bcc     0.6251    24.108     8.602     8.041 -0.0970 -0.1842  0.9781
 
              Baa    -0.0363    -4.875    -1.739    -1.626 -0.4381  0.8984  0.0317
     8 C(13)  Bbb    -0.0340    -4.568    -1.630    -1.524  0.6188  0.2757  0.7355
              Bcc     0.0704     9.443     3.370     3.150 -0.6521 -0.3419  0.6767
 
              Baa    -0.0130    -6.942    -2.477    -2.315  0.2579 -0.1856  0.9482
     9 H(1)   Bbb    -0.0074    -3.943    -1.407    -1.315 -0.0406  0.9784  0.2026
              Bcc     0.0204    10.884     3.884     3.631  0.9653  0.0907 -0.2448
 
              Baa    -0.0090    -4.784    -1.707    -1.596  0.7105 -0.3722  0.5972
    10 H(1)   Bbb    -0.0075    -3.991    -1.424    -1.331 -0.3743  0.5189  0.7686
              Bcc     0.0164     8.775     3.131     2.927  0.5959  0.7696 -0.2294
 
              Baa    -0.0125    -6.651    -2.373    -2.219 -0.6326  0.7688  0.0932
    11 H(1)   Bbb    -0.0061    -3.281    -1.171    -1.094  0.5890  0.3995  0.7024
              Bcc     0.0186     9.932     3.544     3.313 -0.5028 -0.4993  0.7056
 
              Baa    -0.0235    -3.147    -1.123    -1.050 -0.0921 -0.3081  0.9469
    12 C(13)  Bbb    -0.0191    -2.559    -0.913    -0.854  0.2563  0.9116  0.3215
              Bcc     0.0425     5.706     2.036     1.903  0.9622 -0.2723  0.0050
 
              Baa    -0.0114    -6.102    -2.177    -2.035  0.5397  0.4634  0.7028
    13 H(1)   Bbb    -0.0068    -3.632    -1.296    -1.212  0.0311  0.8233 -0.5667
              Bcc     0.0182     9.734     3.473     3.247  0.8413 -0.3278 -0.4300
 
              Baa    -0.0099    -5.262    -1.878    -1.755 -0.1765  0.3441  0.9222
    14 H(1)   Bbb    -0.0084    -4.483    -1.600    -1.495  0.1316  0.9368 -0.3243
              Bcc     0.0183     9.745     3.477     3.251  0.9755 -0.0641  0.2106
 
              Baa    -0.0085    -4.516    -1.611    -1.506  0.6389  0.7602 -0.1176
    15 H(1)   Bbb    -0.0074    -3.973    -1.418    -1.325  0.0577  0.1051  0.9928
              Bcc     0.0159     8.489     3.029     2.832  0.7671 -0.6411  0.0233
 
              Baa    -0.0079    -4.218    -1.505    -1.407 -0.3773 -0.4319  0.8192
    16 H(1)   Bbb    -0.0029    -1.571    -0.560    -0.524  0.9076  0.0036  0.4199
              Bcc     0.0108     5.789     2.066     1.931 -0.1843  0.9019  0.3907
 
              Baa    -0.0081    -4.331    -1.545    -1.445  0.9281 -0.0711  0.3656
[...]
   zx        -0.760016D+00     -0.112623D+00     -0.125310D+00
   zy         0.117577D+02      0.174232D+01      0.193859D+01
   zz         0.833842D+02      0.123563D+02      0.137482D+02

 ----------------------------------------------------------------------
 1\1\GINC-LW06\Freq\UB3LYP\6-31G(d)\C5H10N2(3)\WSR\21-Nov-2019\0\\#P Ge
 om=AllCheck Guess=TCheck SCRF=Check GenChk UB3LYP/6-31G(d) Freq\\Title
  Card Required\\0,3\C,0.0133562457,-0.38951924,-1.1446532032\C,1.74085
 84203,0.9795654791,-1.8679887878\C,0.8260881098,1.8037649334,-1.007201
 1001\H,2.5641814461,1.2681681544,-2.50073938\H,0.6401145537,2.85953105
 19,-1.2238532581\N,-0.323037893,1.0013526787,-0.8937626684\N,1.3470244
 352,-0.3565939916,-1.7315212956\C,-1.3339396577,1.2916916943,0.0992607
 865\H,-1.5839933779,2.3558407065,0.0526305827\H,-2.241804856,0.7157212
 011,-0.1097435744\H,-0.9944175867,1.0615708772,1.1226964957\C,1.629033
 8439,-1.3070099912,-2.7888262635\H,1.045608519,-1.10498438,-3.70450407
 46\H,2.6928914117,-1.2548636626,-3.0392881005\H,1.4118698433,-2.324377
 6933,-2.4472879517\H,-0.7130051268,-0.8372973016,-1.840756209\H,0.0056
 973292,-0.9825484264,-0.2151644279\\Version=ES64L-G16RevA.03\State=3-A
 \HF=-305.9395619\S2=2.00556\S2-1=0.\S2A=2.000018\RMSD=3.710e-09\RMSF=7
 .007e-06\ZeroPoint=0.1461983\Thermal=0.154021\Dipole=-0.6687254,-0.674
 8263,-0.1670685\DipoleDeriv=0.4890443,-0.0589911,-0.0053195,-0.0358971
 ,0.5480659,-0.0322538,0.085017,-0.0447846,0.5762235,0.0309078,0.157679
 ,-0.3267207,-0.0128906,0.117582,-0.0726452,-0.2061495,-0.2209275,-0.24
 28876,0.1354206,-0.1459211,-0.0551972,0.0837653,0.4589866,0.0372477,-0
 .0006467,-0.0759045,-0.1555236,0.0204824,-0.033427,0.1486717,0.0220121
 ,0.0513989,-0.0377045,0.1639109,-0.0180551,0.1030624,0.0583413,0.16438
 67,0.0374361,0.0365902,-0.2711754,-0.0077425,0.0416321,0.187574,0.0927
 629,-0.843615,0.0408272,0.3315029,0.0241454,-0.5094604,-0.08014,-0.169
 4065,-0.1225551,-0.3982123,-0.4924507,0.2456531,0.2536959,0.1880211,-0
 .780579,-0.179273,0.102735,0.1794848,-0.4770809,0.6180727,-0.0868198,-
 0.2269171,-0.1075464,0.2081979,0.061588,-0.1072853,-0.0168394,0.574323
 9,0.0385763,0.0254887,0.0267724,0.0917804,-0.1240362,-0.0174856,0.0253
 909,0.0367202,0.0391936,-0.1168822,-0.0615201,0.0144329,-0.1287288,0.0
 194344,-0.0137247,-0.0351724,-0.0512011,0.0124372,-0.0572161,0.0529688
 ,-0.0741498,0.0317142,0.0228791,0.0575356,0.122223,0.015822,-0.2708729
 ,0.3116588,-0.1870578,-0.0240954,-0.1398375,0.5250621,0.2221539,0.0277
 758,0.2040272,0.6125354,-0.0461201,-0.0004033,-0.1545355,0.0782789,-0.
 0273725,0.0415103,-0.0358058,-0.16194,-0.2560779,-0.1423275,0.0346288,
 0.0713182,-0.0304076,0.0581353,-0.0085521,0.0341731,-0.0496384,0.02654
 61,0.0688933,-0.0546664,0.008499,0.0021147,-0.1569632,0.0071567,0.0290
 695,0.0702511,0.0015355,-0.0889753,-0.1100446,-0.0448838,-0.0474655,-0
 .0397422,-0.0499489,-0.109314,-0.0743926,-0.0770624,0.0161893,0.017219
 ,0.01949,-0.0556489,-0.1004134,0.0722781,0.0318529,0.1423588,-0.160903
 1\Polar=77.3974147,3.6112159,87.2268907,-16.0962641,7.7772173,65.86458
 47\Quadrupole=0.1246456,0.5521797,-0.6768254,-0.8826196,-3.3255318,0.7
 875049\PG=C01 [X(C5H10N2)]\NImag=1\\0.49091717,0.08208013,0.53750811,0
 .02229420,-0.01524855,0.57549675,-0.02325087,-0.03149814,0.01168865,0.
 45126725,-0.02512132,-0.00833659,0.01888155,0.10405536,0.54226949,0.00
 923366,0.01291722,-0.00359029,-0.37330660,0.00956360,0.26837084,0.0068
 5813,-0.01252099,-0.00921228,-0.10674717,0.06001760,0.10397276,0.40964
 665,-0.02643966,-0.03998982,-0.00866420,0.03396850,-0.13152069,-0.0597
 8946,0.00750714,0.65438685,-0.00509824,0.00886820,0.00073941,0.0914757
 7,-0.07021280,-0.10511448,-0.12392862,0.03137621,0.20434632,-0.0007420
 3,-0.00071220,0.00234230,-0.20832120,-0.06896358,0.18016270,-0.0040444
 6,-0.00731401,-0.00432683,0.22117336,0.00161158,-0.00566189,-0.0007134
 1,-0.06137140,-0.07383741,0.03620359,0.00975023,0.01037090,-0.00640015
 ,0.07272207,0.07386519,-0.00175109,-0.00172254,0.00156184,0.18518121,0
 .04430482,-0.11714466,0.00062556,0.00609624,-0.00809798,-0.17835310,-0
 .04712227,0.12564910,-0.00333447,-0.00310367,0.00350806,0.00189323,0.0
 1419081,-0.00345870,-0.05746519,0.06349492,-0.00284931,0.00040507,-0.0
 0027977,0.00085927,0.05333588,0.00009393,-0.00044580,0.00264079,0.0011
 2072,-0.00533363,0.00079322,0.04452721,-0.29375538,0.04505879,0.000061
 15,-0.00019661,-0.00071109,-0.04415958,0.31827745,0.00152549,-0.001890
 38,0.00150462,-0.00387597,-0.01431224,0.01005713,-0.00022954,0.0705014
 6,-0.04523598,0.00075277,0.00082056,0.00152144,-0.00182451,-0.05064650
 ,0.03241302,-0.09535957,0.00094804,0.02074880,-0.03223672,-0.00306127,
 0.02221507,-0.22600064,-0.09903452,0.01819035,-0.00334132,0.00325760,-
 0.00199915,0.00804068,-0.00196444,0.00524525,0.54314858,0.02062634,-0.
 19657951,-0.01070603,0.00539064,0.01111797,0.00536348,-0.10314997,-0.1
 6983167,-0.01329877,0.00016581,-0.00216449,-0.00126197,-0.03202747,-0.
 01562524,-0.00096253,0.05741262,0.54911467,0.02145739,-0.02761678,-0.0
 7455046,0.03027669,0.00628859,-0.00608269,0.02713389,-0.01878313,-0.04
 343153,0.00204672,-0.00274596,-0.00096198,0.00633770,0.00114595,0.0037
 5724,-0.21928454,0.08298030,0.28826460,-0.16780514,-0.00447440,0.03167
 642,-0.07699366,-0.07590937,0.06453719,0.00385593,0.01179385,-0.003143
 67,-0.00418469,-0.02477194,-0.00324531,-0.00450783,0.00097797,0.001336
 60,-0.02650207,0.01638693,0.01393569,0.40390528,-0.02307076,-0.0983832
 9,-0.00597284,-0.06565062,-0.30447648,0.02422684,0.00445486,-0.0316803
 1,-0.00353843,0.00439690,-0.00566988,-0.00099127,0.00266740,-0.0028193
 1,-0.00367904,0.04157267,-0.00958433,-0.01546053,0.06449887,0.62355275
 ,0.06402996,-0.01095663,-0.09306870,0.06126695,0.00602649,-0.04929479,
 -0.00059853,-0.02249689,-0.00039390,-0.00223271,0.01803903,-0.00349461
 ,0.00015269,0.00156400,-0.00276240,0.01408646,-0.00910027,-0.00708324,
 -0.19279550,0.12218414,0.34098063,-0.00579450,0.00976765,0.00398278,-0
 .00599674,-0.00154809,0.00269437,-0.02401164,0.00425128,0.02358298,-0.
 00045003,0.00075832,-0.00010198,0.00072438,0.00055855,-0.00220563,-0.1
 4896420,0.01464414,0.07216442,0.00245763,-0.00442142,0.00134609,0.5486
 3104,0.02476280,-0.00488151,-0.02181238,-0.00312824,-0.00435777,0.0008
 1699,-0.01107149,0.00884875,0.01236731,-0.00064563,0.00119819,0.000539
 39,-0.00060351,-0.00027966,0.00184983,0.00847841,-0.10719343,-0.020679
 76,0.00043817,-0.00434516,-0.00418435,0.02160589,0.60956144,0.00040101
 ,-0.00322934,-0.00890278,-0.00020461,-0.00038854,0.00216327,-0.0000518
 6,0.00249222,-0.00533614,-0.00073491,0.00063081,0.00008942,-0.00038528
 ,-0.00178293,0.00056528,0.09684792,-0.03062826,-0.14069305,-0.00017536
 ,0.00146766,0.00202775,0.03328536,-0.00617407,0.50938069,-0.00323343,-
 0.00152874,0.00170044,0.00069522,-0.00011014,-0.00022916,0.00036657,0.
 00159978,-0.00062427,-0.00002265,-0.00005680,-0.00006533,0.00018758,-0
 .00059295,0.00042090,-0.00838158,0.02815468,0.00313860,-0.00025050,0.0
 0146237,0.00090013,-0.06192661,0.05053928,-0.00341342,0.06639180,0.001
 18244,0.00240700,0.00029082,-0.00014581,0.00009603,-0.00021216,-0.0012
 4215,0.00080210,0.00020858,0.00004165,0.00000924,-0.00001934,0.0007643
 6,0.00033195,-0.00021719,0.00336189,-0.00691386,-0.00388053,-0.0000109
 1,-0.00036566,-0.00007774,0.05639589,-0.30579935,0.01504342,-0.0643861
 0,0.32893185,0.00393268,0.00162269,-0.00152263,-0.00044819,-0.00024152
 ,0.00004178,-0.00102256,-0.00088345,0.00052859,0.00005453,0.00005275,0
 .00008029,-0.00016200,0.00063866,0.00007647,0.00852118,-0.02971191,-0.
 00288012,0.00018450,-0.00151111,-0.00078314,-0.00463205,0.02168310,-0.
 05051099,-0.00254730,-0.01395318,0.05506181,0.00031345,-0.00148771,-0.
 00033182,-0.00061860,-0.00150455,0.00044286,-0.00098847,0.00463669,0.0
 0162771,-0.00020310,0.00045687,0.00021708,0.00015121,-0.00024334,0.000
 02645,-0.02464163,-0.01467399,0.00157198,0.00001852,0.00041715,-0.0000
 7399,-0.22400959,-0.11239083,-0.04478180,0.00863258,0.00354067,0.00167
 861,0.24952020,0.00131443,0.00015381,0.00079864,0.00033588,0.00049996,
 -0.00024544,0.00059140,0.00007633,-0.00077880,0.00009802,-0.00005629,0
 .00001061,-0.00001663,0.00028256,-0.00026935,0.00843132,0.00567261,0.0
 0220850,-0.00046737,0.00012351,0.00028861,-0.11708696,-0.12936334,-0.0
 2990392,-0.02651471,-0.01412800,-0.00715837,0.12633267,0.13164139,0.00
 020363,0.00078078,0.00127686,0.00087374,0.00105903,-0.00040783,0.00213
 712,-0.00322015,-0.00102386,0.00032220,-0.00035099,-0.00004865,-0.0001
 7649,0.00004703,-0.00010393,0.02668281,0.01720085,0.00203570,-0.000252
 70,0.00020052,-0.00001010,-0.05040081,-0.03348278,-0.06433678,0.002072
 23,0.00156129,0.00001170,0.04312685,0.03357949,0.06776675,0.00087957,-
 0.00270801,0.00133787,0.00064124,-0.00085800,-0.00092920,0.00372393,0.
 00311268,0.00077368,0.00000601,-0.00004870,0.00006214,-0.00035004,0.00
 011298,-0.00018655,0.00287522,-0.00572836,0.03175944,-0.00073931,0.000
 79337,-0.00063017,-0.08080135,0.01901332,-0.07885900,-0.00206365,0.000
 59450,-0.00592687,-0.00803916,0.00734495,-0.02393315,0.08338386,-0.001
 27310,0.00251708,-0.00191061,-0.00018903,-0.00037831,-0.00049194,0.000
 47699,0.00067294,0.00072411,-0.00001469,-0.00001466,-0.00003671,0.0001
 9428,-0.00000241,-0.00007833,-0.00222864,0.00236920,-0.00885015,0.0009
 1544,-0.00021443,0.00028688,0.01851398,-0.06469890,0.04870686,0.011621
 66,-0.00575774,0.02972407,-0.00606763,0.00468959,-0.01697270,-0.021655
 20,0.06071681,-0.00019603,0.00410070,-0.00053181,-0.00144493,0.0007455
 2,0.00019693,-0.00067650,-0.00044370,0.00328658,0.00014045,-0.00014073
 ,-0.00011774,-0.00046895,0.00046821,-0.00108258,0.00983113,-0.00144397
 ,-0.03124477,0.00069128,-0.00187787,0.00088092,-0.07992367,0.05014400,
 -0.24770631,-0.00153016,0.00108736,-0.00035196,-0.00357770,0.00159376,
 -0.00468152,0.07774505,-0.05244516,0.28102511,-0.00883105,0.02220170,0
 .02194727,0.00307877,-0.00344324,-0.00887070,-0.00236726,-0.00100028,0
 .00159496,0.00041739,-0.00102417,-0.00003312,0.00029676,-0.00010110,-0
 .00048006,-0.00246242,0.00062107,0.00576920,-0.09071447,-0.00293495,0.
 02568669,-0.00094030,0.00243017,-0.00039883,-0.00041601,0.00019229,0.0
 0043855,0.00014728,-0.00005767,-0.00007719,0.00020399,-0.00009372,-0.0
 0050462,0.59376893,0.00779630,0.00382815,-0.00093191,0.00657877,-0.029
 21276,-0.02537067,-0.00127491,-0.00665075,-0.00250491,0.00108603,0.001
 93406,0.00052137,0.00028496,0.00062303,-0.00099047,-0.00421750,-0.0002
 8371,0.00115668,0.00913826,-0.14570512,-0.06411600,0.00135793,0.000159
 53,-0.00015593,-0.00026385,0.00024195,0.00019831,-0.00009352,-0.000072
 94,-0.00002267,-0.00032210,0.00005511,0.00049845,0.02412405,0.56254166
 ,0.00244190,-0.00484814,-0.01512045,-0.00442994,0.00078194,0.00316709,
 0.00079163,0.00370712,0.00039577,0.00047232,0.00139913,0.00089066,-0.0
 0156473,0.00141346,0.00011530,-0.00276591,0.00084675,0.00063060,0.0465
 6024,-0.08719992,-0.15251233,0.00106430,0.00022836,0.00019834,-0.00006
 293,0.00019045,0.00018649,-0.00011053,-0.00014150,0.00003455,-0.000277
 47,0.00010799,0.00024988,-0.01200265,-0.04577662,0.50254297,0.00284823
 ,-0.00072862,0.00172566,-0.00036052,-0.00058898,0.00021875,-0.00020341
 ,-0.00013432,0.00023529,-0.00025401,-0.00000343,-0.00026416,0.00005209
 ,-0.00011201,0.00004604,0.00029348,0.00073058,-0.00046782,0.00764477,-
 0.00303232,0.00653747,-0.00010921,-0.00006530,-0.00014971,0.00001694,-
 0.00002261,-0.00001986,-0.00000418,0.00001528,0.00001172,0.00004127,-0
 .00003176,-0.00000610,-0.12497409,0.02893746,-0.10276331,0.12675841,-0
 .00272613,-0.00008411,0.00016799,0.00246381,0.00441974,-0.00020812,-0.
 00070812,0.00090628,0.00112302,-0.00043566,-0.00003003,-0.00021553,-0.
 00016030,0.00008503,-0.00018350,0.00047109,-0.00018839,0.00035757,-0.0
 1199489,-0.00161219,-0.02752631,-0.00022250,0.00015085,0.00003422,0.00
 001519,-0.00001350,-0.00000151,0.00002344,-0.00000084,-0.00000615,0.00
 005909,-0.00000298,-0.00010860,0.02860756,-0.06367243,0.04363397,-0.03
 144058,0.06342293,-0.00469103,-0.00103694,0.00103962,-0.00078794,0.000
 25398,0.00241126,-0.00091408,0.00110119,0.00022918,-0.00012598,-0.0002
 8086,-0.00007204,0.00018534,-0.00033732,0.00000982,0.00225735,0.000192
 16,0.00074100,-0.00520284,-0.00908910,-0.03333219,-0.00077896,0.000334
 86,-0.00003321,0.00004787,-0.00006128,-0.00002022,0.00011488,0.0000302
 7,-0.00003386,0.00017073,-0.00006666,-0.00031285,-0.10505708,0.0448245
 6,-0.20075318,0.11592430,-0.03928938,0.22999794,0.00148636,0.00119094,
 -0.00051857,0.00043336,-0.00073632,-0.00000719,-0.00000492,0.00006489,
 0.00004273,0.00023540,0.00050726,-0.00029013,0.00000192,0.00005513,0.0
 0003205,-0.00037472,0.00004470,0.00019413,-0.00516231,0.00129274,0.005
 05451,0.00022216,0.00018024,-0.00017324,-0.00005214,0.00002474,0.00006
 356,0.00000692,-0.00002016,0.00000337,-0.00001821,-0.00000294,0.000066
 85,-0.30492545,-0.01627582,0.05642740,-0.01622887,-0.00190169,0.002868
 41,0.32800435,-0.00014685,-0.00314525,-0.00170881,0.00171495,0.0013776
 4,-0.00043785,-0.00027382,0.00042280,0.00023553,-0.00020750,-0.0002514
 3,0.00004783,-0.00002978,-0.00004047,0.00012136,0.00125511,0.00009808,
 -0.00104641,0.02537786,-0.00090911,-0.00986017,-0.00011298,-0.00040286
 ,0.00002383,0.00009774,-0.00005239,-0.00009623,-0.00000845,0.00001669,
 0.00002568,0.00001619,0.00000699,-0.00002930,-0.02211695,-0.05191684,0
 .00617596,0.00807874,0.00089610,-0.00097878,0.01624087,0.05348969,-0.0
 0096344,-0.00480693,-0.00070087,-0.00035025,0.00176750,0.00021880,0.00
 007505,0.00035423,0.00003847,-0.00007756,-0.00021328,0.00038452,0.0000
 0280,-0.00009098,0.00006918,0.00158935,0.00012777,-0.00125617,0.030007
 01,-0.00056875,-0.01226660,-0.00018991,-0.00055790,0.00022004,0.000138
 38,-0.00008334,-0.00015551,0.00000117,0.00003564,0.00000528,0.00002412
 ,0.00000489,-0.00004614,0.04955027,0.00346760,-0.06062222,-0.02625077,
 -0.00199369,0.00719857,-0.06416650,0.00164894,0.06926327,-0.00024693,0
 .00114100,-0.00048708,0.00002617,0.00008698,0.00129074,0.00055244,0.00
 055393,0.00021156,0.00008953,0.00026237,-0.00011714,-0.00002770,-0.000
 02623,0.00000643,-0.00020034,-0.00050750,-0.00030095,0.00189362,0.0089
 0285,-0.00201383,0.00004847,-0.00006341,0.00008667,0.00001722,-0.00002
 102,-0.00001884,-0.00000811,0.00001729,-0.00000055,-0.00000982,0.00001
 021,0.00002479,-0.06315292,-0.05225684,0.01833083,0.00430222,0.0174886
 6,-0.00621819,-0.00406783,-0.03006342,0.01031333,0.06063090,-0.0016208
 6,0.00007782,0.00043886,0.00363113,0.00026710,-0.00324275,-0.00108405,
 -0.00104041,-0.00018986,0.00010810,0.00010560,0.00023950,0.00027169,-0
 .00011146,-0.00021152,0.00068881,0.00004652,0.00019343,-0.00616084,-0.
 02527993,0.00199213,-0.00023143,0.00011479,0.00008117,0.00000350,-0.00
 000362,-0.00001410,0.00006077,0.00001300,-0.00001960,0.00003638,-0.000
 02117,-0.00012476,-0.04912549,-0.27161780,0.07959205,-0.00128184,-0.00
 462909,0.00332896,-0.00072799,0.00052777,0.00060898,0.05432448,0.30147
 591,-0.00017838,-0.00051081,0.00158672,0.00342938,-0.00157890,-0.00247
 093,-0.00076339,-0.00140630,0.00035273,-0.00029047,-0.00007022,-0.0000
 8546,0.00031644,-0.00019366,-0.00034813,-0.00009729,0.00012874,0.00014
 663,-0.00838061,-0.03163452,0.00700652,-0.00004454,0.00008173,-0.00001
 949,-0.00001956,-0.00000220,0.00000560,0.00001756,0.00000233,-0.000008
 50,0.00002654,-0.00001419,-0.00004121,0.02020325,0.08776940,-0.0829541
 7,0.00670792,0.02357059,-0.00736308,0.00031371,0.00595728,-0.00242234,
 -0.02098916,-0.08253764,0.08707003,-0.14962835,-0.06123977,-0.10257335
 ,-0.00148061,0.00196605,-0.00112352,-0.00181173,0.00173971,0.00181774,
 -0.00008640,-0.00067504,-0.00021584,0.00025777,-0.00039547,-0.00021338
 ,0.01174472,0.00495804,0.00746253,-0.03195028,-0.01228085,-0.01108907,
 0.00037214,0.00024343,-0.00058320,0.00006078,-0.00003986,-0.00009369,-
 0.00008871,-0.00058664,-0.00046485,0.00004553,-0.00001142,-0.00033217,
 0.00153945,-0.00264387,-0.00177682,0.00010827,0.00019667,0.00166483,0.
 00049303,-0.00000886,0.00012144,-0.00020195,0.00056598,0.00001303,0.16
 902925,-0.05977340,-0.07870167,-0.05735376,0.00151610,-0.00066187,0.00
 029301,0.00077619,-0.00238137,-0.00361279,-0.00016476,0.00015486,0.000
 20208,-0.00043776,-0.00002896,0.00056164,-0.01822302,-0.02749207,-0.01
 915902,-0.00289720,0.00174162,-0.00080224,-0.00175354,-0.00013833,0.00
 115615,0.00015825,0.00003345,0.00002599,0.00059419,0.00045719,-0.00018
 084,0.00018761,0.00005528,-0.00055927,0.00128332,-0.00015676,-0.000380
 28,-0.00023633,0.00024211,0.00051152,0.00003046,-0.00007292,0.00015932
 ,0.00037345,0.00023935,0.00000110,0.06923641,0.09814749,-0.10526163,-0
 .05998619,-0.15841497,0.00111361,-0.00108304,-0.00079145,0.00136404,0.
 00078731,-0.00127511,-0.00028352,0.00051138,-0.00025863,-0.00006130,-0
 .00003546,-0.00001481,-0.00040679,-0.00734683,0.00183149,0.01289306,0.
 00776053,0.01143465,-0.00088332,-0.00048424,0.00080873,0.00024025,-0.0
 0001129,0.00001613,0.00037710,0.00010931,-0.00018635,-0.00017942,0.000
 35205,0.00006100,0.00161935,-0.00015712,0.00289242,-0.00102544,0.00066
 593,0.00029188,-0.00009051,0.00017180,0.00015169,-0.00003288,0.0002770
 9,-0.00027219,0.11021400,0.06795526,0.16350747,-0.04507657,0.00267279,
 -0.00982935,-0.00202915,0.00152808,0.00315696,-0.00135875,0.00119942,0
 .00041817,-0.00067686,-0.00109507,-0.00050892,0.00033864,0.00008746,-0
 .00037633,0.00236252,0.00695173,-0.00319508,-0.01096550,-0.01906825,0.
 03037284,0.00054835,0.00027671,-0.00070974,-0.00002212,-0.00022997,-0.
 00000226,-0.00018862,0.00026890,-0.00012793,0.00022091,-0.00016443,0.0
 0016128,-0.00066860,-0.00195535,-0.00033433,0.00006858,0.00026435,0.00
 054240,-0.00004904,0.00018714,0.00017551,0.00035501,0.00054168,-0.0002
 6442,0.00159707,0.00933003,-0.01959660,0.05554414,0.00070413,-0.110282
 53,0.10180386,0.00120738,-0.00193240,-0.00017957,0.00322386,0.00036346
 ,0.00057476,-0.00022166,0.00024465,0.00011887,-0.00104995,-0.00096109,
 -0.00041379,0.00285184,-0.03256234,0.02389127,-0.00284045,0.00562733,-
 0.00126068,-0.00247673,0.00142677,0.00262665,-0.00019916,0.00018054,-0
 .00037417,0.00040756,-0.00000524,-0.00019879,0.00004930,0.00000761,-0.
 00146464,0.00043742,-0.00009439,0.00026927,-0.00008396,0.00011052,0.00
 056283,0.00003293,-0.00004447,0.00014000,-0.00022278,-0.00016440,0.000
 43726,-0.00102451,0.00856260,-0.00948650,-0.00079523,0.12952337,-0.007
 38010,0.10356365,-0.22680286,-0.00045757,-0.00185598,-0.00173000,0.001
 29731,-0.00072871,-0.00000808,0.00013106,0.00038064,0.00010448,-0.0004
 1104,0.00002783,-0.00054168,-0.00166197,-0.00237952,0.01077675,0.01137
 398,0.00568368,-0.00732847,0.00104058,-0.00067011,0.00208523,-0.000166
 67,0.00013634,0.00021569,-0.00032641,-0.00015979,-0.00028947,-0.000977
 74,0.00095961,0.00041646,0.00061471,0.00158992,0.00065828,-0.00045996,
 -0.00002048,0.00000136,0.00017941,-0.00025065,-0.00007997,-0.00008571,
 -0.00041192,-0.00018273,-0.00282768,0.01118212,-0.01978195,0.00011781,
 -0.11704663,0.24248697\\0.00001859,-0.00000234,-0.00000578,-0.00000281
 ,-0.00001512,0.00000361,-0.00001499,-0.00000556,0.00000262,0.00000116,
 -0.00000035,0.00000348,0.00000198,0.00000018,0.00000556,0.00000831,0.0
 0002706,-0.00000230,-0.00001028,0.00001471,0.00000785,-0.00000216,-0.0
 0000162,-0.00000119,-0.00000168,-0.00000194,-0.00000062,-0.00000197,-0
 .00000163,-0.00000250,-0.00000327,-0.00000315,-0.00000073,0.00000227,0
 .00000197,-0.00000124,0.00000342,0.00000268,-0.00000090,0.00000266,0.0
 0000107,0.00000164,0.00000123,0.00000100,-0.00000166,-0.00000375,-0.00
 000564,-0.00000967,0.00000129,-0.00001132,0.00000182\\\@


 A MAN SHOULD NEVER BE ASHAMED TO OWN HE HAS BEEN IN THE WRONG
 WHICH IS BUT SAYING IN OTHER WORDS,
 THAT HE IS WISER TODAY THAN HE WAS YESTERDAY.

                          -- JONATHAN SWIFT
 Job cpu time:       0 days  0 hours 20 minutes  8.4 seconds.
 Elapsed time:       0 days  0 hours  0 minutes 51.2 seconds.
 File lengths (MBytes):  RWF=     98 Int=      0 D2E=      0 Chk=     10 Scr=      1
 Normal termination of Gaussian 16 at Thu Nov 21 13:28:47 2019.
